   8   8   0   0
  0.5877516E+01  0.3609341E-09  0.3609341E-09  0.3609341E-09  0.5000000E-15
  1.000000000000000E-004
  CAR 
 unknown system                          
     23.57068492    -12.20282789  301     10.58042809      1.00000000
    -12.203  0.0000E+00  0.0000E+00
    -12.084  0.0000E+00  0.0000E+00
    -11.964  0.0000E+00  0.0000E+00
    -11.845  0.0000E+00  0.0000E+00
    -11.726  0.0000E+00  0.0000E+00
    -11.607  0.0000E+00  0.0000E+00
    -11.487  0.0000E+00  0.0000E+00
    -11.368  0.0000E+00  0.0000E+00
    -11.249  0.0000E+00  0.0000E+00
    -11.130  0.0000E+00  0.0000E+00
    -11.010  0.0000E+00  0.0000E+00
    -10.891  0.0000E+00  0.0000E+00
    -10.772  0.8333E-11  0.9936E-12
    -10.653  0.7788E-05  0.9287E-06
    -10.533  0.5521E-03  0.6677E-04
    -10.414  0.1769E-02  0.2777E-03
    -10.295  0.2234E-02  0.5440E-03
    -10.176  0.3336E-02  0.9419E-03
    -10.056  0.2414E-02  0.1230E-02
     -9.937  0.4509E-02  0.1767E-02
     -9.818  0.3539E-02  0.2189E-02
     -9.699  0.4096E-02  0.2678E-02
     -9.579  0.5102E-02  0.3286E-02
     -9.460  0.5039E-02  0.3887E-02
     -9.341  0.5524E-02  0.4546E-02
     -9.222  0.3960E-02  0.5018E-02
     -9.102  0.6921E-02  0.5843E-02
     -8.983  0.6631E-02  0.6634E-02
     -8.864  0.5413E-02  0.7280E-02
     -8.745  0.5050E-02  0.7882E-02
     -8.625  0.7575E-02  0.8785E-02
     -8.506  0.8282E-02  0.9773E-02
     -8.387  0.5999E-02  0.1049E-01
     -8.268  0.7708E-02  0.1141E-01
     -8.148  0.6479E-02  0.1218E-01
     -8.029  0.8851E-02  0.1324E-01
     -7.910  0.5733E-02  0.1392E-01
     -7.791  0.9835E-02  0.1509E-01
     -7.672  0.1061E-01  0.1636E-01
     -7.552  0.5558E-02  0.1702E-01
     -7.433  0.8420E-02  0.1802E-01
     -7.314  0.7478E-02  0.1892E-01
     -7.195  0.1266E-01  0.2043E-01
     -7.075  0.9045E-02  0.2150E-01
     -6.956  0.9548E-02  0.2264E-01
     -6.837  0.7800E-02  0.2357E-01
     -6.718  0.1096E-01  0.2488E-01
     -6.598  0.8905E-02  0.2594E-01
     -6.479  0.1149E-01  0.2731E-01
     -6.360  0.9908E-02  0.2849E-01
     -6.241  0.1167E-01  0.2989E-01
     -6.121  0.1078E-01  0.3117E-01
     -6.002  0.1255E-01  0.3267E-01
     -5.883  0.1213E-01  0.3411E-01
     -5.764  0.7432E-02  0.3500E-01
     -5.644  0.1059E-01  0.3626E-01
     -5.525  0.1735E-01  0.3833E-01
     -5.406  0.1243E-01  0.3982E-01
     -5.287  0.1336E-01  0.4141E-01
     -5.167  0.1489E-01  0.4318E-01
     -5.048  0.1168E-01  0.4458E-01
     -4.929  0.1594E-01  0.4648E-01
     -4.810  0.1564E-01  0.4834E-01
     -4.690  0.1782E-01  0.5047E-01
     -4.571  0.1235E-01  0.5194E-01
     -4.452  0.1379E-01  0.5358E-01
     -4.333  0.1542E-01  0.5542E-01
     -4.213  0.2094E-01  0.5792E-01
     -4.094  0.6335E-02  0.5868E-01
     -3.975  0.1373E-01  0.6031E-01
     -3.856  0.9455E-02  0.6144E-01
     -3.736  0.1310E-01  0.6300E-01
     -3.617  0.1738E-01  0.6508E-01
     -3.498  0.1013E-01  0.6628E-01
     -3.379  0.7561E-02  0.6719E-01
     -3.259  0.1420E-01  0.6888E-01
     -3.140  0.9909E-02  0.7006E-01
     -3.021  0.1372E-01  0.7170E-01
     -2.902  0.6902E-02  0.7252E-01
     -2.782  0.5989E-02  0.7323E-01
     -2.663  0.6674E-02  0.7403E-01
     -2.544  0.8914E-02  0.7509E-01
     -2.425  0.1287E-01  0.7663E-01
     -2.305  0.1452E-01  0.7836E-01
     -2.186  0.1146E-01  0.7973E-01
     -2.067  0.1062E-01  0.8099E-01
     -1.948  0.7421E-02  0.8188E-01
     -1.829  0.7172E-02  0.8273E-01
     -1.709  0.9626E-02  0.8388E-01
     -1.590  0.9003E-02  0.8495E-01
     -1.471  0.1120E-01  0.8629E-01
     -1.352  0.1389E-01  0.8795E-01
     -1.232  0.2354E-01  0.9075E-01
     -1.113  0.1460E-01  0.9249E-01
     -0.994  0.2469E-01  0.9544E-01
     -0.875  0.1821E-01  0.9761E-01
     -0.755  0.2788E-01  0.1009E+00
     -0.636  0.1479E-01  0.1027E+00
     -0.517  0.1920E-01  0.1050E+00
     -0.398  0.2781E-01  0.1083E+00
     -0.278  0.2743E-01  0.1116E+00
     -0.159  0.1316E-01  0.1131E+00
     -0.040  0.1363E-01  0.1148E+00
      0.079  0.1022E-01  0.1160E+00
      0.199  0.1157E-01  0.1174E+00
      0.318  0.1344E-01  0.1190E+00
      0.437  0.1216E-01  0.1204E+00
      0.556  0.1232E-01  0.1219E+00
      0.676  0.1581E-01  0.1238E+00
      0.795  0.1716E-01  0.1258E+00
      0.914  0.5091E-02  0.1264E+00
      1.033  0.9524E-02  0.1276E+00
      1.153  0.1345E-01  0.1292E+00
      1.272  0.1062E-01  0.1304E+00
      1.391  0.4278E-02  0.1309E+00
      1.510  0.1776E-01  0.1331E+00
      1.630  0.1300E-01  0.1346E+00
      1.749  0.2339E-01  0.1374E+00
      1.868  0.1845E-01  0.1396E+00
      1.987  0.1378E-01  0.1412E+00
      2.107  0.2498E-01  0.1442E+00
      2.226  0.2362E-01  0.1470E+00
      2.345  0.2790E-01  0.1504E+00
      2.464  0.1364E-01  0.1520E+00
      2.584  0.1611E-01  0.1539E+00
      2.703  0.1760E-01  0.1560E+00
      2.822  0.2349E-01  0.1588E+00
      2.941  0.3512E-01  0.1630E+00
      3.061  0.1997E-01  0.1654E+00
      3.180  0.1452E-01  0.1671E+00
      3.299  0.1616E-01  0.1690E+00
      3.418  0.2676E-01  0.1722E+00
      3.538  0.2914E-01  0.1757E+00
      3.657  0.2323E-01  0.1785E+00
      3.776  0.2250E-01  0.1812E+00
      3.895  0.2302E-01  0.1839E+00
      4.014  0.2006E-01  0.1863E+00
      4.134  0.3504E-01  0.1905E+00
      4.253  0.3823E-01  0.1950E+00
      4.372  0.2472E-01  0.1980E+00
      4.491  0.2753E-01  0.2013E+00
      4.611  0.3608E-01  0.2056E+00
      4.730  0.2236E-01  0.2082E+00
      4.849  0.3470E-01  0.2124E+00
      4.968  0.4614E-01  0.2179E+00
      5.088  0.3427E-01  0.2220E+00
      5.207  0.1890E-01  0.2242E+00
      5.326  0.2033E-01  0.2266E+00
      5.445  0.3413E-01  0.2307E+00
      5.565  0.4184E-01  0.2357E+00
      5.684  0.3560E-01  0.2399E+00
      5.803  0.1721E-01  0.2420E+00
      5.922  0.2908E-01  0.2455E+00
      6.042  0.3328E-01  0.2494E+00
      6.161  0.2473E-01  0.2524E+00
      6.280  0.3339E-01  0.2564E+00
      6.399  0.3030E-01  0.2600E+00
      6.519  0.2288E-01  0.2627E+00
      6.638  0.2162E-01  0.2653E+00
      6.757  0.3702E-01  0.2697E+00
      6.876  0.3124E-01  0.2734E+00
      6.996  0.2204E-01  0.2760E+00
      7.115  0.2472E-01  0.2790E+00
      7.234  0.2214E-01  0.2816E+00
      7.353  0.2721E-01  0.2849E+00
      7.473  0.3945E-01  0.2896E+00
      7.592  0.2253E-01  0.2923E+00
      7.711  0.1377E-01  0.2939E+00
      7.830  0.2230E-01  0.2966E+00
      7.950  0.2218E-01  0.2992E+00
      8.069  0.2209E-01  0.3019E+00
      8.188  0.1793E-01  0.3040E+00
      8.307  0.7486E-02  0.3049E+00
      8.427  0.9521E-02  0.3060E+00
      8.546  0.1980E-01  0.3084E+00
      8.665  0.1133E-01  0.3097E+00
      8.784  0.1272E-01  0.3112E+00
      8.904  0.6826E-02  0.3121E+00
      9.023  0.5729E-02  0.3127E+00
      9.142  0.9914E-02  0.3139E+00
      9.261  0.1159E-01  0.3153E+00
      9.381  0.5701E-02  0.3160E+00
      9.500  0.5411E-02  0.3166E+00
      9.619  0.5714E-02  0.3173E+00
      9.738  0.6318E-02  0.3181E+00
      9.858  0.4285E-02  0.3186E+00
      9.977  0.3406E-02  0.3190E+00
     10.096  0.4155E-02  0.3195E+00
     10.215  0.1898E-02  0.3197E+00
     10.334  0.2057E-02  0.3200E+00
     10.454  0.4184E-03  0.3200E+00
     10.573  0.1832E-06  0.3200E+00
     10.692  0.2057E-14  0.3200E+00
     10.811  0.0000E+00  0.3200E+00
     10.931  0.0000E+00  0.3200E+00
     11.050  0.0000E+00  0.3200E+00
     11.169  0.0000E+00  0.3200E+00
     11.288  0.0000E+00  0.3200E+00
     11.408  0.0000E+00  0.3200E+00
     11.527  0.0000E+00  0.3200E+00
     11.646  0.0000E+00  0.3200E+00
     11.765  0.0000E+00  0.3200E+00
     11.885  0.0000E+00  0.3200E+00
     12.004  0.0000E+00  0.3200E+00
     12.123  0.0000E+00  0.3200E+00
     12.242  0.0000E+00  0.3200E+00
     12.362  0.0000E+00  0.3200E+00
     12.481  0.0000E+00  0.3200E+00
     12.600  0.0000E+00  0.3200E+00
     12.719  0.0000E+00  0.3200E+00
     12.839  0.0000E+00  0.3200E+00
     12.958  0.0000E+00  0.3200E+00
     13.077  0.0000E+00  0.3200E+00
     13.196  0.0000E+00  0.3200E+00
     13.316  0.0000E+00  0.3200E+00
     13.435  0.0000E+00  0.3200E+00
     13.554  0.0000E+00  0.3200E+00
     13.673  0.0000E+00  0.3200E+00
     13.793  0.0000E+00  0.3200E+00
     13.912  0.0000E+00  0.3200E+00
     14.031  0.0000E+00  0.3200E+00
     14.150  0.0000E+00  0.3200E+00
     14.270  0.1792E-17  0.3200E+00
     14.389  0.4641E-08  0.3200E+00
     14.508  0.2750E-03  0.3200E+00
     14.627  0.4093E-02  0.3205E+00
     14.747  0.2328E-02  0.3208E+00
     14.866  0.2379E-02  0.3211E+00
     14.985  0.9445E-02  0.3222E+00
     15.104  0.7354E-02  0.3231E+00
     15.224  0.1090E-01  0.3244E+00
     15.343  0.8154E-02  0.3254E+00
     15.462  0.4707E-02  0.3259E+00
     15.581  0.1426E-01  0.3276E+00
     15.701  0.1947E-01  0.3299E+00
     15.820  0.1611E-01  0.3319E+00
     15.939  0.1716E-01  0.3339E+00
     16.058  0.1606E-01  0.3358E+00
     16.177  0.1393E-01  0.3375E+00
     16.297  0.1873E-01  0.3397E+00
     16.416  0.1683E-01  0.3417E+00
     16.535  0.2030E-01  0.3441E+00
     16.654  0.3391E-01  0.3482E+00
     16.774  0.2057E-01  0.3506E+00
     16.893  0.1799E-01  0.3528E+00
     17.012  0.1586E-01  0.3547E+00
     17.131  0.2794E-01  0.3580E+00
     17.251  0.2955E-01  0.3615E+00
     17.370  0.2590E-01  0.3646E+00
     17.489  0.1683E-01  0.3666E+00
     17.608  0.2446E-01  0.3695E+00
     17.728  0.3365E-01  0.3736E+00
     17.847  0.3418E-01  0.3776E+00
     17.966  0.3555E-01  0.3819E+00
     18.085  0.4276E-01  0.3870E+00
     18.205  0.2851E-01  0.3904E+00
     18.324  0.3306E-01  0.3943E+00
     18.443  0.3324E-01  0.3983E+00
     18.562  0.3869E-01  0.4029E+00
     18.682  0.4704E-01  0.4085E+00
     18.801  0.4946E-01  0.4144E+00
     18.920  0.6512E-01  0.4222E+00
     19.039  0.4029E-01  0.4270E+00
     19.159  0.3037E-01  0.4306E+00
     19.278  0.3433E-01  0.4347E+00
     19.397  0.2809E-01  0.4380E+00
     19.516  0.2435E-01  0.4409E+00
     19.636  0.1806E-01  0.4431E+00
     19.755  0.2887E-01  0.4465E+00
     19.874  0.4347E-01  0.4517E+00
     19.993  0.2260E-01  0.4544E+00
     20.113  0.2742E-01  0.4577E+00
     20.232  0.3180E-01  0.4615E+00
     20.351  0.2873E-01  0.4649E+00
     20.470  0.2068E-01  0.4674E+00
     20.590  0.1733E-01  0.4694E+00
     20.709  0.8830E-02  0.4705E+00
     20.828  0.2171E-01  0.4731E+00
     20.947  0.1358E-01  0.4747E+00
     21.067  0.1659E-01  0.4767E+00
     21.186  0.1270E-01  0.4782E+00
     21.305  0.4179E-02  0.4787E+00
     21.424  0.4653E-02  0.4792E+00
     21.544  0.2906E-02  0.4796E+00
     21.663  0.5268E-03  0.4797E+00
     21.782  0.4810E-06  0.4797E+00
     21.901  0.3943E-03  0.4797E+00
     22.020  0.2503E-02  0.4800E+00
     22.140  0.3629E-04  0.4800E+00
     22.259  0.3170E-10  0.4800E+00
     22.378  0.0000E+00  0.4800E+00
     22.497  0.0000E+00  0.4800E+00
     22.617  0.0000E+00  0.4800E+00
     22.736  0.0000E+00  0.4800E+00
     22.855  0.0000E+00  0.4800E+00
     22.974  0.0000E+00  0.4800E+00
     23.094  0.0000E+00  0.4800E+00
     23.213  0.0000E+00  0.4800E+00
     23.332  0.0000E+00  0.4800E+00
     23.451  0.0000E+00  0.4800E+00
     23.571  0.0000E+00  0.4800E+00
