 vasp.5.4.4.18Apr17-6-g9f103f2a35 (build Jan 14 2019 14:48:31) complex          
  
 executed on             LinuxIFC date 2019.08.26  21:15:05
 running on   24 total cores
 distrk:  each k-point on   24 cores,    1 groups
 distr:  one band on NCORES_PER_BAND=   1 cores,   24 groups


--------------------------------------------------------------------------------------------------------


 INCAR:
 POTCAR:    PAW_PBE C_h 06Feb2004                 

 ----------------------------------------------------------------------------- 
|                                                                             |
|           W    W    AA    RRRRR   N    N  II  N    N   GGGG   !!!           |
|           W    W   A  A   R    R  NN   N  II  NN   N  G    G  !!!           |
|           W    W  A    A  R    R  N N  N  II  N N  N  G       !!!           |
|           W WW W  AAAAAA  RRRRR   N  N N  II  N  N N  G  GGG   !            |
|           WW  WW  A    A  R   R   N   NN  II  N   NN  G    G                |
|           W    W  A    A  R    R  N    N  II  N    N   GGGG   !!!           |
|                                                                             |
|      For optimal performance we recommend to set                            |
|        NCORE= 4 - approx SQRT( number of cores)                             |
|      NCORE specifies how many cores store one orbital (NPAR=cpu/NCORE).     |
|      This setting can  greatly improve the performance of VASP for DFT.     |
|      The default,   NCORE=1            might be grossly inefficient         |
|      on modern multi-core architectures or massively parallel machines.     |
|      Do your own testing !!!!                                               |
|      Unfortunately you need to use the default for GW and RPA calculations. |
|      (for HF NCORE is supported but not extensively tested yet)             |
|                                                                             |
 ----------------------------------------------------------------------------- 

 POTCAR:    PAW_PBE C_h 06Feb2004                 
   VRHFIN =C: s2p2                                                              
   LEXCH  = PE                                                                  
   EATOM  =   147.1560 eV,   10.8157 Ry                                         
                                                                                
   TITEL  = PAW_PBE C_h 06Feb2004                                               
   LULTRA =        F    use ultrasoft PP ?                                      
   IUNSCR =        1    unscreen: 0-lin 1-nonlin 2-no                           
   RPACOR =    0.800    partial core radius                                     
   POMASS =   12.011; ZVAL   =    4.000    mass and valenz                      
   RCORE  =    1.100    outmost cutoff radius                                   
   RWIGS  =    1.630; RWIGS  =    0.863    wigner-seitz radius (au A)           
   ENMAX  =  700.000; ENMIN  =  500.000 eV                                      
   ICORE  =        2    local potential                                         
   LCOR   =        T    correct aug charges                                     
   LPAW   =        T    paw PP                                                  
   EAUG   =  946.768                                                            
   DEXC   =    0.000                                                            
   RMAX   =    1.128    core radius for proj-oper                               
   RAUG   =    1.300    factor for augmentation sphere                          
   RDEP   =    1.162    radius for radial grids                                 
   RDEPT  =    1.088    core radius for aug-charge                              
                                                                                
   Atomic configuration                                                         
    4 entries                                                                   
     n  l   j            E        occ.                                          
     1  0  0.50      -273.3789   2.0000                                         
     2  0  0.50       -13.7508   2.0000                                         
     2  1  0.50        -5.2854   2.0000                                         
     3  2  1.50        -5.4423   0.0000                                         
   Description                                                                  
     l       E           TYP  RCUT    TYP  RCUT                                 
     0    -13.7508458     23  1.100                                             
     0     -8.2022199     23  1.100                                             
     1     -5.2854383     23  1.100                                             
     1      1.1560700     23  1.100                                             
     2     -5.4423304      7  1.100                                             
  local pseudopotential read in
  partial core-charges read in
  partial kinetic energy density read in
  atomic valenz-charges read in
  non local Contribution for L=           0  read in
    real space projection operators read in
  non local Contribution for L=           0  read in
    real space projection operators read in
  non local Contribution for L=           1  read in
    real space projection operators read in
  non local Contribution for L=           1  read in
    real space projection operators read in
    PAW grid and wavefunctions read in
 
   number of l-projection  operators is LMAX  =           4
   number of lm-projection operators is LMMAX =           8
 
  PAW_PBE C_h 06Feb2004                 :
 energy of atom  1       EATOM= -147.1560
 kinetic energy error for atom=    0.0044 (will be added to EATOM!!)
 
 
 POSCAR: C8                                      
  positions in direct lattice
  velocities in cartesian coordinates
 exchange correlation table for  LEXCH =        8
   RHO(1)=    0.500       N(1)  =     2000
   RHO(2)=  100.500       N(2)  =     4000

 VTST: version 3.1, (03/28/14)

 CHAIN: initializing optimizer
 
 OPT: Using VASP Conjugate-Gradient optimizer
 CHAIN: Read ICHAIN            0
 
 POSCAR: C8                                      
  positions in direct lattice
  velocities in cartesian coordinates
 


--------------------------------------------------------------------------------------------------------


 ion  position               nearest neighbor table
   1  0.250  0.250  0.250-   2 1.56   4 1.56   6 1.56   8 1.56
   2  0.000  0.000  0.000-   1 1.56   3 1.56   5 1.56   7 1.56
   3  0.250  0.750  0.750-   2 1.56   4 1.56   6 1.56   8 1.56
   4  0.000  0.500  0.500-   1 1.56   3 1.56   5 1.56   7 1.56
   5  0.750  0.250  0.750-   2 1.56   4 1.56   6 1.56   8 1.56
   6  0.500  0.000  0.500-   1 1.56   3 1.56   5 1.56   7 1.56
   7  0.750  0.750  0.250-   2 1.56   4 1.56   6 1.56   8 1.56
   8  0.500  0.500  0.000-   1 1.56   3 1.56   5 1.56   7 1.56
 
  LATTYP: Found a simple cubic cell.
 ALAT       =     3.6093411217
  
  Lattice vectors:
  
 A1 = (   3.6093411217,   0.0000000000,   0.0000000000)
 A2 = (   0.0000000000,   3.6093411217,   0.0000000000)
 A3 = (   0.0000000000,   0.0000000000,   3.6093411217)


Analysis of symmetry for initial positions (statically):
=====================================================================
 Subroutine PRICEL returns following result:
 
  LATTYP: Found a face centered cubic cell.
 ALAT       =     3.6093411217
  
  Lattice vectors:
  
 A1 = (   1.8046705608,   1.8046705608,  -0.0000000000)
 A2 = (   1.8046705608,   0.0000000000,  -1.8046705608)
 A3 = (   0.0000000000,   1.8046705608,  -1.8046705608)
 
   4 primitive cells build up your supercell.
 

 Routine SETGRP: Setting up the symmetry group for a 
 simple cubic supercell.


 Subroutine GETGRP returns: Found 48 space group operations
 (whereof 24 operations were pure point group operations)
 out of a pool of 48 trial point group operations.


The static configuration has the point symmetry T_d .
 The point group associated with its full space group is O_h .


Analysis of symmetry for dynamics (positions and initial velocities):
=====================================================================
 Subroutine PRICEL returns following result:
 
  LATTYP: Found a face centered cubic cell.
 ALAT       =     3.6093411217
  
  Lattice vectors:
  
 A1 = (   1.8046705608,   1.8046705608,  -0.0000000000)
 A2 = (   1.8046705608,   0.0000000000,  -1.8046705608)
 A3 = (   0.0000000000,   1.8046705608,  -1.8046705608)
 
   4 primitive cells build up your supercell.
 

 Routine SETGRP: Setting up the symmetry group for a 
 simple cubic supercell.


 Subroutine GETGRP returns: Found 48 space group operations
 (whereof 24 operations were pure point group operations)
 out of a pool of 48 trial point group operations.


The dynamic configuration has the point symmetry T_d .
 The point group associated with its full space group is O_h .


 Subroutine INISYM returns: Found 48 space group operations
 (whereof 24 operations are pure point group operations),
 and found     4 'primitive' translations

 
 
 KPOINTS: K-Mesh Generated with KP-Resolved Value 

Automatic generation of k-mesh.
Space group operators:
 irot       det(A)        alpha          n_x          n_y          n_z        tau_x        tau_y        tau_z
    1     1.000000     0.000000     1.000000     0.000000     0.000000     0.000000     0.000000     0.000000
    2     1.000000   120.000000    -0.577350    -0.577350    -0.577350     0.000000     0.000000     0.000000
    3     1.000000   120.000000     0.577350     0.577350     0.577350     0.000000     0.000000     0.000000
    4    -1.000000    90.000000     0.000000     0.000000    -1.000000     0.000000     0.000000     0.000000
    5    -1.000000   180.000000     0.000000     0.707107     0.707107     0.000000     0.000000     0.000000
    6    -1.000000    90.000000     0.000000     1.000000     0.000000     0.000000     0.000000     0.000000
    7     1.000000   180.000000     0.000000     0.000000     1.000000     0.000000     0.000000     0.000000
    8     1.000000   120.000000    -0.577350     0.577350     0.577350     0.000000     0.000000     0.000000
    9     1.000000   120.000000    -0.577350     0.577350    -0.577350     0.000000     0.000000     0.000000
   10    -1.000000    90.000000     0.000000     0.000000     1.000000     0.000000     0.000000     0.000000
   11    -1.000000    90.000000    -1.000000     0.000000     0.000000     0.000000     0.000000     0.000000
   12    -1.000000   180.000000     0.707107     0.000000     0.707107     0.000000     0.000000     0.000000
   13     1.000000   120.000000     0.577350    -0.577350     0.577350     0.000000     0.000000     0.000000
   14     1.000000   120.000000    -0.577350    -0.577350     0.577350     0.000000     0.000000     0.000000
   15     1.000000   180.000000     1.000000     0.000000     0.000000     0.000000     0.000000     0.000000
   16    -1.000000    90.000000     0.000000    -1.000000     0.000000     0.000000     0.000000     0.000000
   17    -1.000000   180.000000     0.707107     0.707107     0.000000     0.000000     0.000000     0.000000
   18    -1.000000    90.000000     1.000000     0.000000     0.000000     0.000000     0.000000     0.000000
   19     1.000000   120.000000     0.577350    -0.577350    -0.577350     0.000000     0.000000     0.000000
   20     1.000000   180.000000     0.000000     1.000000     0.000000     0.000000     0.000000     0.000000
   21     1.000000   120.000000     0.577350     0.577350    -0.577350     0.000000     0.000000     0.000000
   22    -1.000000   180.000000     0.000000    -0.707107     0.707107     0.000000     0.000000     0.000000
   23    -1.000000   180.000000     0.707107    -0.707107     0.000000     0.000000     0.000000     0.000000
   24    -1.000000   180.000000     0.707107     0.000000    -0.707107     0.000000     0.000000     0.000000
   25    -1.000000     0.000000     1.000000     0.000000     0.000000     0.750000     0.750000    -0.750000
   26    -1.000000   120.000000    -0.577350    -0.577350    -0.577350     0.750000     0.750000    -0.750000
   27    -1.000000   120.000000     0.577350     0.577350     0.577350     0.750000     0.750000    -0.750000
   28     1.000000    90.000000     0.000000     0.000000    -1.000000     0.750000     0.750000    -0.750000
   29     1.000000   180.000000     0.000000     0.707107     0.707107     0.750000     0.750000    -0.750000
   30     1.000000    90.000000     0.000000     1.000000     0.000000     0.750000     0.750000    -0.750000
   31    -1.000000   180.000000     0.000000     0.000000     1.000000     0.750000     0.750000    -0.750000
   32    -1.000000   120.000000    -0.577350     0.577350     0.577350     0.750000     0.750000    -0.750000
   33    -1.000000   120.000000    -0.577350     0.577350    -0.577350     0.750000     0.750000    -0.750000
   34     1.000000    90.000000     0.000000     0.000000     1.000000     0.750000     0.750000    -0.750000
   35     1.000000    90.000000    -1.000000     0.000000     0.000000     0.750000     0.750000    -0.750000
   36     1.000000   180.000000     0.707107     0.000000     0.707107     0.750000     0.750000    -0.750000
   37    -1.000000   120.000000     0.577350    -0.577350     0.577350     0.750000     0.750000    -0.750000
   38    -1.000000   120.000000    -0.577350    -0.577350     0.577350     0.750000     0.750000    -0.750000
   39    -1.000000   180.000000     1.000000     0.000000     0.000000     0.750000     0.750000    -0.750000
   40     1.000000    90.000000     0.000000    -1.000000     0.000000     0.750000     0.750000    -0.750000
   41     1.000000   180.000000     0.707107     0.707107     0.000000     0.750000     0.750000    -0.750000
   42     1.000000    90.000000     1.000000     0.000000     0.000000     0.750000     0.750000    -0.750000
   43    -1.000000   120.000000     0.577350    -0.577350    -0.577350     0.750000     0.750000    -0.750000
   44    -1.000000   180.000000     0.000000     1.000000     0.000000     0.750000     0.750000    -0.750000
   45    -1.000000   120.000000     0.577350     0.577350    -0.577350     0.750000     0.750000    -0.750000
   46     1.000000   180.000000     0.000000    -0.707107     0.707107     0.750000     0.750000    -0.750000
   47     1.000000   180.000000     0.707107    -0.707107     0.000000     0.750000     0.750000    -0.750000
   48     1.000000   180.000000     0.707107     0.000000    -0.707107     0.750000     0.750000    -0.750000
 
 Subroutine IBZKPT returns following result:
 ===========================================
 
 Found     84 irreducible k-points:
 
 Following reciprocal coordinates:
            Coordinates               Weight
  0.035714  0.035714  0.035714      8.000000
  0.107143  0.035714  0.035714     24.000000
  0.178571  0.035714  0.035714     24.000000
  0.250000  0.035714  0.035714     24.000000
  0.321429  0.035714  0.035714     24.000000
  0.392857  0.035714  0.035714     24.000000
  0.464286  0.035714  0.035714     24.000000
  0.107143  0.107143  0.035714     24.000000
  0.178571  0.107143  0.035714     48.000000
  0.250000  0.107143  0.035714     48.000000
  0.321429  0.107143  0.035714     48.000000
  0.392857  0.107143  0.035714     48.000000
  0.464286  0.107143  0.035714     48.000000
  0.178571  0.178571  0.035714     24.000000
  0.250000  0.178571  0.035714     48.000000
  0.321429  0.178571  0.035714     48.000000
  0.392857  0.178571  0.035714     48.000000
  0.464286  0.178571  0.035714     48.000000
  0.250000  0.250000  0.035714     24.000000
  0.321429  0.250000  0.035714     48.000000
  0.392857  0.250000  0.035714     48.000000
  0.464286  0.250000  0.035714     48.000000
  0.321429  0.321429  0.035714     24.000000
  0.392857  0.321429  0.035714     48.000000
  0.464286  0.321429  0.035714     48.000000
  0.392857  0.392857  0.035714     24.000000
  0.464286  0.392857  0.035714     48.000000
  0.464286  0.464286  0.035714     24.000000
  0.107143  0.107143  0.107143      8.000000
  0.178571  0.107143  0.107143     24.000000
  0.250000  0.107143  0.107143     24.000000
  0.321429  0.107143  0.107143     24.000000
  0.392857  0.107143  0.107143     24.000000
  0.464286  0.107143  0.107143     24.000000
  0.178571  0.178571  0.107143     24.000000
  0.250000  0.178571  0.107143     48.000000
  0.321429  0.178571  0.107143     48.000000
  0.392857  0.178571  0.107143     48.000000
  0.464286  0.178571  0.107143     48.000000
  0.250000  0.250000  0.107143     24.000000
  0.321429  0.250000  0.107143     48.000000
  0.392857  0.250000  0.107143     48.000000
  0.464286  0.250000  0.107143     48.000000
  0.321429  0.321429  0.107143     24.000000
  0.392857  0.321429  0.107143     48.000000
  0.464286  0.321429  0.107143     48.000000
  0.392857  0.392857  0.107143     24.000000
  0.464286  0.392857  0.107143     48.000000
  0.464286  0.464286  0.107143     24.000000
  0.178571  0.178571  0.178571      8.000000
  0.250000  0.178571  0.178571     24.000000
  0.321429  0.178571  0.178571     24.000000
  0.392857  0.178571  0.178571     24.000000
  0.464286  0.178571  0.178571     24.000000
  0.250000  0.250000  0.178571     24.000000
  0.321429  0.250000  0.178571     48.000000
  0.392857  0.250000  0.178571     48.000000
  0.464286  0.250000  0.178571     48.000000
  0.321429  0.321429  0.178571     24.000000
  0.392857  0.321429  0.178571     48.000000
  0.464286  0.321429  0.178571     48.000000
  0.392857  0.392857  0.178571     24.000000
  0.464286  0.392857  0.178571     48.000000
  0.464286  0.464286  0.178571     24.000000
  0.250000  0.250000  0.250000      8.000000
  0.321429  0.250000  0.250000     24.000000
  0.392857  0.250000  0.250000     24.000000
  0.464286  0.250000  0.250000     24.000000
  0.321429  0.321429  0.250000     24.000000
  0.392857  0.321429  0.250000     48.000000
  0.464286  0.321429  0.250000     48.000000
  0.392857  0.392857  0.250000     24.000000
  0.464286  0.392857  0.250000     48.000000
  0.464286  0.464286  0.250000     24.000000
  0.321429  0.321429  0.321429      8.000000
  0.392857  0.321429  0.321429     24.000000
  0.464286  0.321429  0.321429     24.000000
  0.392857  0.392857  0.321429     24.000000
  0.464286  0.392857  0.321429     48.000000
  0.464286  0.464286  0.321429     24.000000
  0.392857  0.392857  0.392857      8.000000
  0.464286  0.392857  0.392857     24.000000
  0.464286  0.464286  0.392857     24.000000
  0.464286  0.464286  0.464286      8.000000
 
 Following cartesian coordinates:
            Coordinates               Weight
  0.009895  0.009895  0.009895      8.000000
  0.029685  0.009895  0.009895     24.000000
  0.049475  0.009895  0.009895     24.000000
  0.069265  0.009895  0.009895     24.000000
  0.089055  0.009895  0.009895     24.000000
  0.108845  0.009895  0.009895     24.000000
  0.128634  0.009895  0.009895     24.000000
  0.029685  0.029685  0.009895     24.000000
  0.049475  0.029685  0.009895     48.000000
  0.069265  0.029685  0.009895     48.000000
  0.089055  0.029685  0.009895     48.000000
  0.108845  0.029685  0.009895     48.000000
  0.128634  0.029685  0.009895     48.000000
  0.049475  0.049475  0.009895     24.000000
  0.069265  0.049475  0.009895     48.000000
  0.089055  0.049475  0.009895     48.000000
  0.108845  0.049475  0.009895     48.000000
  0.128634  0.049475  0.009895     48.000000
  0.069265  0.069265  0.009895     24.000000
  0.089055  0.069265  0.009895     48.000000
  0.108845  0.069265  0.009895     48.000000
  0.128634  0.069265  0.009895     48.000000
  0.089055  0.089055  0.009895     24.000000
  0.108845  0.089055  0.009895     48.000000
  0.128634  0.089055  0.009895     48.000000
  0.108845  0.108845  0.009895     24.000000
  0.128634  0.108845  0.009895     48.000000
  0.128634  0.128634  0.009895     24.000000
  0.029685  0.029685  0.029685      8.000000
  0.049475  0.029685  0.029685     24.000000
  0.069265  0.029685  0.029685     24.000000
  0.089055  0.029685  0.029685     24.000000
  0.108845  0.029685  0.029685     24.000000
  0.128634  0.029685  0.029685     24.000000
  0.049475  0.049475  0.029685     24.000000
  0.069265  0.049475  0.029685     48.000000
  0.089055  0.049475  0.029685     48.000000
  0.108845  0.049475  0.029685     48.000000
  0.128634  0.049475  0.029685     48.000000
  0.069265  0.069265  0.029685     24.000000
  0.089055  0.069265  0.029685     48.000000
  0.108845  0.069265  0.029685     48.000000
  0.128634  0.069265  0.029685     48.000000
  0.089055  0.089055  0.029685     24.000000
  0.108845  0.089055  0.029685     48.000000
  0.128634  0.089055  0.029685     48.000000
  0.108845  0.108845  0.029685     24.000000
  0.128634  0.108845  0.029685     48.000000
  0.128634  0.128634  0.029685     24.000000
  0.049475  0.049475  0.049475      8.000000
  0.069265  0.049475  0.049475     24.000000
  0.089055  0.049475  0.049475     24.000000
  0.108845  0.049475  0.049475     24.000000
  0.128634  0.049475  0.049475     24.000000
  0.069265  0.069265  0.049475     24.000000
  0.089055  0.069265  0.049475     48.000000
  0.108845  0.069265  0.049475     48.000000
  0.128634  0.069265  0.049475     48.000000
  0.089055  0.089055  0.049475     24.000000
  0.108845  0.089055  0.049475     48.000000
  0.128634  0.089055  0.049475     48.000000
  0.108845  0.108845  0.049475     24.000000
  0.128634  0.108845  0.049475     48.000000
  0.128634  0.128634  0.049475     24.000000
  0.069265  0.069265  0.069265      8.000000
  0.089055  0.069265  0.069265     24.000000
  0.108845  0.069265  0.069265     24.000000
  0.128634  0.069265  0.069265     24.000000
  0.089055  0.089055  0.069265     24.000000
  0.108845  0.089055  0.069265     48.000000
  0.128634  0.089055  0.069265     48.000000
  0.108845  0.108845  0.069265     24.000000
  0.128634  0.108845  0.069265     48.000000
  0.128634  0.128634  0.069265     24.000000
  0.089055  0.089055  0.089055      8.000000
  0.108845  0.089055  0.089055     24.000000
  0.128634  0.089055  0.089055     24.000000
  0.108845  0.108845  0.089055     24.000000
  0.128634  0.108845  0.089055     48.000000
  0.128634  0.128634  0.089055     24.000000
  0.108845  0.108845  0.108845      8.000000
  0.128634  0.108845  0.108845     24.000000
  0.128634  0.128634  0.108845     24.000000
  0.128634  0.128634  0.128634      8.000000
 


--------------------------------------------------------------------------------------------------------




 Dimension of arrays:
   k-points           NKPTS =     84   k-points in BZ     NKDIM =     84   number of bands    NBANDS=     24
   number of dos      NEDOS =    301   number of ions     NIONS =      8
   non local maximal  LDIM  =      4   non local SUM 2l+1 LMDIM =      8
   total plane-waves  NPLWV =  46656
   max r-space proj   IRMAX =      1   max aug-charges    IRDMAX=  15800
   dimension x,y,z NGX =    36 NGY =   36 NGZ =   36
   dimension x,y,z NGXF=    48 NGYF=   48 NGZF=   48
   support grid    NGXF=    96 NGYF=   96 NGZF=   96
   ions per type =               8
   NGX,Y,Z   is equivalent  to a cutoff of  16.58, 16.58, 16.58 a.u.
   NGXF,Y,Z  is equivalent  to a cutoff of  22.11, 22.11, 22.11 a.u.

 SYSTEM =  unknown system                          
 POSCAR =  C8                                      

 Startparameter for this run:
   NWRITE =      2    write-flag & timer
   PREC   = high      normal or accurate (medium, high low for compatibility)
   ISTART =      0    job   : 0-new  1-cont  2-samecut
   ICHARG =      2    charge: 1-file 2-atom 10-const
   ISPIN  =      1    spin polarized calculation?
   LNONCOLLINEAR =      F non collinear calculations
   LSORBIT =      F    spin-orbit coupling
   INIWAV =      1    electr: 0-lowe 1-rand  2-diag
   LASPH  =      F    aspherical Exc in radial PAW
   METAGGA=      F    non-selfconsistent MetaGGA calc.

 Electronic Relaxation 1
   ENCUT  =  875.0 eV  64.31 Ry    8.02 a.u.   8.71  8.71  8.71*2*pi/ulx,y,z
   ENINI  =  875.0     initial cutoff
   ENAUG  =  946.8 eV  augmentation charge cutoff
   NELM   =     40;   NELMIN=  4; NELMDL= -5     # of ELM steps 
   EDIFF  = 0.1E-07   stopping-criterion for ELM
   LREAL  =      F    real-space projection
   NLSPLINE    = F    spline interpolate recip. space projectors
   LCOMPAT=      F    compatible to vasp.4.4
   GGA_COMPAT  = T    GGA compatible to vasp.4.4-vasp.4.6
   LMAXPAW     = -100 max onsite density
   LMAXMIX     =    2 max onsite mixed and CHGCAR
   VOSKOWN=      0    Vosko Wilk Nusair interpolation
   ROPT   =    0.00000
 Ionic relaxation
   EDIFFG = -.1E-01   stopping-criterion for IOM
   NSW    =    100    number of steps for IOM
   NBLOCK =      1;   KBLOCK =    100    inner block; outer block 
   IBRION =      2    ionic relax: 0-MD 1-quasi-New 2-CG
   NFREE  =      1    steps in history (QN), initial steepest desc. (CG)
   ISIF   =      2    stress and relaxation
   IWAVPR =     11    prediction:  0-non 1-charg 2-wave 3-comb
   ISYM   =      2    0-nonsym 1-usesym 2-fastsym
   LCORR  =      T    Harris-Foulkes like correction to forces

   POTIM  = 0.5000    time-step for ionic-motion
   TEIN   =    0.0    initial temperature
   TEBEG  =    0.0;   TEEND  =   0.0 temperature during run
   SMASS  =  -3.00    Nose mass-parameter (am)
   estimated Nose-frequenzy (Omega)   =  0.10E-29 period in steps =****** mass=  -0.298E-27a.u.
   SCALEE = 1.0000    scale energy and forces
   NPACO  =    256;   APACO  = 16.0  distance and # of slots for P.C.
   PSTRESS=    0.0 pullay stress

  Mass of Ions in am
   POMASS =  12.01
  Ionic Valenz
   ZVAL   =   4.00
  Atomic Wigner-Seitz radii
   RWIGS  =  -1.00
  virtual crystal weights 
   VCA    =   1.00
   NELECT =      32.0000    total number of electrons
   NUPDOWN=      -1.0000    fix difference up-down

 DOS related values:
   EMIN   =  10.00;   EMAX   =-10.00  energy-range for DOS
   EFERMI =   0.00
   ISMEAR =     0;   SIGMA  =   0.05  broadening in eV -4-tet -1-fermi 0-gaus

 Electronic relaxation 2 (details)
   IALGO  =     38    algorithm
   LDIAG  =      T    sub-space diagonalisation (order eigenvalues)
   LSUBROT=      F    optimize rotation matrix (better conditioning)
   TURBO    =      0    0=normal 1=particle mesh
   IRESTART =      0    0=no restart 2=restart with 2 vectors
   NREBOOT  =      0    no. of reboots
   NMIN     =      0    reboot dimension
   EREF     =   0.00    reference energy to select bands
   IMIX   =      4    mixing-type and parameters
     AMIX     =   0.40;   BMIX     =  1.00
     AMIX_MAG =   1.60;   BMIX_MAG =  1.00
     AMIN     =   0.10
     WC   =   100.;   INIMIX=   1;  MIXPRE=   1;  MAXMIX= -45

 Intra band minimization:
   WEIMIN = 0.0010     energy-eigenvalue tresh-hold
   EBREAK =  0.10E-09  absolut break condition
   DEPER  =   0.30     relativ break condition  

   TIME   =   0.40     timestep for ELM

  volume/ion in A,a.u.               =       5.88        39.66
  Fermi-wavevector in a.u.,A,eV,Ry     =   1.440004  2.721212 28.213180  2.073610
  Thomas-Fermi vector in A             =   2.558796
 
 Write flags
   LWAVE        =      F    write WAVECAR
   LDOWNSAMPLE  =      F    k-point downsampling of WAVECAR
   LCHARG       =      F    write CHGCAR
   LVTOT        =      F    write LOCPOT, total local potential
   LVHAR        =      F    write LOCPOT, Hartree potential only
   LELF         =      F    write electronic localiz. function (ELF)
   LORBIT       =      0    0 simple, 1 ext, 2 COOP (PROOUT), +10 PAW based schemes


 Dipole corrections
   LMONO  =      F    monopole corrections only (constant potential shift)
   LDIPOL =      F    correct potential (dipole corrections)
   IDIPOL =      0    1-x, 2-y, 3-z, 4-all directions 
   EPSILON=  1.0000000 bulk dielectric constant

 Exchange correlation treatment:
   GGA     =    --    GGA type
   LEXCH   =     8    internal setting for exchange type
   VOSKOWN=      0    Vosko Wilk Nusair interpolation
   LHFCALC =     F    Hartree Fock is set to
   LHFONE  =     F    Hartree Fock one center treatment
   AEXX    =    0.0000 exact exchange contribution

 Linear response parameters
   LEPSILON=     F    determine dielectric tensor
   LRPA    =     F    only Hartree local field effects (RPA)
   LNABLA  =     F    use nabla operator in PAW spheres
   LVEL    =     F    velocity operator in full k-point grid
   LINTERFAST=   F  fast interpolation
   KINTER  =     0    interpolate to denser k-point grid
   CSHIFT  =0.1000    complex shift for real part using Kramers Kronig
   OMEGAMAX=  -1.0    maximum frequency
   DEG_THRESHOLD= 0.2000000E-02 threshold for treating states as degnerate
   RTIME   =   -0.100 relaxation time in fs
  (WPLASMAI=    0.000 imaginary part of plasma frequency in eV, 0.658/RTIME)
   DFIELD  = 0.0000000 0.0000000 0.0000000 field for delta impulse in time
 
 Orbital magnetization related:
   ORBITALMAG=     F  switch on orbital magnetization
   LCHIMAG   =     F  perturbation theory with respect to B field
   DQ        =  0.001000  dq finite difference perturbation B field
   LLRAUG    =     F  two centre corrections for induced B field



--------------------------------------------------------------------------------------------------------


 conjugate gradient relaxation of ions
 charge density and potential will be updated during run
 non-spin polarized calculation
 Variant of blocked Davidson
 Davidson routine will perform the subspace rotation
 perform sub-space diagonalisation
    after iterative eigenvector-optimisation
 modified Broyden-mixing scheme, WC =      100.0
 initial mixing is a Kerker type mixing with AMIX =  0.4000 and BMIX =      1.0000
 Hartree-type preconditioning will be used
 using additional bands            8
 reciprocal scheme for non local part
 use partial core corrections
 calculate Harris-corrections to forces 
   (improved forces if not selfconsistent)
 use gradient corrections 
 use of overlap-Matrix (Vanderbilt PP)
 Gauss-broadening in eV      SIGMA  =   0.05


--------------------------------------------------------------------------------------------------------


  energy-cutoff  :      875.00
  volume of cell :       47.02
      direct lattice vectors                 reciprocal lattice vectors
     3.609341122  0.000000000  0.000000000     0.277058878  0.000000000  0.000000000
     0.000000000  3.609341122  0.000000000     0.000000000  0.277058878  0.000000000
     0.000000000  0.000000000  3.609341122     0.000000000  0.000000000  0.277058878

  length of vectors
     3.609341122  3.609341122  3.609341122     0.277058878  0.277058878  0.277058878


 
 k-points in units of 2pi/SCALE and weight: K-Mesh Generated with KP-Resolved Value 
   0.00989496  0.00989496  0.00989496       0.003
   0.02968488  0.00989496  0.00989496       0.009
   0.04947480  0.00989496  0.00989496       0.009
   0.06926472  0.00989496  0.00989496       0.009
   0.08905464  0.00989496  0.00989496       0.009
   0.10884456  0.00989496  0.00989496       0.009
   0.12863448  0.00989496  0.00989496       0.009
   0.02968488  0.02968488  0.00989496       0.009
   0.04947480  0.02968488  0.00989496       0.017
   0.06926472  0.02968488  0.00989496       0.017
   0.08905464  0.02968488  0.00989496       0.017
   0.10884456  0.02968488  0.00989496       0.017
   0.12863448  0.02968488  0.00989496       0.017
   0.04947480  0.04947480  0.00989496       0.009
   0.06926472  0.04947480  0.00989496       0.017
   0.08905464  0.04947480  0.00989496       0.017
   0.10884456  0.04947480  0.00989496       0.017
   0.12863448  0.04947480  0.00989496       0.017
   0.06926472  0.06926472  0.00989496       0.009
   0.08905464  0.06926472  0.00989496       0.017
   0.10884456  0.06926472  0.00989496       0.017
   0.12863448  0.06926472  0.00989496       0.017
   0.08905464  0.08905464  0.00989496       0.009
   0.10884456  0.08905464  0.00989496       0.017
   0.12863448  0.08905464  0.00989496       0.017
   0.10884456  0.10884456  0.00989496       0.009
   0.12863448  0.10884456  0.00989496       0.017
   0.12863448  0.12863448  0.00989496       0.009
   0.02968488  0.02968488  0.02968488       0.003
   0.04947480  0.02968488  0.02968488       0.009
   0.06926472  0.02968488  0.02968488       0.009
   0.08905464  0.02968488  0.02968488       0.009
   0.10884456  0.02968488  0.02968488       0.009
   0.12863448  0.02968488  0.02968488       0.009
   0.04947480  0.04947480  0.02968488       0.009
   0.06926472  0.04947480  0.02968488       0.017
   0.08905464  0.04947480  0.02968488       0.017
   0.10884456  0.04947480  0.02968488       0.017
   0.12863448  0.04947480  0.02968488       0.017
   0.06926472  0.06926472  0.02968488       0.009
   0.08905464  0.06926472  0.02968488       0.017
   0.10884456  0.06926472  0.02968488       0.017
   0.12863448  0.06926472  0.02968488       0.017
   0.08905464  0.08905464  0.02968488       0.009
   0.10884456  0.08905464  0.02968488       0.017
   0.12863448  0.08905464  0.02968488       0.017
   0.10884456  0.10884456  0.02968488       0.009
   0.12863448  0.10884456  0.02968488       0.017
   0.12863448  0.12863448  0.02968488       0.009
   0.04947480  0.04947480  0.04947480       0.003
   0.06926472  0.04947480  0.04947480       0.009
   0.08905464  0.04947480  0.04947480       0.009
   0.10884456  0.04947480  0.04947480       0.009
   0.12863448  0.04947480  0.04947480       0.009
   0.06926472  0.06926472  0.04947480       0.009
   0.08905464  0.06926472  0.04947480       0.017
   0.10884456  0.06926472  0.04947480       0.017
   0.12863448  0.06926472  0.04947480       0.017
   0.08905464  0.08905464  0.04947480       0.009
   0.10884456  0.08905464  0.04947480       0.017
   0.12863448  0.08905464  0.04947480       0.017
   0.10884456  0.10884456  0.04947480       0.009
   0.12863448  0.10884456  0.04947480       0.017
   0.12863448  0.12863448  0.04947480       0.009
   0.06926472  0.06926472  0.06926472       0.003
   0.08905464  0.06926472  0.06926472       0.009
   0.10884456  0.06926472  0.06926472       0.009
   0.12863448  0.06926472  0.06926472       0.009
   0.08905464  0.08905464  0.06926472       0.009
   0.10884456  0.08905464  0.06926472       0.017
   0.12863448  0.08905464  0.06926472       0.017
   0.10884456  0.10884456  0.06926472       0.009
   0.12863448  0.10884456  0.06926472       0.017
   0.12863448  0.12863448  0.06926472       0.009
   0.08905464  0.08905464  0.08905464       0.003
   0.10884456  0.08905464  0.08905464       0.009
   0.12863448  0.08905464  0.08905464       0.009
   0.10884456  0.10884456  0.08905464       0.009
   0.12863448  0.10884456  0.08905464       0.017
   0.12863448  0.12863448  0.08905464       0.009
   0.10884456  0.10884456  0.10884456       0.003
   0.12863448  0.10884456  0.10884456       0.009
   0.12863448  0.12863448  0.10884456       0.009
   0.12863448  0.12863448  0.12863448       0.003
 
 k-points in reciprocal lattice and weights: K-Mesh Generated with KP-Resolved Value 
   0.03571429  0.03571429  0.03571429       0.003
   0.10714286  0.03571429  0.03571429       0.009
   0.17857143  0.03571429  0.03571429       0.009
   0.25000000  0.03571429  0.03571429       0.009
   0.32142857  0.03571429  0.03571429       0.009
   0.39285714  0.03571429  0.03571429       0.009
   0.46428571  0.03571429  0.03571429       0.009
   0.10714286  0.10714286  0.03571429       0.009
   0.17857143  0.10714286  0.03571429       0.017
   0.25000000  0.10714286  0.03571429       0.017
   0.32142857  0.10714286  0.03571429       0.017
   0.39285714  0.10714286  0.03571429       0.017
   0.46428571  0.10714286  0.03571429       0.017
   0.17857143  0.17857143  0.03571429       0.009
   0.25000000  0.17857143  0.03571429       0.017
   0.32142857  0.17857143  0.03571429       0.017
   0.39285714  0.17857143  0.03571429       0.017
   0.46428571  0.17857143  0.03571429       0.017
   0.25000000  0.25000000  0.03571429       0.009
   0.32142857  0.25000000  0.03571429       0.017
   0.39285714  0.25000000  0.03571429       0.017
   0.46428571  0.25000000  0.03571429       0.017
   0.32142857  0.32142857  0.03571429       0.009
   0.39285714  0.32142857  0.03571429       0.017
   0.46428571  0.32142857  0.03571429       0.017
   0.39285714  0.39285714  0.03571429       0.009
   0.46428571  0.39285714  0.03571429       0.017
   0.46428571  0.46428571  0.03571429       0.009
   0.10714286  0.10714286  0.10714286       0.003
   0.17857143  0.10714286  0.10714286       0.009
   0.25000000  0.10714286  0.10714286       0.009
   0.32142857  0.10714286  0.10714286       0.009
   0.39285714  0.10714286  0.10714286       0.009
   0.46428571  0.10714286  0.10714286       0.009
   0.17857143  0.17857143  0.10714286       0.009
   0.25000000  0.17857143  0.10714286       0.017
   0.32142857  0.17857143  0.10714286       0.017
   0.39285714  0.17857143  0.10714286       0.017
   0.46428571  0.17857143  0.10714286       0.017
   0.25000000  0.25000000  0.10714286       0.009
   0.32142857  0.25000000  0.10714286       0.017
   0.39285714  0.25000000  0.10714286       0.017
   0.46428571  0.25000000  0.10714286       0.017
   0.32142857  0.32142857  0.10714286       0.009
   0.39285714  0.32142857  0.10714286       0.017
   0.46428571  0.32142857  0.10714286       0.017
   0.39285714  0.39285714  0.10714286       0.009
   0.46428571  0.39285714  0.10714286       0.017
   0.46428571  0.46428571  0.10714286       0.009
   0.17857143  0.17857143  0.17857143       0.003
   0.25000000  0.17857143  0.17857143       0.009
   0.32142857  0.17857143  0.17857143       0.009
   0.39285714  0.17857143  0.17857143       0.009
   0.46428571  0.17857143  0.17857143       0.009
   0.25000000  0.25000000  0.17857143       0.009
   0.32142857  0.25000000  0.17857143       0.017
   0.39285714  0.25000000  0.17857143       0.017
   0.46428571  0.25000000  0.17857143       0.017
   0.32142857  0.32142857  0.17857143       0.009
   0.39285714  0.32142857  0.17857143       0.017
   0.46428571  0.32142857  0.17857143       0.017
   0.39285714  0.39285714  0.17857143       0.009
   0.46428571  0.39285714  0.17857143       0.017
   0.46428571  0.46428571  0.17857143       0.009
   0.25000000  0.25000000  0.25000000       0.003
   0.32142857  0.25000000  0.25000000       0.009
   0.39285714  0.25000000  0.25000000       0.009
   0.46428571  0.25000000  0.25000000       0.009
   0.32142857  0.32142857  0.25000000       0.009
   0.39285714  0.32142857  0.25000000       0.017
   0.46428571  0.32142857  0.25000000       0.017
   0.39285714  0.39285714  0.25000000       0.009
   0.46428571  0.39285714  0.25000000       0.017
   0.46428571  0.46428571  0.25000000       0.009
   0.32142857  0.32142857  0.32142857       0.003
   0.39285714  0.32142857  0.32142857       0.009
   0.46428571  0.32142857  0.32142857       0.009
   0.39285714  0.39285714  0.32142857       0.009
   0.46428571  0.39285714  0.32142857       0.017
   0.46428571  0.46428571  0.32142857       0.009
   0.39285714  0.39285714  0.39285714       0.003
   0.46428571  0.39285714  0.39285714       0.009
   0.46428571  0.46428571  0.39285714       0.009
   0.46428571  0.46428571  0.46428571       0.003
 
 position of ions in fractional coordinates (direct lattice) 
   0.25000000  0.25000000  0.25000000
   0.00000000  0.00000000  0.00000000
   0.25000000  0.75000000  0.75000000
   0.00000000  0.50000000  0.50000000
   0.75000000  0.25000000  0.75000000
   0.50000000  0.00000000  0.50000000
   0.75000000  0.75000000  0.25000000
   0.50000000  0.50000000  0.00000000
 
 position of ions in cartesian coordinates  (Angst):
   0.90233528  0.90233528  0.90233528
   0.00000000  0.00000000  0.00000000
   0.90233528  2.70700584  2.70700584
   0.00000000  1.80467056  1.80467056
   2.70700584  0.90233528  2.70700584
   1.80467056  0.00000000  1.80467056
   2.70700584  2.70700584  0.90233528
   1.80467056  1.80467056  0.00000000
 


--------------------------------------------------------------------------------------------------------


 k-point  1 :   0.0357 0.0357 0.0357  plane waves:    2770
 k-point  2 :   0.1071 0.0357 0.0357  plane waves:    2782
 k-point  3 :   0.1786 0.0357 0.0357  plane waves:    2780
 k-point  4 :   0.2500 0.0357 0.0357  plane waves:    2773
 k-point  5 :   0.3214 0.0357 0.0357  plane waves:    2772
 k-point  6 :   0.3929 0.0357 0.0357  plane waves:    2778
 k-point  7 :   0.4643 0.0357 0.0357  plane waves:    2770
 k-point  8 :   0.1071 0.1071 0.0357  plane waves:    2777
 k-point  9 :   0.1786 0.1071 0.0357  plane waves:    2766
 k-point 10 :   0.2500 0.1071 0.0357  plane waves:    2758
 k-point 11 :   0.3214 0.1071 0.0357  plane waves:    2769
 k-point 12 :   0.3929 0.1071 0.0357  plane waves:    2775
 k-point 13 :   0.4643 0.1071 0.0357  plane waves:    2767
 k-point 14 :   0.1786 0.1786 0.0357  plane waves:    2760
 k-point 15 :   0.2500 0.1786 0.0357  plane waves:    2757
 k-point 16 :   0.3214 0.1786 0.0357  plane waves:    2768
 k-point 17 :   0.3929 0.1786 0.0357  plane waves:    2766
 k-point 18 :   0.4643 0.1786 0.0357  plane waves:    2764
 k-point 19 :   0.2500 0.2500 0.0357  plane waves:    2752
 k-point 20 :   0.3214 0.2500 0.0357  plane waves:    2758
 k-point 21 :   0.3929 0.2500 0.0357  plane waves:    2763
 k-point 22 :   0.4643 0.2500 0.0357  plane waves:    2765
 k-point 23 :   0.3214 0.3214 0.0357  plane waves:    2757
 k-point 24 :   0.3929 0.3214 0.0357  plane waves:    2756
 k-point 25 :   0.4643 0.3214 0.0357  plane waves:    2765
 k-point 26 :   0.3929 0.3929 0.0357  plane waves:    2747
 k-point 27 :   0.4643 0.3929 0.0357  plane waves:    2754
 k-point 28 :   0.4643 0.4643 0.0357  plane waves:    2743
 k-point 29 :   0.1071 0.1071 0.1071  plane waves:    2782
 k-point 30 :   0.1786 0.1071 0.1071  plane waves:    2769
 k-point 31 :   0.2500 0.1071 0.1071  plane waves:    2758
 k-point 32 :   0.3214 0.1071 0.1071  plane waves:    2759
 k-point 33 :   0.3929 0.1071 0.1071  plane waves:    2766
 k-point 34 :   0.4643 0.1071 0.1071  plane waves:    2769
 k-point 35 :   0.1786 0.1786 0.1071  plane waves:    2760
 k-point 36 :   0.2500 0.1786 0.1071  plane waves:    2761
 k-point 37 :   0.3214 0.1786 0.1071  plane waves:    2759
 k-point 38 :   0.3929 0.1786 0.1071  plane waves:    2766
 k-point 39 :   0.4643 0.1786 0.1071  plane waves:    2765
 k-point 40 :   0.2500 0.2500 0.1071  plane waves:    2762
 k-point 41 :   0.3214 0.2500 0.1071  plane waves:    2760
 k-point 42 :   0.3929 0.2500 0.1071  plane waves:    2765
 k-point 43 :   0.4643 0.2500 0.1071  plane waves:    2763
 k-point 44 :   0.3214 0.3214 0.1071  plane waves:    2748
 k-point 45 :   0.3929 0.3214 0.1071  plane waves:    2759
 k-point 46 :   0.4643 0.3214 0.1071  plane waves:    2767
 k-point 47 :   0.3929 0.3929 0.1071  plane waves:    2763
 k-point 48 :   0.4643 0.3929 0.1071  plane waves:    2757
 k-point 49 :   0.4643 0.4643 0.1071  plane waves:    2750
 k-point 50 :   0.1786 0.1786 0.1786  plane waves:    2761
 k-point 51 :   0.2500 0.1786 0.1786  plane waves:    2761
 k-point 52 :   0.3214 0.1786 0.1786  plane waves:    2761
 k-point 53 :   0.3929 0.1786 0.1786  plane waves:    2767
 k-point 54 :   0.4643 0.1786 0.1786  plane waves:    2764
 k-point 55 :   0.2500 0.2500 0.1786  plane waves:    2761
 k-point 56 :   0.3214 0.2500 0.1786  plane waves:    2765
 k-point 57 :   0.3929 0.2500 0.1786  plane waves:    2768
 k-point 58 :   0.4643 0.2500 0.1786  plane waves:    2765
 k-point 59 :   0.3214 0.3214 0.1786  plane waves:    2761
 k-point 60 :   0.3929 0.3214 0.1786  plane waves:    2758
 k-point 61 :   0.4643 0.3214 0.1786  plane waves:    2772
 k-point 62 :   0.3929 0.3929 0.1786  plane waves:    2768
 k-point 63 :   0.4643 0.3929 0.1786  plane waves:    2766
 k-point 64 :   0.4643 0.4643 0.1786  plane waves:    2758
 k-point 65 :   0.2500 0.2500 0.2500  plane waves:    2782
 k-point 66 :   0.3214 0.2500 0.2500  plane waves:    2758
 k-point 67 :   0.3929 0.2500 0.2500  plane waves:    2768
 k-point 68 :   0.4643 0.2500 0.2500  plane waves:    2767
 k-point 69 :   0.3214 0.3214 0.2500  plane waves:    2758
 k-point 70 :   0.3929 0.3214 0.2500  plane waves:    2762
 k-point 71 :   0.4643 0.3214 0.2500  plane waves:    2765
 k-point 72 :   0.3929 0.3929 0.2500  plane waves:    2760
 k-point 73 :   0.4643 0.3929 0.2500  plane waves:    2757
 k-point 74 :   0.4643 0.4643 0.2500  plane waves:    2766
 k-point 75 :   0.3214 0.3214 0.3214  plane waves:    2773
 k-point 76 :   0.3929 0.3214 0.3214  plane waves:    2753
 k-point 77 :   0.4643 0.3214 0.3214  plane waves:    2773
 k-point 78 :   0.3929 0.3929 0.3214  plane waves:    2758
 k-point 79 :   0.4643 0.3929 0.3214  plane waves:    2761
 k-point 80 :   0.4643 0.4643 0.3214  plane waves:    2763
 k-point 81 :   0.3929 0.3929 0.3929  plane waves:    2755
 k-point 82 :   0.4643 0.3929 0.3929  plane waves:    2765
 k-point 83 :   0.4643 0.4643 0.3929  plane waves:    2772
 k-point 84 :   0.4643 0.4643 0.4643  plane waves:    2794

 maximum and minimum number of plane-waves per node :      2794     2743

 maximum number of plane-waves:      2794
 maximum index in each direction: 
   IXMAX=    8   IYMAX=    8   IZMAX=    8
   IXMIN=   -9   IYMIN=   -9   IZMIN=   -9


 serial   3D FFT for wavefunctions
 parallel 3D FFT for charge:
    minimum data exchange during FFTs selected (reduces bandwidth)


 total amount of memory used by VASP MPI-rank0    52368. kBytes
=======================================================================

   base      :      30000. kBytes
   nonl-proj :      15455. kBytes
   fftplans  :        905. kBytes
   grid      :       2114. kBytes
   one-center:         24. kBytes
   wavefun   :       3870. kBytes
 
     INWAV:  cpu time    0.0000: real time    0.0000
 Broyden mixing: mesh for mixing (old mesh)
   NGX = 17   NGY = 17   NGZ = 17
  (NGX  = 48   NGY  = 48   NGZ  = 48)
  gives a total of   4913 points

 initial charge density was supplied:
 charge density of overlapping atoms calculated
 number of electron      32.0000000 magnetization 
 keeping initial charge density in first step


--------------------------------------------------------------------------------------------------------


 Maximum index for augmentation-charges          749 (set IRDMAX)


--------------------------------------------------------------------------------------------------------


 First call to EWALD:  gamma=   0.491
 Maximum number of real-space cells 3x 3x 3
 Maximum number of reciprocal cells 3x 3x 3

    FEWALD:  cpu time    0.0020: real time    0.0049


--------------------------------------- Iteration      1(   1)  ---------------------------------------


    POTLOK:  cpu time    0.0170: real time    0.0434
    SETDIJ:  cpu time    0.0200: real time    0.0320
     EDDAV:  cpu time    1.3618: real time    1.4860
       DOS:  cpu time    0.0030: real time    0.0162
    --------------------------------------------
      LOOP:  cpu time    1.4018: real time    1.5777

 eigenvalue-minimisations  :  4032
 total energy-change (2. order) : 0.1003941E+03  (-0.2567386E+04)
 number of electron      32.0000000 magnetization 
 augmentation part       32.0000000 magnetization 

 Free energy of the ion-electron system (eV)
  ---------------------------------------------------
  alpha Z        PSCENC =        74.61757155
  Ewald energy   TEWEN  =     -1375.43107519
  -Hartree energ DENC   =       -73.12794012
  -exchange      EXHF   =         0.00000000
  -V(xc)+E(xc)   XCENC  =        61.30186229
  PAW double counting   =       914.77613359     -872.73161751
  entropy T*S    EENTRO =        -0.00149209
  eigenvalues    EBANDS =       193.77787607
  atomic energy  EATOM  =      1177.21277265
  Solvation  Ediel_sol  =         0.00000000
  ---------------------------------------------------
  free energy    TOTEN  =       100.39409125 eV

  energy without entropy =      100.39558334  energy(sigma->0) =      100.39483729


--------------------------------------------------------------------------------------------------------




--------------------------------------- Iteration      1(   2)  ---------------------------------------


     EDDAV:  cpu time    2.3216: real time    2.3516
       DOS:  cpu time    0.0000: real time    0.0006
    --------------------------------------------
      LOOP:  cpu time    2.3216: real time    2.3522

 eigenvalue-minimisations  :  6528
 total energy-change (2. order) :-0.1725488E+03  (-0.1705372E+03)
 number of electron      32.0000000 magnetization 
 augmentation part       32.0000000 magnetization 

 Free energy of the ion-electron system (eV)
  ---------------------------------------------------
  alpha Z        PSCENC =        74.61757155
  Ewald energy   TEWEN  =     -1375.43107519
  -Hartree energ DENC   =       -73.12794012
  -exchange      EXHF   =         0.00000000
  -V(xc)+E(xc)   XCENC  =        61.30186229
  PAW double counting   =       914.77613359     -872.73161751
  entropy T*S    EENTRO =        -0.00000000
  eigenvalues    EBANDS =        21.22757572
  atomic energy  EATOM  =      1177.21277265
  Solvation  Ediel_sol  =         0.00000000
  ---------------------------------------------------
  free energy    TOTEN  =       -72.15471701 eV

  energy without entropy =      -72.15471701  energy(sigma->0) =      -72.15471701


--------------------------------------------------------------------------------------------------------




--------------------------------------- Iteration      1(   3)  ---------------------------------------


     EDDAV:  cpu time    1.6637: real time    1.6883
       DOS:  cpu time    0.0000: real time    0.0006
    --------------------------------------------
      LOOP:  cpu time    1.6637: real time    1.6890

 eigenvalue-minimisations  :  4776
 total energy-change (2. order) :-0.2832855E+01  (-0.2832855E+01)
 number of electron      32.0000000 magnetization 
 augmentation part       32.0000000 magnetization 

 Free energy of the ion-electron system (eV)
  ---------------------------------------------------
  alpha Z        PSCENC =        74.61757155
  Ewald energy   TEWEN  =     -1375.43107519
  -Hartree energ DENC   =       -73.12794012
  -exchange      EXHF   =         0.00000000
  -V(xc)+E(xc)   XCENC  =        61.30186229
  PAW double counting   =       914.77613359     -872.73161751
  entropy T*S    EENTRO =        -0.00000000
  eigenvalues    EBANDS =        18.39472091
  atomic energy  EATOM  =      1177.21277265
  Solvation  Ediel_sol  =         0.00000000
  ---------------------------------------------------
  free energy    TOTEN  =       -74.98757182 eV

  energy without entropy =      -74.98757182  energy(sigma->0) =      -74.98757182


--------------------------------------------------------------------------------------------------------




--------------------------------------- Iteration      1(   4)  ---------------------------------------


     EDDAV:  cpu time    2.7986: real time    2.8181
       DOS:  cpu time    0.0010: real time    0.0007
    --------------------------------------------
      LOOP:  cpu time    2.7996: real time    2.8188

 eigenvalue-minimisations  :  7392
 total energy-change (2. order) :-0.1811795E-01  (-0.1811795E-01)
 number of electron      32.0000000 magnetization 
 augmentation part       32.0000000 magnetization 

 Free energy of the ion-electron system (eV)
  ---------------------------------------------------
  alpha Z        PSCENC =        74.61757155
  Ewald energy   TEWEN  =     -1375.43107519
  -Hartree energ DENC   =       -73.12794012
  -exchange      EXHF   =         0.00000000
  -V(xc)+E(xc)   XCENC  =        61.30186229
  PAW double counting   =       914.77613359     -872.73161751
  entropy T*S    EENTRO =        -0.00000000
  eigenvalues    EBANDS =        18.37660296
  atomic energy  EATOM  =      1177.21277265
  Solvation  Ediel_sol  =         0.00000000
  ---------------------------------------------------
  free energy    TOTEN  =       -75.00568977 eV

  energy without entropy =      -75.00568977  energy(sigma->0) =      -75.00568977


--------------------------------------------------------------------------------------------------------




--------------------------------------- Iteration      1(   5)  ---------------------------------------


     EDDAV:  cpu time    1.6378: real time    1.6498
       DOS:  cpu time    0.0010: real time    0.0006
    CHARGE:  cpu time    0.0790: real time    0.1142
    MIXING:  cpu time    0.0020: real time    0.0162
    --------------------------------------------
      LOOP:  cpu time    1.7197: real time    1.7809

 eigenvalue-minimisations  :  4704
 total energy-change (2. order) :-0.2824352E-05  (-0.2824341E-05)
 number of electron      32.0000000 magnetization 
 augmentation part       -0.0739890 magnetization 

 Broyden mixing:
  rms(total) = 0.15866E+01    rms(broyden)= 0.15865E+01
  rms(prec ) = 0.25078E+01
  weight for this iteration     100.00

 Free energy of the ion-electron system (eV)
  ---------------------------------------------------
  alpha Z        PSCENC =        74.61757155
  Ewald energy   TEWEN  =     -1375.43107519
  -Hartree energ DENC   =       -73.12794012
  -exchange      EXHF   =         0.00000000
  -V(xc)+E(xc)   XCENC  =        61.30186229
  PAW double counting   =       914.77613359     -872.73161751
  entropy T*S    EENTRO =        -0.00000000
  eigenvalues    EBANDS =        18.37660014
  atomic energy  EATOM  =      1177.21277265
  Solvation  Ediel_sol  =         0.00000000
  ---------------------------------------------------
  free energy    TOTEN  =       -75.00569260 eV

  energy without entropy =      -75.00569260  energy(sigma->0) =      -75.00569260


--------------------------------------------------------------------------------------------------------




--------------------------------------- Iteration      1(   6)  ---------------------------------------


    POTLOK:  cpu time    0.0140: real time    0.0153
    SETDIJ:  cpu time    0.0040: real time    0.0036
     EDDAV:  cpu time    1.6418: real time    1.6451
       DOS:  cpu time    0.0010: real time    0.0006
    CHARGE:  cpu time    0.0740: real time    0.0739
    MIXING:  cpu time    0.0030: real time    0.0242
    --------------------------------------------
      LOOP:  cpu time    1.7377: real time    1.7628

 eigenvalue-minimisations  :  4824
 total energy-change (2. order) : 0.1662218E+01  (-0.1259202E+00)
 number of electron      32.0000000 magnetization 
 augmentation part       -0.0763862 magnetization 

 Broyden mixing:
  rms(total) = 0.10369E+01    rms(broyden)= 0.10369E+01
  rms(prec ) = 0.14779E+01
  weight for this iteration     100.00

 eigenvalues of (default mixing * dielectric matrix)
  average eigenvalue GAMMA=   2.7316
  2.7316

 Free energy of the ion-electron system (eV)
  ---------------------------------------------------
  alpha Z        PSCENC =        74.61757155
  Ewald energy   TEWEN  =     -1375.43107519
  -Hartree energ DENC   =       -87.87353479
  -exchange      EXHF   =         0.00000000
  -V(xc)+E(xc)   XCENC  =        62.51907566
  PAW double counting   =      3538.25165221    -3496.53094605
  entropy T*S    EENTRO =        -0.00000000
  eigenvalues    EBANDS =        33.89100977
  atomic energy  EATOM  =      1177.21277265
  Solvation  Ediel_sol  =         0.00000000
  ---------------------------------------------------
  free energy    TOTEN  =       -73.34347419 eV

  energy without entropy =      -73.34347419  energy(sigma->0) =      -73.34347419


--------------------------------------------------------------------------------------------------------




--------------------------------------- Iteration      1(   7)  ---------------------------------------


    POTLOK:  cpu time    0.0060: real time    0.0159
    SETDIJ:  cpu time    0.0030: real time    0.0035
     EDDAV:  cpu time    2.0967: real time    2.1012
       DOS:  cpu time    0.0010: real time    0.0007
    CHARGE:  cpu time    0.0740: real time    0.0738
    MIXING:  cpu time    0.0010: real time    0.0137
    --------------------------------------------
      LOOP:  cpu time    2.1817: real time    2.2088

 eigenvalue-minimisations  :  5904
 total energy-change (2. order) : 0.5562556E+00  (-0.1642272E+00)
 number of electron      32.0000000 magnetization 
 augmentation part       -0.0795857 magnetization 

 Broyden mixing:
  rms(total) = 0.21045E+00    rms(broyden)= 0.21045E+00
  rms(prec ) = 0.23581E+00
  weight for this iteration     100.00

 eigenvalues of (default mixing * dielectric matrix)
  average eigenvalue GAMMA=   2.1719
  1.9274  2.4165

 Free energy of the ion-electron system (eV)
  ---------------------------------------------------
  alpha Z        PSCENC =        74.61757155
  Ewald energy   TEWEN  =     -1375.43107519
  -Hartree energ DENC   =      -108.30206160
  -exchange      EXHF   =         0.00000000
  -V(xc)+E(xc)   XCENC  =        64.28913132
  PAW double counting   =     11529.13836626   -11487.67009285
  entropy T*S    EENTRO =        -0.00000000
  eigenvalues    EBANDS =        53.35816924
  atomic energy  EATOM  =      1177.21277265
  Solvation  Ediel_sol  =         0.00000000
  ---------------------------------------------------
  free energy    TOTEN  =       -72.78721862 eV

  energy without entropy =      -72.78721862  energy(sigma->0) =      -72.78721862


--------------------------------------------------------------------------------------------------------




--------------------------------------- Iteration      1(   8)  ---------------------------------------


    POTLOK:  cpu time    0.0180: real time    0.0185
    SETDIJ:  cpu time    0.0040: real time    0.0035
     EDDAV:  cpu time    2.4226: real time    2.4284
       DOS:  cpu time    0.0010: real time    0.0007
    CHARGE:  cpu time    0.0730: real time    0.0739
    MIXING:  cpu time    0.0020: real time    0.0059
    --------------------------------------------
      LOOP:  cpu time    2.5206: real time    2.5308

 eigenvalue-minimisations  :  6576
 total energy-change (2. order) : 0.1303129E-02  (-0.2285465E-02)
 number of electron      32.0000000 magnetization 
 augmentation part       -0.0794284 magnetization 

 Broyden mixing:
  rms(total) = 0.11818E-01    rms(broyden)= 0.11818E-01
  rms(prec ) = 0.19230E-01
  weight for this iteration     100.00

 eigenvalues of (default mixing * dielectric matrix)
  average eigenvalue GAMMA=   2.0334
  1.5453  2.2774  2.2774

 Free energy of the ion-electron system (eV)
  ---------------------------------------------------
  alpha Z        PSCENC =        74.61757155
  Ewald energy   TEWEN  =     -1375.43107519
  -Hartree energ DENC   =      -107.36298025
  -exchange      EXHF   =         0.00000000
  -V(xc)+E(xc)   XCENC  =        64.24354900
  PAW double counting   =     13515.41535675   -13473.83493577
  entropy T*S    EENTRO =        -0.00000000
  eigenvalues    EBANDS =        52.35382576
  atomic energy  EATOM  =      1177.21277265
  Solvation  Ediel_sol  =         0.00000000
  ---------------------------------------------------
  free energy    TOTEN  =       -72.78591549 eV

  energy without entropy =      -72.78591549  energy(sigma->0) =      -72.78591549


--------------------------------------------------------------------------------------------------------




--------------------------------------- Iteration      1(   9)  ---------------------------------------


    POTLOK:  cpu time    0.0060: real time    0.0196
    SETDIJ:  cpu time    0.0030: real time    0.0035
     EDDAV:  cpu time    2.1137: real time    2.1177
       DOS:  cpu time    0.0010: real time    0.0007
    CHARGE:  cpu time    0.0740: real time    0.0739
    MIXING:  cpu time    0.0000: real time    0.0005
    --------------------------------------------
      LOOP:  cpu time    2.1977: real time    2.2159

 eigenvalue-minimisations  :  5808
 total energy-change (2. order) :-0.2021536E-03  (-0.4592002E-04)
 number of electron      32.0000000 magnetization 
 augmentation part       -0.0793217 magnetization 

 Broyden mixing:
  rms(total) = 0.61611E-02    rms(broyden)= 0.61610E-02
  rms(prec ) = 0.94488E-02
  weight for this iteration     100.00

 eigenvalues of (default mixing * dielectric matrix)
  average eigenvalue GAMMA=   1.9839
  0.9830  2.0267  2.4629  2.4629

 Free energy of the ion-electron system (eV)
  ---------------------------------------------------
  alpha Z        PSCENC =        74.61757155
  Ewald energy   TEWEN  =     -1375.43107519
  -Hartree energ DENC   =      -107.17637738
  -exchange      EXHF   =         0.00000000
  -V(xc)+E(xc)   XCENC  =        64.22839730
  PAW double counting   =     13454.77181283   -13413.18134530
  entropy T*S    EENTRO =        -0.00000000
  eigenvalues    EBANDS =        52.17212589
  atomic energy  EATOM  =      1177.21277265
  Solvation  Ediel_sol  =         0.00000000
  ---------------------------------------------------
  free energy    TOTEN  =       -72.78611764 eV

  energy without entropy =      -72.78611764  energy(sigma->0) =      -72.78611764


--------------------------------------------------------------------------------------------------------




--------------------------------------- Iteration      1(  10)  ---------------------------------------


    POTLOK:  cpu time    0.0060: real time    0.0177
    SETDIJ:  cpu time    0.0030: real time    0.0035
     EDDAV:  cpu time    2.3156: real time    2.3211
       DOS:  cpu time    0.0010: real time    0.0007
    CHARGE:  cpu time    0.0740: real time    0.0739
    MIXING:  cpu time    0.0010: real time    0.0005
    --------------------------------------------
      LOOP:  cpu time    2.4006: real time    2.4173

 eigenvalue-minimisations  :  6264
 total energy-change (2. order) :-0.1244293E-03  (-0.1217170E-04)
 number of electron      32.0000000 magnetization 
 augmentation part       -0.0792901 magnetization 

 Broyden mixing:
  rms(total) = 0.46674E-03    rms(broyden)= 0.46665E-03
  rms(prec ) = 0.75345E-03
  weight for this iteration     100.00

 eigenvalues of (default mixing * dielectric matrix)
  average eigenvalue GAMMA=   1.9295
  2.8243  1.0305  2.4251  1.9998  1.3677

 Free energy of the ion-electron system (eV)
  ---------------------------------------------------
  alpha Z        PSCENC =        74.61757155
  Ewald energy   TEWEN  =     -1375.43107519
  -Hartree energ DENC   =      -107.27089895
  -exchange      EXHF   =         0.00000000
  -V(xc)+E(xc)   XCENC  =        64.23591846
  PAW double counting   =     13388.82528232   -13347.23251561
  entropy T*S    EENTRO =        -0.00000000
  eigenvalues    EBANDS =        52.25670268
  atomic energy  EATOM  =      1177.21277265
  Solvation  Ediel_sol  =         0.00000000
  ---------------------------------------------------
  free energy    TOTEN  =       -72.78624207 eV

  energy without entropy =      -72.78624207  energy(sigma->0) =      -72.78624207


--------------------------------------------------------------------------------------------------------




--------------------------------------- Iteration      1(  11)  ---------------------------------------


    POTLOK:  cpu time    0.0060: real time    0.0153
    SETDIJ:  cpu time    0.0030: real time    0.0035
     EDDAV:  cpu time    2.1937: real time    2.1978
       DOS:  cpu time    0.0010: real time    0.0007
    CHARGE:  cpu time    0.0740: real time    0.0739
    MIXING:  cpu time    0.0000: real time    0.0006
    --------------------------------------------
      LOOP:  cpu time    2.2777: real time    2.2918

 eigenvalue-minimisations  :  6000
 total energy-change (2. order) :-0.1075672E-05  (-0.1481774E-06)
 number of electron      32.0000000 magnetization 
 augmentation part       -0.0792884 magnetization 

 Broyden mixing:
  rms(total) = 0.26887E-03    rms(broyden)= 0.26886E-03
  rms(prec ) = 0.31563E-03
  weight for this iteration     100.00

 eigenvalues of (default mixing * dielectric matrix)
  average eigenvalue GAMMA=   2.0049
  2.9034  2.6245  2.4214  2.0585  1.0108  1.0108

 Free energy of the ion-electron system (eV)
  ---------------------------------------------------
  alpha Z        PSCENC =        74.61757155
  Ewald energy   TEWEN  =     -1375.43107519
  -Hartree energ DENC   =      -107.27793586
  -exchange      EXHF   =         0.00000000
  -V(xc)+E(xc)   XCENC  =        64.23653286
  PAW double counting   =     13388.27825242   -13346.68530633
  entropy T*S    EENTRO =        -0.00000000
  eigenvalues    EBANDS =        52.26294474
  atomic energy  EATOM  =      1177.21277265
  Solvation  Ediel_sol  =         0.00000000
  ---------------------------------------------------
  free energy    TOTEN  =       -72.78624315 eV

  energy without entropy =      -72.78624315  energy(sigma->0) =      -72.78624315


--------------------------------------------------------------------------------------------------------




--------------------------------------- Iteration      1(  12)  ---------------------------------------


    POTLOK:  cpu time    0.0060: real time    0.0183
    SETDIJ:  cpu time    0.0030: real time    0.0035
     EDDAV:  cpu time    2.3666: real time    2.3713
       DOS:  cpu time    0.0010: real time    0.0007
    CHARGE:  cpu time    0.0740: real time    0.0740
    MIXING:  cpu time    0.0010: real time    0.0006
    --------------------------------------------
      LOOP:  cpu time    2.4516: real time    2.4683

 eigenvalue-minimisations  :  6360
 total energy-change (2. order) :-0.3688965E-06  (-0.7655358E-08)
 number of electron      32.0000000 magnetization 
 augmentation part       -0.0792890 magnetization 

 Broyden mixing:
  rms(total) = 0.15200E-04    rms(broyden)= 0.15200E-04
  rms(prec ) = 0.16135E-04
  weight for this iteration     100.00

 eigenvalues of (default mixing * dielectric matrix)
  average eigenvalue GAMMA=   1.9408
  2.8861  2.6692  2.4195  2.0453  1.0103  0.9753  1.5796

 Free energy of the ion-electron system (eV)
  ---------------------------------------------------
  alpha Z        PSCENC =        74.61757155
  Ewald energy   TEWEN  =     -1375.43107519
  -Hartree energ DENC   =      -107.27939355
  -exchange      EXHF   =         0.00000000
  -V(xc)+E(xc)   XCENC  =        64.23667924
  PAW double counting   =     13390.43416128   -13348.84132625
  entropy T*S    EENTRO =        -0.00000000
  eigenvalues    EBANDS =        52.26436674
  atomic energy  EATOM  =      1177.21277265
  Solvation  Ediel_sol  =         0.00000000
  ---------------------------------------------------
  free energy    TOTEN  =       -72.78624352 eV

  energy without entropy =      -72.78624352  energy(sigma->0) =      -72.78624352


--------------------------------------------------------------------------------------------------------




--------------------------------------- Iteration      1(  13)  ---------------------------------------


    POTLOK:  cpu time    0.0060: real time    0.0136
    SETDIJ:  cpu time    0.0040: real time    0.0035
     EDDAV:  cpu time    2.2577: real time    2.2621
       DOS:  cpu time    0.0010: real time    0.0007
    CHARGE:  cpu time    0.0730: real time    0.0739
    MIXING:  cpu time    0.0010: real time    0.0006
    --------------------------------------------
      LOOP:  cpu time    2.3426: real time    2.3544

 eigenvalue-minimisations  :  6144
 total energy-change (2. order) :-0.1071567E-07  (-0.1671485E-10)
 number of electron      32.0000000 magnetization 
 augmentation part       -0.0792891 magnetization 

 Broyden mixing:
  rms(total) = 0.75443E-05    rms(broyden)= 0.75443E-05
  rms(prec ) = 0.81149E-05
  weight for this iteration     100.00

 eigenvalues of (default mixing * dielectric matrix)
  average eigenvalue GAMMA=   1.9606
  2.0597  2.9262  2.6902  2.6009  2.4235  1.0137  1.0053  0.9650

 Free energy of the ion-electron system (eV)
  ---------------------------------------------------
  alpha Z        PSCENC =        74.61757155
  Ewald energy   TEWEN  =     -1375.43107519
  -Hartree energ DENC   =      -107.27945190
  -exchange      EXHF   =         0.00000000
  -V(xc)+E(xc)   XCENC  =        64.23668447
  PAW double counting   =     13390.32419969   -13348.73136994
  entropy T*S    EENTRO =        -0.00000000
  eigenvalues    EBANDS =        52.26442513
  atomic energy  EATOM  =      1177.21277265
  Solvation  Ediel_sol  =         0.00000000
  ---------------------------------------------------
  free energy    TOTEN  =       -72.78624353 eV

  energy without entropy =      -72.78624353  energy(sigma->0) =      -72.78624353


--------------------------------------------------------------------------------------------------------




--------------------------------------- Iteration      1(  14)  ---------------------------------------


    POTLOK:  cpu time    0.0060: real time    0.0189
    SETDIJ:  cpu time    0.0030: real time    0.0035
     EDDAV:  cpu time    2.1797: real time    2.1864
       DOS:  cpu time    0.0010: real time    0.0007
    --------------------------------------------
      LOOP:  cpu time    2.1897: real time    2.2095

 eigenvalue-minimisations  :  5904
 total energy-change (2. order) :-0.1340595E-08  (-0.9452383E-11)
 number of electron      32.0000000 magnetization 
 augmentation part       -0.0792891 magnetization 

 Free energy of the ion-electron system (eV)
  ---------------------------------------------------
  alpha Z        PSCENC =        74.61757155
  Ewald energy   TEWEN  =     -1375.43107519
  -Hartree energ DENC   =      -107.27945766
  -exchange      EXHF   =         0.00000000
  -V(xc)+E(xc)   XCENC  =        64.23668739
  PAW double counting   =     13390.33155776   -13348.73872629
  entropy T*S    EENTRO =        -0.00000000
  eigenvalues    EBANDS =        52.26442625
  atomic energy  EATOM  =      1177.21277265
  Solvation  Ediel_sol  =         0.00000000
  ---------------------------------------------------
  free energy    TOTEN  =       -72.78624353 eV

  energy without entropy =      -72.78624353  energy(sigma->0) =      -72.78624353


--------------------------------------------------------------------------------------------------------




 average (electrostatic) potential at core
  the test charge radii are     0.5770
  (the norm of the test charge is              1.0000)
       1 -72.1773       2 -72.1773       3 -72.1773       4 -72.1773       5 -72.1773
       6 -72.1773       7 -72.1773       8 -72.1773
 
 
 
 E-fermi :  10.5804     XC(G=0): -13.1965     alpha+bet :-17.9851


 k-point     1 :       0.0357    0.0357    0.0357
  band No.  band energies     occupation 
      1     -10.5768      2.00000
      2      -2.6602      2.00000
      3      -2.6602      2.00000
      4      -2.6602      2.00000
      5      -1.5513      2.00000
      6      -1.5513      2.00000
      7      -1.5513      2.00000
      8       4.1976      2.00000
      9       4.1976      2.00000
     10       4.1976      2.00000
     11       4.3364      2.00000
     12       4.3364      2.00000
     13       4.3364      2.00000
     14      10.1424      2.00000
     15      10.3280      2.00000
     16      10.3280      2.00000
     17      14.9980      0.00000
     18      14.9980      0.00000
     19      14.9980      0.00000
     20      15.3773      0.00000
     21      15.3773      0.00000
     22      15.3773      0.00000
     23      15.9727      0.00000
     24      15.9732      0.00000

 k-point     2 :       0.1071    0.0357    0.0357
  band No.  band energies     occupation 
      1     -10.4849      2.00000
      2      -3.7217      2.00000
      3      -2.5987      2.00000
      4      -2.5987      2.00000
      5      -1.5028      2.00000
      6      -1.5028      2.00000
      7      -0.4070      2.00000
      8       3.8831      2.00000
      9       3.8831      2.00000
     10       4.2743      2.00000
     11       4.2743      2.00000
     12       4.2898      2.00000
     13       4.4254      2.00000
     14       9.7015      2.00000
     15       9.9801      2.00000
     16      10.2125      2.00000
     17      14.7635      0.00000
     18      15.2788      0.00000
     19      15.2788      0.00000
     20      15.8261      0.00000
     21      15.8267      0.00000
     22      15.8267      0.00000
     23      15.9045      0.00000
     24      16.3973      0.00000

 k-point     3 :       0.1786    0.0357    0.0357
  band No.  band energies     occupation 
      1     -10.3013      2.00000
      2      -4.7261      2.00000
      3      -2.4803      2.00000
      4      -2.4803      2.00000
      5      -1.4124      2.00000
      6      -1.4124      2.00000
      7       0.7584      2.00000
      8       3.4568      2.00000
      9       3.4568      2.00000
     10       4.0389      2.00000
     11       4.0389      2.00000
     12       4.4745      2.00000
     13       4.6024      2.00000
     14       9.0863      2.00000
     15       9.4082      2.00000
     16       9.8397      2.00000
     17      14.6148      0.00000
     18      15.7672      0.00000
     19      15.8734      0.00000
     20      15.8734      0.00000
     21      16.4022      0.00000
     22      16.6019      0.00000
     23      16.6019      0.00000
     24      17.1250      0.00000

 k-point     4 :       0.2500    0.0357    0.0357
  band No.  band energies     occupation 
      1     -10.0267      2.00000
      2      -5.6655      2.00000
      3      -2.3155      2.00000
      4      -2.3155      2.00000
      5      -1.2949      2.00000
      6      -1.2949      2.00000
      7       1.9275      2.00000
      8       2.9957      2.00000
      9       2.9957      2.00000
     10       3.6962      2.00000
     11       3.6962      2.00000
     12       4.7520      2.00000
     13       4.8664      2.00000
     14       8.3842      2.00000
     15       8.7351      2.00000
     16       9.2662      2.00000
     17      14.5500      0.00000
     18      15.5823      0.00000
     19      16.7393      0.00000
     20      16.7393      0.00000
     21      17.1047      0.00000
     22      17.6053      0.00000
     23      17.6053      0.00000
     24      18.0159      0.00000

 k-point     5 :       0.3214    0.0357    0.0357
  band No.  band energies     occupation 
      1      -9.6616      2.00000
      2      -6.5337      2.00000
      3      -2.1243      2.00000
      4      -2.1243      2.00000
      5      -1.1744      2.00000
      6      -1.1744      2.00000
      7       2.5735      2.00000
      8       2.5735      2.00000
      9       3.0794      2.00000
     10       3.3248      2.00000
     11       3.3248      2.00000
     12       5.1249      2.00000
     13       5.2149      2.00000
     14       7.6490      2.00000
     15       8.0380      2.00000
     16       8.5481      2.00000
     17      14.5607      0.00000
     18      15.3704      0.00000
     19      17.8048      0.00000
     20      17.8048      0.00000
     21      17.9340      0.00000
     22      18.7579      0.00000
     23      18.7579      0.00000
     24      18.9981      0.00000

 k-point     6 :       0.3929    0.0357    0.0357
  band No.  band energies     occupation 
      1      -9.2073      2.00000
      2      -7.3255      2.00000
      3      -1.9419      2.00000
      4      -1.9419      2.00000
      5      -1.0812      2.00000
      6      -1.0812      2.00000
      7       2.2559      2.00000
      8       2.2559      2.00000
      9       3.0047      2.00000
     10       3.0047      2.00000
     11       4.1864      2.00000
     12       5.5995      2.00000
     13       5.6444      2.00000
     14       6.8988      2.00000
     15       7.3599      2.00000
     16       7.7418      2.00000
     17      14.6378      0.00000
     18      15.1522      0.00000
     19      18.8815      0.00000
     20      18.9895      0.00000
     21      18.9895      0.00000
     22      19.9721      0.00000
     23      20.0291      0.00000
     24      20.0483      0.00000

 k-point     7 :       0.4643    0.0357    0.0357
  band No.  band energies     occupation 
      1      -8.6651      2.00000
      2      -8.0371      2.00000
      3      -1.8232      2.00000
      4      -1.8232      2.00000
      5      -1.0357      2.00000
      6      -1.0357      2.00000
      7       2.0889      2.00000
      8       2.0889      2.00000
      9       2.8148      2.00000
     10       2.8148      2.00000
     11       5.2092      2.00000
     12       6.1072      2.00000
     13       6.1502      2.00000
     14       6.1938      2.00000
     15       6.7254      2.00000
     16       6.9236      2.00000
     17      14.7704      0.00000
     18      14.9467      0.00000
     19      19.9208      0.00000
     20      20.1522      0.00000
     21      20.1522      0.00000
     22      20.9586      0.00000
     23      20.9683      0.00000
     24      20.9800      0.00000

 k-point     8 :       0.1071    0.1071    0.0357
  band No.  band energies     occupation 
      1     -10.3931      2.00000
      2      -3.6509      2.00000
      3      -3.6509      2.00000
      4      -2.5438      2.00000
      5      -1.4577      2.00000
      6      -0.3800      2.00000
      7      -0.3800      2.00000
      8       3.3794      2.00000
      9       3.9832      2.00000
     10       3.9832      2.00000
     11       4.3678      2.00000
     12       4.3678      2.00000
     13       4.4880      2.00000
     14       9.1636      2.00000
     15       9.7111      2.00000
     16      10.2193      2.00000
     17      15.1020      0.00000
     18      15.1020      0.00000
     19      15.2397      0.00000
     20      16.1510      0.00000
     21      16.2140      0.00000
     22      16.2140      0.00000
     23      16.4985      0.00000
     24      16.5170      0.00000

 k-point     9 :       0.1786    0.1071    0.0357
  band No.  band energies     occupation 
      1     -10.2098      2.00000
      2      -4.6491      2.00000
      3      -3.5122      2.00000
      4      -2.4422      2.00000
      5      -1.3738      2.00000
      6      -0.3374      2.00000
      7       0.7511      2.00000
      8       2.8410      2.00000
      9       3.5659      2.00000
     10       4.1509      2.00000
     11       4.1845      2.00000
     12       4.5013      2.00000
     13       4.5565      2.00000
     14       8.4941      2.00000
     15       9.1665      2.00000
     16      10.0062      2.00000
     17      14.9735      0.00000
     18      15.5453      0.00000
     19      15.7497      0.00000
     20      16.1095      0.00000
     21      16.7625      0.00000
     22      16.9282      0.00000
     23      17.1161      0.00000
     24      17.2843      0.00000

 k-point    10 :       0.2500    0.1071    0.0357
  band No.  band energies     occupation 
      1      -9.9354      2.00000
      2      -5.5843      2.00000
      3      -3.3118      2.00000
      4      -2.3148      2.00000
      5      -1.2622      2.00000
      6      -0.3033      2.00000
      7       1.8637      2.00000
      8       2.3464      2.00000
      9       3.1089      2.00000
     10       3.8501      2.00000
     11       4.3421      2.00000
     12       4.4886      2.00000
     13       4.8456      2.00000
     14       7.7659      2.00000
     15       8.5114      2.00000
     16       9.5522      2.00000
     17      14.9191      0.00000
     18      15.9433      0.00000
     19      16.1856      0.00000
     20      16.6517      0.00000
     21      17.4432      0.00000
     22      17.8826      0.00000
     23      17.9908      0.00000
     24      18.0334      0.00000

 k-point    11 :       0.3214    0.1071    0.0357
  band No.  band energies     occupation 
      1      -9.5709      2.00000
      2      -6.4494      2.00000
[...]
     11       5.7134      2.00000
     12       6.7332      2.00000
     13       6.8365      2.00000
     14       6.8365      2.00000
     15       7.1743      2.00000
     16       8.2644      2.00000
     17      17.5739      0.00000
     18      17.9813      0.00000
     19      17.9813      0.00000
     20      18.4763      0.00000
     21      18.7666      0.00000
     22      19.1065      0.00000
     23      19.6246      0.00000
     24      19.6246      0.00000

 k-point    73 :       0.4643    0.3929    0.2500
  band No.  band energies     occupation 
      1      -6.8391      2.00000
      2      -6.2546      2.00000
      3      -5.1815      2.00000
      4      -4.7502      2.00000
      5      -1.6887      2.00000
      6      -1.2702      2.00000
      7      -0.2342      2.00000
      8       0.3313      2.00000
      9       5.1605      2.00000
     10       5.4592      2.00000
     11       6.2622      2.00000
     12       6.7375      2.00000
     13       6.9309      2.00000
     14       6.9569      2.00000
     15       7.4476      2.00000
     16       7.9597      2.00000
     17      18.0045      0.00000
     18      18.2330      0.00000
     19      18.4491      0.00000
     20      18.5104      0.00000
     21      18.8825      0.00000
     22      19.1374      0.00000
     23      19.1791      0.00000
     24      19.6696      0.00000

 k-point    74 :       0.4643    0.4643    0.2500
  band No.  band energies     occupation 
      1      -6.3417      2.00000
      2      -5.7821      2.00000
      3      -5.7821      2.00000
      4      -5.2665      2.00000
      5      -1.3411      2.00000
      6      -0.8419      2.00000
      7      -0.8419      2.00000
      8      -0.3007      2.00000
      9       5.5508      2.00000
     10       5.9202      2.00000
     11       5.9202      2.00000
     12       6.3438      2.00000
     13       7.3053      2.00000
     14       7.4817      2.00000
     15       7.4817      2.00000
     16       7.8350      2.00000
     17      18.1594      0.00000
     18      18.5105      0.00000
     19      18.5105      0.00000
     20      18.6043      0.00000
     21      19.0182      0.00000
     22      19.1251      0.00000
     23      19.1251      0.00000
     24      19.7803      0.00000

 k-point    75 :       0.3214    0.3214    0.3214
  band No.  band energies     occupation 
      1      -7.8745      2.00000
      2      -5.0081      2.00000
      3      -5.0081      2.00000
      4      -5.0081      2.00000
      5      -1.1436      2.00000
      6      -1.1436      2.00000
      7      -1.1436      2.00000
      8       1.6329      2.00000
      9       5.2867      2.00000
     10       5.2867      2.00000
     11       5.2867      2.00000
     12       6.4335      2.00000
     13       6.4335      2.00000
     14       6.4335      2.00000
     15       8.2168      2.00000
     16       8.2168      2.00000
     17      17.2086      0.00000
     18      17.2086      0.00000
     19      17.2086      0.00000
     20      18.4633      0.00000
     21      18.4633      0.00000
     22      18.5176      0.00000
     23      21.1428      0.00000
     24      21.1429      0.00000

 k-point    76 :       0.3929    0.3214    0.3214
  band No.  band energies     occupation 
      1      -7.4396      2.00000
      2      -5.6931      2.00000
      3      -4.7437      2.00000
      4      -4.7437      2.00000
      5      -1.7031      2.00000
      6      -1.7031      2.00000
      7      -0.7838      2.00000
      8       0.9097      2.00000
      9       5.4786      2.00000
     10       5.4786      2.00000
     11       6.2556      2.00000
     12       6.6242      2.00000
     13       6.6242      2.00000
     14       6.7414      2.00000
     15       7.8452      2.00000
     16       8.1363      2.00000
     17      17.4894      0.00000
     18      17.6445      0.00000
     19      17.6445      0.00000
     20      18.2797      0.00000
     21      18.7287      0.00000
     22      18.8551      0.00000
     23      20.2782      0.00000
     24      20.2782      0.00000

 k-point    77 :       0.4643    0.3214    0.3214
  band No.  band energies     occupation 
      1      -6.9258      2.00000
      2      -6.3397      2.00000
      3      -4.5579      2.00000
      4      -4.5579      2.00000
      5      -2.0385      2.00000
      6      -2.0385      2.00000
      7      -0.3100      2.00000
      8       0.2585      2.00000
      9       5.5795      2.00000
     10       5.5795      2.00000
     11       6.7131      2.00000
     12       6.7131      2.00000
     13       7.0887      2.00000
     14       7.0970      2.00000
     15       7.4624      2.00000
     16       7.7466      2.00000
     17      17.7764      0.00000
     18      18.0465      0.00000
     19      18.2686      0.00000
     20      18.2686      0.00000
     21      19.1806      0.00000
     22      19.3312      0.00000
     23      19.3795      0.00000
     24      19.3795      0.00000

 k-point    78 :       0.3929    0.3929    0.3214
  band No.  band energies     occupation 
      1      -7.0134      2.00000
      2      -5.3458      2.00000
      3      -5.3458      2.00000
      4      -4.6384      2.00000
      5      -2.1188      2.00000
      6      -1.4290      2.00000
      7      -1.4290      2.00000
      8       0.1901      2.00000
      9       5.8113      2.00000
     10       6.3199      2.00000
     11       6.3199      2.00000
     12       6.9274      2.00000
     13       6.9668      2.00000
     14       6.9668      2.00000
     15       7.6653      2.00000
     16       8.0883      2.00000
     17      17.8060      0.00000
     18      17.9095      0.00000
     19      17.9095      0.00000
     20      18.5176      0.00000
     21      18.7248      0.00000
     22      18.7937      0.00000
     23      19.7060      0.00000
     24      19.7060      0.00000

 k-point    79 :       0.4643    0.3929    0.3214
  band No.  band energies     occupation 
      1      -6.5133      2.00000
      2      -5.9504      2.00000
      3      -4.9934      2.00000
      4      -4.7213      2.00000
      5      -2.1955      2.00000
      6      -1.9292      2.00000
      7      -0.9975      2.00000
      8      -0.4505      2.00000
      9       6.0580      2.00000
     10       6.2321      2.00000
     11       6.9195      2.00000
     12       7.1006      2.00000
     13       7.1103      2.00000
     14       7.3306      2.00000
     15       7.4245      2.00000
     16       7.8616      2.00000
     17      18.1743      0.00000
     18      18.2032      0.00000
     19      18.4081      0.00000
     20      18.4594      0.00000
     21      18.8916      0.00000
     22      19.0295      0.00000
     23      19.2022      0.00000
     24      19.2303      0.00000

 k-point    80 :       0.4643    0.4643    0.3214
  band No.  band energies     occupation 
      1      -6.0364      2.00000
      2      -5.5154      2.00000
      3      -5.5154      2.00000
      4      -5.0769      2.00000
      5      -2.0065      2.00000
      6      -1.5782      2.00000
      7      -1.5782      2.00000
      8      -1.0707      2.00000
      9       6.4114      2.00000
     10       6.6928      2.00000
     11       6.6928      2.00000
     12       7.0451      2.00000
     13       7.4078      2.00000
     14       7.5297      2.00000
     15       7.5297      2.00000
     16       7.8123      2.00000
     17      18.3321      0.00000
     18      18.5943      0.00000
     19      18.5943      0.00000
     20      18.6816      0.00000
     21      18.8206      0.00000
     22      18.8816      0.00000
     23      18.8816      0.00000
     24      19.2346      0.00000

 k-point    81 :       0.3929    0.3929    0.3929
  band No.  band energies     occupation 
      1      -6.5999      2.00000
      2      -5.0750      2.00000
      3      -5.0750      2.00000
      4      -5.0750      2.00000
      5      -2.0108      2.00000
      6      -2.0108      2.00000
      7      -2.0108      2.00000
      8      -0.5243      2.00000
      9       6.6696      2.00000
     10       6.6696      2.00000
     11       6.6696      2.00000
     12       7.1520      2.00000
     13       7.1520      2.00000
     14       7.1520      2.00000
     15       7.8770      2.00000
     16       7.8770      2.00000
     17      18.0562      0.00000
     18      18.0562      0.00000
     19      18.0562      0.00000
     20      18.6529      0.00000
     21      18.6529      0.00000
     22      18.6835      0.00000
     23      19.6842      0.00000
     24      19.6842      0.00000

 k-point    82 :       0.4643    0.3929    0.3929
  band No.  band energies     occupation 
      1      -6.1215      2.00000
      2      -5.5988      2.00000
      3      -4.8835      2.00000
      4      -4.8835      2.00000
      5      -2.3591      2.00000
      6      -2.3591      2.00000
      7      -1.6586      2.00000
      8      -1.1485      2.00000
      9       6.7942      2.00000
     10       6.7942      2.00000
     11       7.3085      2.00000
     12       7.3085      2.00000
     13       7.3453      2.00000
     14       7.3946      2.00000
     15       7.6411      2.00000
     16       7.7664      2.00000
     17      18.2971      0.00000
     18      18.4095      0.00000
     19      18.4095      0.00000
     20      18.5020      0.00000
     21      18.8532      0.00000
     22      18.8951      0.00000
     23      19.0724      0.00000
     24      19.0724      0.00000

 k-point    83 :       0.4643    0.4643    0.3929
  band No.  band energies     occupation 
      1      -5.6834      2.00000
      2      -5.2415      2.00000
      3      -5.2415      2.00000
      4      -4.9655      2.00000
      5      -2.4408      2.00000
      6      -2.1696      2.00000
      7      -2.1696      2.00000
      8      -1.7366      2.00000
      9       7.1056      2.00000
     10       7.2693      2.00000
     11       7.2693      2.00000
     12       7.5151      2.00000
     13       7.5218      2.00000
     14       7.5705      2.00000
     15       7.5705      2.00000
     16       7.7694      2.00000
     17      18.4999      0.00000
     18      18.5938      0.00000
     19      18.5938      0.00000
     20      18.7065      0.00000
     21      18.7263      0.00000
     22      18.8255      0.00000
     23      18.8255      0.00000
     24      18.8695      0.00000

 k-point    84 :       0.4643    0.4643    0.4643
  band No.  band energies     occupation 
      1      -5.3244      2.00000
      2      -5.0472      2.00000
      3      -5.0472      2.00000
      4      -5.0472      2.00000
      5      -2.5239      2.00000
      6      -2.5239      2.00000
      7      -2.5239      2.00000
      8      -2.2512      2.00000
      9       7.5573      2.00000
     10       7.5573      2.00000
     11       7.5573      2.00000
     12       7.6167      2.00000
     13       7.6167      2.00000
     14       7.6167      2.00000
     15       7.7035      2.00000
     16       7.7035      2.00000
     17      18.6325      0.00000
     18      18.6325      0.00000
     19      18.6325      0.00000
     20      18.7038      0.00000
     21      18.7042      0.00000
     22      18.7568      0.00000
     23      18.8244      0.00000
     24      18.8335      0.00000


--------------------------------------------------------------------------------------------------------


 soft charge-density along one line, spin component           1
         0         1         2         3         4         5         6         7         8         9
 total charge-density along one line
 
 pseudopotential strength for first ion, spin component:           1
 12.186  20.495  -0.000   0.000  -0.000  -0.000   0.000  -0.000
 20.495  34.468  -0.000   0.000  -0.000  -0.000   0.000  -0.000
 -0.000  -0.000  -2.978   0.000   0.000  -5.323   0.000   0.000
  0.000   0.000   0.000  -2.978   0.000   0.000  -5.323   0.000
 -0.000  -0.000   0.000   0.000  -2.978   0.000   0.000  -5.323
 -0.000  -0.000  -5.323   0.000   0.000  -9.490   0.000   0.000
  0.000   0.000   0.000  -5.323   0.000   0.000  -9.490   0.000
 -0.000  -0.000   0.000   0.000  -5.323   0.000   0.000  -9.490
 total augmentation occupancy for first ion, spin component:           1
  6.900  -2.372  -0.000   0.000   0.000  -0.000  -0.000  -0.000
 -2.372   0.871   0.000  -0.000  -0.000   0.000   0.000  -0.000
  0.000   0.000   5.437  -0.000  -0.000  -1.742  -0.000   0.000
  0.000  -0.000  -0.000   5.437   0.000   0.000  -1.742   0.000
  0.000  -0.000  -0.000  -0.000   5.437  -0.000  -0.000  -1.742
  0.000   0.000  -1.742  -0.000   0.000   0.575   0.000   0.000
 -0.000  -0.000  -0.000  -1.742  -0.000  -0.000   0.575   0.000
 -0.000  -0.000  -0.000   0.000  -1.742  -0.000  -0.000   0.575


------------------------ aborting loop because EDIFF is reached ----------------------------------------


    CHARGE:  cpu time    0.0730: real time    0.0734
    FORLOC:  cpu time    0.0010: real time    0.0033
    FORNL :  cpu time    0.2050: real time    0.2161
    STRESS:  cpu time    1.2508: real time    1.2657
    FORCOR:  cpu time    0.0050: real time    0.0113
    FORHAR:  cpu time    0.0010: real time    0.0038
    MIXING:  cpu time    0.0000: real time    0.0005
    OFIELD:  cpu time    0.0010: real time    0.0025

  FORCE on cell =-STRESS in cart. coord.  units (eV):
  Direction    XX          YY          ZZ          XY          YZ          ZX
  --------------------------------------------------------------------------------------
  Alpha Z    74.61757    74.61757    74.61757
  Ewald    -458.47781  -458.47781  -458.47781    -0.00000    -0.00000     0.00000
  Hartree    35.75982    35.75982    35.75982    -0.00000    -0.00000    -0.00000
  E(xc)    -131.12223  -131.12223  -131.12223     0.00000    -0.00000    -0.00000
  Local    -128.54265  -128.54265  -128.54265    -0.00000     0.00000    -0.00000
  n-local    30.13642    29.35300    29.94783     0.60189     0.81299     0.39842
  augment     0.50721     0.50721     0.50721     0.00000    -0.00000    -0.00000
  Kinetic   562.63515   579.46730   578.34771    -5.94972    -7.88037    -4.25859
  Fock        0.00000     0.00000     0.00000     0.00000     0.00000     0.00000
  -------------------------------------------------------------------------------------
  Total      -3.96228    -3.96228    -3.96228     0.00000    -0.00000     0.00000
  in kB    -135.01199  -135.01199  -135.01199     0.00000    -0.00000     0.00000
  external pressure =     -135.01 kB  Pullay stress =        0.00 kB


 VOLUME and BASIS-vectors are now :
 -----------------------------------------------------------------------------
  energy-cutoff  :      875.00
  volume of cell :       47.02
      direct lattice vectors                 reciprocal lattice vectors
     3.609341122  0.000000000  0.000000000     0.277058878  0.000000000  0.000000000
     0.000000000  3.609341122  0.000000000     0.000000000  0.277058878  0.000000000
     0.000000000  0.000000000  3.609341122     0.000000000  0.000000000  0.277058878

  length of vectors
     3.609341122  3.609341122  3.609341122     0.277058878  0.277058878  0.277058878


 FORCES acting on ions
    electron-ion (+dipol)            ewald-force                    non-local-force                 convergence-correction
 -----------------------------------------------------------------------------------------------
   0.374E-13 0.215E-12 0.486E-13   0.000E+00 -.711E-14 -.711E-14   0.364E-16 -.347E-17 0.156E-16   0.311E-14 0.271E-14 -.203E-13
   -.315E-13 -.603E-14 0.302E-13   0.602E-14 0.147E-13 0.710E-14   -.694E-17 -.304E-16 -.442E-16   -.416E-14 -.349E-14 -.834E-14
   0.325E-13 0.252E-12 0.658E-13   0.000E+00 -.213E-13 -.142E-13   0.538E-16 0.694E-17 0.373E-16   0.334E-14 0.287E-14 -.223E-13
   -.433E-13 0.247E-13 0.629E-13   0.694E-14 0.257E-16 0.106E-14   -.867E-16 0.121E-16 -.139E-16   -.492E-14 -.189E-14 -.110E-13
   0.620E-13 -.186E-12 -.304E-12   0.000E+00 0.000E+00 0.000E+00   0.781E-16 -.486E-16 0.130E-16   -.710E-14 0.188E-14 -.238E-13
   -.128E-13 -.294E-14 -.685E-12   0.386E-16 0.231E-13 0.153E-13   -.590E-16 -.243E-16 -.295E-16   -.113E-13 -.267E-14 -.957E-14
   0.610E-13 -.525E-12 0.202E-13   0.000E+00 -.142E-13 -.711E-14   0.121E-16 0.520E-16 0.451E-16   -.695E-14 0.105E-14 -.213E-13
   -.172E-13 -.373E-12 -.370E-12   -.497E-17 0.712E-14 0.710E-14   -.347E-16 0.434E-17 -.607E-17   -.111E-13 -.819E-15 -.741E-14
 -----------------------------------------------------------------------------------------------
   0.881E-13 -.602E-12 -.113E-11   0.130E-13 0.223E-14 0.211E-14   -.694E-17 -.312E-16 0.173E-16   -.390E-13 -.355E-15 -.124E-12
 
 
 POSITION                                       TOTAL-FORCE (eV/Angst)
 -----------------------------------------------------------------------------------
      0.90234      0.90234      0.90234        -0.000000     -0.000000     -0.000000
      0.00000      0.00000      0.00000         0.000000      0.000000      0.000000
      0.90234      2.70701      2.70701         0.000000     -0.000000      0.000000
      0.00000      1.80467      1.80467        -0.000000     -0.000000      0.000000
      2.70701      0.90234      2.70701         0.000000      0.000000     -0.000000
      1.80467      0.00000      1.80467         0.000000      0.000000     -0.000000
      2.70701      2.70701      0.90234        -0.000000     -0.000000      0.000000
      1.80467      1.80467      0.00000         0.000000      0.000000     -0.000000
 -----------------------------------------------------------------------------------
    total drift:                                0.000000     -0.000000     -0.000000


--------------------------------------------------------------------------------------------------------



  FREE ENERGIE OF THE ION-ELECTRON SYSTEM (eV)
  ---------------------------------------------------
  free  energy   TOTEN  =       -72.78624353 eV

  energy  without entropy=      -72.78624353  energy(sigma->0) =      -72.78624353
 


--------------------------------------------------------------------------------------------------------


    POTLOK:  cpu time    0.0110: real time    0.0169


--------------------------------------------------------------------------------------------------------


 stress matrix after NEB project (eV)
     -3.96228      0.00000      0.00000
      0.00000     -3.96228      0.00000
     -0.00000     -0.00000     -3.96228
  FORCES: max atom, RMS     0.000000    0.000000
  FORCE total and by dimension    0.000000    0.000000
  Stress total and by dimension    6.862876    3.962283


--------------------------------------------------------------------------------------------------------


  
 reached required accuracy - stopping structural energy minimisation
     LOOP+:  cpu time   31.8522: real time   32.4183
    4ORBIT:  cpu time    0.0000: real time    0.0000

 total amount of memory used by VASP MPI-rank0    52368. kBytes
=======================================================================

   base      :      30000. kBytes
   nonl-proj :      15455. kBytes
   fftplans  :        905. kBytes
   grid      :       2114. kBytes
   one-center:         24. kBytes
   wavefun   :       3870. kBytes
 
  
  
 General timing and accounting informations for this job:
 ========================================================
  
                  Total CPU time used (sec):       34.411
                            User time (sec):       33.324
                          System time (sec):        1.087
                         Elapsed time (sec):       36.115
  
                   Maximum memory used (kb):      127816.
                   Average memory used (kb):           0.
  
                          Minor page faults:        32028
                          Major page faults:          352
                 Voluntary context switches:         8909
