 running on   24 total cores
 distrk:  each k-point on   24 cores,    1 groups
 distr:  one band on    1 cores,   24 groups
 using from now: INCAR     
 vasp.5.4.4.18Apr17-6-g9f103f2a35 (build Jan 14 2019 14:48:31) complex          
  
 POSCAR found type information on POSCAR  C 
 POSCAR found :  1 types and       8 ions
 scaLAPACK will be used

 ----------------------------------------------------------------------------- 
|                                                                             |
|           W    W    AA    RRRRR   N    N  II  N    N   GGGG   !!!           |
|           W    W   A  A   R    R  NN   N  II  NN   N  G    G  !!!           |
|           W    W  A    A  R    R  N N  N  II  N N  N  G       !!!           |
|           W WW W  AAAAAA  RRRRR   N  N N  II  N  N N  G  GGG   !            |
|           WW  WW  A    A  R   R   N   NN  II  N   NN  G    G                |
|           W    W  A    A  R    R  N    N  II  N    N   GGGG   !!!           |
|                                                                             |
|      For optimal performance we recommend to set                            |
|        NCORE= 4 - approx SQRT( number of cores)                             |
|      NCORE specifies how many cores store one orbital (NPAR=cpu/NCORE).     |
|      This setting can  greatly improve the performance of VASP for DFT.     |
|      The default,   NCORE=1            might be grossly inefficient         |
|      on modern multi-core architectures or massively parallel machines.     |
|      Do your own testing !!!!                                               |
|      Unfortunately you need to use the default for GW and RPA calculations. |
|      (for HF NCORE is supported but not extensively tested yet)             |
|                                                                             |
 ----------------------------------------------------------------------------- 

 WARNING: for PREC=h ENMAX is automatically increase by 25 %
        this was not the case for versions prior to vasp.4.4
 LDA part: xc-table for Pade appr. of Perdew
 POSCAR found type information on POSCAR  C 
 POSCAR found :  1 types and       8 ions
 POSCAR, INCAR and KPOINTS ok, starting setup
 FFT: planning ...
 WAVECAR not read
 entering main loop
       N       E                     dE             d eps       ncg     rms          rms(c)
DAV:   1     0.100394091251E+03    0.10039E+03   -0.25674E+04  4032   0.198E+03
DAV:   2    -0.721547170108E+02   -0.17255E+03   -0.17054E+03  6528   0.223E+02
DAV:   3    -0.749875718248E+02   -0.28329E+01   -0.28329E+01  4776   0.404E+01
DAV:   4    -0.750056897712E+02   -0.18118E-01   -0.18118E-01  7392   0.254E+00
DAV:   5    -0.750056925955E+02   -0.28244E-05   -0.28243E-05  4704   0.385E-02    0.159E+01
DAV:   6    -0.733434741871E+02    0.16622E+01   -0.12592E+00  4824   0.593E+00    0.104E+01
DAV:   7    -0.727872186164E+02    0.55626E+00   -0.16423E+00  5904   0.685E+00    0.210E+00
DAV:   8    -0.727859154878E+02    0.13031E-02   -0.22855E-02  6576   0.114E+00    0.118E-01
DAV:   9    -0.727861176414E+02   -0.20215E-03   -0.45920E-04  5808   0.141E-01    0.616E-02
DAV:  10    -0.727862420707E+02   -0.12443E-03   -0.12172E-04  6264   0.866E-02    0.467E-03
DAV:  11    -0.727862431463E+02   -0.10757E-05   -0.14818E-06  6000   0.945E-03    0.269E-03
DAV:  12    -0.727862435152E+02   -0.36890E-06   -0.76554E-08  6360   0.246E-03    0.152E-04
DAV:  13    -0.727862435259E+02   -0.10716E-07   -0.16715E-10  6144   0.100E-04    0.754E-05
DAV:  14    -0.727862435273E+02   -0.13406E-08   -0.94524E-11  5904   0.828E-05
   1 F= -.72786244E+02 E0= -.72786244E+02  d E =-.727862E+02
 curvature:   0.00 expect dE= 0.000E+00 dE for cont linesearch  0.000E+00
 trial: gam= 0.00000 g(F)=  0.661E-59 g(S)=  0.000E+00 ort = 0.000E+00 (trialstep = 0.100E+01)
 search vector abs. value=  0.100E-09
 reached required accuracy - stopping structural energy minimisation
