<?xml version="1.0" encoding="ISO-8859-1"?>
<modeling>
 <generator>
  <i name="program" type="string">vasp </i>
  <i name="version" type="string">5.4.4.18Apr17-6-g9f103f2a35  </i>
  <i name="subversion" type="string">(build Jan 14 2019 14:48:31) complex            parallel </i>
  <i name="platform" type="string">LinuxIFC </i>
  <i name="date" type="string">2019 08 26 </i>
  <i name="time" type="string">21:15:05 </i>
 </generator>
 <incar>
  <i type="int" name="ISTART">     0</i>
  <i type="string" name="PREC">high     (precision level)</i>
  <i type="logical" name="ADDGRID"> T  </i>
  <i type="int" name="NELM">    40</i>
  <i type="int" name="NELMIN">     4</i>
  <i type="int" name="IBRION">     2</i>
  <i name="EDIFF">      0.00000001</i>
  <i name="EDIFFG">     -0.01000000</i>
  <i type="int" name="NSW">   100</i>
  <i type="int" name="ISIF">     2</i>
  <i type="logical" name="LREAL"> F  </i>
  <i type="int" name="ISMEAR">     0</i>
  <i name="SIGMA">      0.05000000</i>
  <i type="logical" name="LWAVE"> F  </i>
  <i type="logical" name="LCHARG"> F  </i>
  <v type="int" name="KPOINT_BSE">    -1     0     0     0</v>
  <i type="int" name="NELM">    40</i>
 </incar>
 <structure name="primitive_cell" >
  <crystal>
   <varray name="basis" >
    <v>       1.80467056       1.80467056      -0.00000000 </v>
    <v>       1.80467056       0.00000000      -1.80467056 </v>
    <v>       0.00000000       1.80467056      -1.80467056 </v>
   </varray>
   <i name="volume">     11.75503150 </i>
   <varray name="rec_basis" >
    <v>       0.27705888       0.27705888       0.27705888 </v>
    <v>       0.27705888      -0.27705888      -0.27705888 </v>
    <v>      -0.27705888       0.27705888      -0.27705888 </v>
   </varray>
  </crystal>
  <varray name="positions" >
   <v>      -0.25000000      -0.25000000      -0.25000000 </v>
   <v>       0.00000000       0.00000000       0.00000000 </v>
  </varray>
 </structure>
 <varray name="primitive_index" >
  <v type="int" >        1 </v>
  <v type="int" >        2 </v>
 </varray>
 <kpoints>
  <generation param="Monkhorst-Pack">
   <v type="int" name="divisions">      14       14       14 </v>
   <v name="usershift">      0.00000000       0.00000000       0.00000000 </v>
   <v name="genvec1">      0.07142857       0.00000000       0.00000000 </v>
   <v name="genvec2">      0.00000000       0.07142857       0.00000000 </v>
   <v name="genvec3">      0.00000000       0.00000000       0.07142857 </v>
   <v name="shift">      0.50000000       0.50000000       0.50000000 </v>
  </generation>
  <varray name="kpointlist" >
   <v>       0.03571429       0.03571429       0.03571429 </v>
   <v>       0.10714286       0.03571429       0.03571429 </v>
   <v>       0.17857143       0.03571429       0.03571429 </v>
   <v>       0.25000000       0.03571429       0.03571429 </v>
   <v>       0.32142857       0.03571429       0.03571429 </v>
   <v>       0.39285714       0.03571429       0.03571429 </v>
   <v>       0.46428571       0.03571429       0.03571429 </v>
   <v>       0.10714286       0.10714286       0.03571429 </v>
   <v>       0.17857143       0.10714286       0.03571429 </v>
   <v>       0.25000000       0.10714286       0.03571429 </v>
   <v>       0.32142857       0.10714286       0.03571429 </v>
   <v>       0.39285714       0.10714286       0.03571429 </v>
   <v>       0.46428571       0.10714286       0.03571429 </v>
   <v>       0.17857143       0.17857143       0.03571429 </v>
   <v>       0.25000000       0.17857143       0.03571429 </v>
   <v>       0.32142857       0.17857143       0.03571429 </v>
   <v>       0.39285714       0.17857143       0.03571429 </v>
   <v>       0.46428571       0.17857143       0.03571429 </v>
   <v>       0.25000000       0.25000000       0.03571429 </v>
   <v>       0.32142857       0.25000000       0.03571429 </v>
   <v>       0.39285714       0.25000000       0.03571429 </v>
   <v>       0.46428571       0.25000000       0.03571429 </v>
   <v>       0.32142857       0.32142857       0.03571429 </v>
   <v>       0.39285714       0.32142857       0.03571429 </v>
   <v>       0.46428571       0.32142857       0.03571429 </v>
   <v>       0.39285714       0.39285714       0.03571429 </v>
   <v>       0.46428571       0.39285714       0.03571429 </v>
   <v>       0.46428571       0.46428571       0.03571429 </v>
   <v>       0.10714286       0.10714286       0.10714286 </v>
   <v>       0.17857143       0.10714286       0.10714286 </v>
   <v>       0.25000000       0.10714286       0.10714286 </v>
   <v>       0.32142857       0.10714286       0.10714286 </v>
   <v>       0.39285714       0.10714286       0.10714286 </v>
   <v>       0.46428571       0.10714286       0.10714286 </v>
   <v>       0.17857143       0.17857143       0.10714286 </v>
   <v>       0.25000000       0.17857143       0.10714286 </v>
   <v>       0.32142857       0.17857143       0.10714286 </v>
   <v>       0.39285714       0.17857143       0.10714286 </v>
   <v>       0.46428571       0.17857143       0.10714286 </v>
   <v>       0.25000000       0.25000000       0.10714286 </v>
   <v>       0.32142857       0.25000000       0.10714286 </v>
   <v>       0.39285714       0.25000000       0.10714286 </v>
   <v>       0.46428571       0.25000000       0.10714286 </v>
   <v>       0.32142857       0.32142857       0.10714286 </v>
   <v>       0.39285714       0.32142857       0.10714286 </v>
   <v>       0.46428571       0.32142857       0.10714286 </v>
   <v>       0.39285714       0.39285714       0.10714286 </v>
   <v>       0.46428571       0.39285714       0.10714286 </v>
   <v>       0.46428571       0.46428571       0.10714286 </v>
   <v>       0.17857143       0.17857143       0.17857143 </v>
   <v>       0.25000000       0.17857143       0.17857143 </v>
   <v>       0.32142857       0.17857143       0.17857143 </v>
   <v>       0.39285714       0.17857143       0.17857143 </v>
   <v>       0.46428571       0.17857143       0.17857143 </v>
   <v>       0.25000000       0.25000000       0.17857143 </v>
   <v>       0.32142857       0.25000000       0.17857143 </v>
   <v>       0.39285714       0.25000000       0.17857143 </v>
   <v>       0.46428571       0.25000000       0.17857143 </v>
   <v>       0.32142857       0.32142857       0.17857143 </v>
   <v>       0.39285714       0.32142857       0.17857143 </v>
   <v>       0.46428571       0.32142857       0.17857143 </v>
   <v>       0.39285714       0.39285714       0.17857143 </v>
   <v>       0.46428571       0.39285714       0.17857143 </v>
   <v>       0.46428571       0.46428571       0.17857143 </v>
   <v>       0.25000000       0.25000000       0.25000000 </v>
   <v>       0.32142857       0.25000000       0.25000000 </v>
   <v>       0.39285714       0.25000000       0.25000000 </v>
   <v>       0.46428571       0.25000000       0.25000000 </v>
   <v>       0.32142857       0.32142857       0.25000000 </v>
   <v>       0.39285714       0.32142857       0.25000000 </v>
   <v>       0.46428571       0.32142857       0.25000000 </v>
   <v>       0.39285714       0.39285714       0.25000000 </v>
   <v>       0.46428571       0.39285714       0.25000000 </v>
   <v>       0.46428571       0.46428571       0.25000000 </v>
   <v>       0.32142857       0.32142857       0.32142857 </v>
   <v>       0.39285714       0.32142857       0.32142857 </v>
   <v>       0.46428571       0.32142857       0.32142857 </v>
   <v>       0.39285714       0.39285714       0.32142857 </v>
   <v>       0.46428571       0.39285714       0.32142857 </v>
   <v>       0.46428571       0.46428571       0.32142857 </v>
   <v>       0.39285714       0.39285714       0.39285714 </v>
   <v>       0.46428571       0.39285714       0.39285714 </v>
   <v>       0.46428571       0.46428571       0.39285714 </v>
   <v>       0.46428571       0.46428571       0.46428571 </v>
  </varray>
  <varray name="weights" >
   <v>       0.00291545 </v>
   <v>       0.00874636 </v>
   <v>       0.00874636 </v>
   <v>       0.00874636 </v>
   <v>       0.00874636 </v>
   <v>       0.00874636 </v>
   <v>       0.00874636 </v>
   <v>       0.00874636 </v>
   <v>       0.01749271 </v>
   <v>       0.01749271 </v>
   <v>       0.01749271 </v>
   <v>       0.01749271 </v>
   <v>       0.01749271 </v>
   <v>       0.00874636 </v>
   <v>       0.01749271 </v>
   <v>       0.01749271 </v>
   <v>       0.01749271 </v>
   <v>       0.01749271 </v>
   <v>       0.00874636 </v>
   <v>       0.01749271 </v>
   <v>       0.01749271 </v>
   <v>       0.01749271 </v>
   <v>       0.00874636 </v>
   <v>       0.01749271 </v>
   <v>       0.01749271 </v>
   <v>       0.00874636 </v>
   <v>       0.01749271 </v>
   <v>       0.00874636 </v>
   <v>       0.00291545 </v>
   <v>       0.00874636 </v>
   <v>       0.00874636 </v>
   <v>       0.00874636 </v>
   <v>       0.00874636 </v>
   <v>       0.00874636 </v>
   <v>       0.00874636 </v>
   <v>       0.01749271 </v>
   <v>       0.01749271 </v>
   <v>       0.01749271 </v>
   <v>       0.01749271 </v>
   <v>       0.00874636 </v>
   <v>       0.01749271 </v>
   <v>       0.01749271 </v>
   <v>       0.01749271 </v>
   <v>       0.00874636 </v>
   <v>       0.01749271 </v>
   <v>       0.01749271 </v>
   <v>       0.00874636 </v>
   <v>       0.01749271 </v>
   <v>       0.00874636 </v>
   <v>       0.00291545 </v>
   <v>       0.00874636 </v>
   <v>       0.00874636 </v>
   <v>       0.00874636 </v>
   <v>       0.00874636 </v>
   <v>       0.00874636 </v>
   <v>       0.01749271 </v>
   <v>       0.01749271 </v>
   <v>       0.01749271 </v>
   <v>       0.00874636 </v>
   <v>       0.01749271 </v>
   <v>       0.01749271 </v>
   <v>       0.00874636 </v>
   <v>       0.01749271 </v>
   <v>       0.00874636 </v>
   <v>       0.00291545 </v>
   <v>       0.00874636 </v>
   <v>       0.00874636 </v>
   <v>       0.00874636 </v>
   <v>       0.00874636 </v>
   <v>       0.01749271 </v>
   <v>       0.01749271 </v>
   <v>       0.00874636 </v>
   <v>       0.01749271 </v>
   <v>       0.00874636 </v>
   <v>       0.00291545 </v>
   <v>       0.00874636 </v>
   <v>       0.00874636 </v>
   <v>       0.00874636 </v>
   <v>       0.01749271 </v>
   <v>       0.00874636 </v>
   <v>       0.00291545 </v>
   <v>       0.00874636 </v>
   <v>       0.00874636 </v>
   <v>       0.00291545 </v>
  </varray>
 </kpoints>
 <parameters>
  <separator name="general" >
   <i type="string" name="SYSTEM">unknown system</i>
   <i type="logical" name="LCOMPAT"> F  </i>
  </separator>
  <separator name="electronic" >
   <i type="string" name="PREC">high</i>
   <i name="ENMAX">    875.00000000</i>
   <i name="ENAUG">    946.76800000</i>
   <i name="EDIFF">      0.00000001</i>
   <i type="int" name="IALGO">    38</i>
   <i type="int" name="IWAVPR">    11</i>
   <i type="int" name="NBANDS">    24</i>
   <i name="NELECT">     32.00000000</i>
   <i type="int" name="TURBO">     0</i>
   <i type="int" name="IRESTART">     0</i>
   <i type="int" name="NREBOOT">     0</i>
   <i type="int" name="NMIN">     0</i>
   <i name="EREF">      0.00000000</i>
   <separator name="electronic smearing" >
    <i type="int" name="ISMEAR">     0</i>
    <i name="SIGMA">      0.05000000</i>
    <i name="KSPACING">      0.50000000</i>
    <i type="logical" name="KGAMMA"> T  </i>
   </separator>
   <separator name="electronic projectors" >
    <i type="logical" name="LREAL"> F  </i>
    <v name="ROPT">      0.00000000</v>
    <i type="int" name="LMAXPAW">  -100</i>
    <i type="int" name="LMAXMIX">     2</i>
    <i type="logical" name="NLSPLINE"> F  </i>
   </separator>
   <separator name="electronic startup" >
    <i type="int" name="ISTART">     0</i>
    <i type="int" name="ICHARG">     2</i>
    <i type="int" name="INIWAV">     1</i>
   </separator>
   <separator name="electronic spin" >
    <i type="int" name="ISPIN">     1</i>
    <i type="logical" name="LNONCOLLINEAR"> F  </i>
    <v name="MAGMOM">      1.00000000      1.00000000      1.00000000      1.00000000      1.00000000      1.00000000      1.00000000      1.00000000</v>
    <i name="NUPDOWN">     -1.00000000</i>
    <i type="logical" name="LSORBIT"> F  </i>
    <v name="SAXIS">      0.00000000      0.00000000      1.00000000</v>
    <i type="logical" name="LSPIRAL"> F  </i>
    <v name="QSPIRAL">      0.00000000      0.00000000      0.00000000</v>
    <i type="logical" name="LZEROZ"> F  </i>
   </separator>
   <separator name="electronic exchange-correlation" >
    <i type="logical" name="LASPH"> F  </i>
    <i type="logical" name="LMETAGGA"> F  </i>
   </separator>
   <separator name="electronic convergence" >
    <i type="int" name="NELM">    40</i>
    <i type="int" name="NELMDL">    -5</i>
    <i type="int" name="NELMIN">     4</i>
    <i name="ENINI">    875.00000000</i>
    <separator name="electronic convergence detail" >
     <i type="logical" name="LDIAG"> T  </i>
     <i type="logical" name="LSUBROT"> F  </i>
     <i name="WEIMIN">      0.00100000</i>
     <i name="EBREAK">      0.00000000</i>
     <i name="DEPER">      0.30000000</i>
     <i type="int" name="NRMM">     4</i>
     <i name="TIME">      0.40000000</i>
    </separator>
   </separator>
   <separator name="electronic mixer" >
    <i name="AMIX">      0.40000000</i>
    <i name="BMIX">      1.00000000</i>
    <i name="AMIN">      0.10000000</i>
    <i name="AMIX_MAG">      1.60000000</i>
    <i name="BMIX_MAG">      1.00000000</i>
    <separator name="electronic mixer details" >
     <i type="int" name="IMIX">     4</i>
     <i type="logical" name="MIXFIRST"> F  </i>
     <i type="int" name="MAXMIX">   -45</i>
     <i name="WC">    100.00000000</i>
     <i type="int" name="INIMIX">     1</i>
     <i type="int" name="MIXPRE">     1</i>
     <i type="int" name="MREMOVE">     5</i>
    </separator>
   </separator>
   <separator name="electronic dipolcorrection" >
    <i type="logical" name="LDIPOL"> F  </i>
    <i type="logical" name="LMONO"> F  </i>
    <i type="int" name="IDIPOL">     0</i>
    <i name="EPSILON">      1.00000000</i>
    <v name="DIPOL">   -100.00000000   -100.00000000   -100.00000000</v>
    <i name="EFIELD">      0.00000000</i>
   </separator>
  </separator>
  <separator name="grids" >
   <i type="int" name="NGX">    36</i>
   <i type="int" name="NGY">    36</i>
   <i type="int" name="NGZ">    36</i>
   <i type="int" name="NGXF">    48</i>
   <i type="int" name="NGYF">    48</i>
   <i type="int" name="NGZF">    48</i>
   <i type="logical" name="ADDGRID"> T  </i>
  </separator>
  <separator name="ionic" >
   <i type="int" name="NSW">   100</i>
   <i type="int" name="IBRION">     2</i>
   <i type="int" name="MDALGO">     0</i>
   <i type="int" name="ISIF">     2</i>
   <i name="PSTRESS">      0.00000000</i>
   <i name="EDIFFG">     -0.01000000</i>
   <i type="int" name="NFREE">     1</i>
   <i name="POTIM">      0.50000000</i>
   <i name="SMASS">     -3.00000000</i>
   <i name="SCALEE">      1.00000000</i>
  </separator>
  <separator name="ionic md" >
   <i name="TEBEG">      0.00010000</i>
   <i name="TEEND">      0.00010000</i>
   <i type="int" name="NBLOCK">     1</i>
   <i type="int" name="KBLOCK">   100</i>
   <i type="int" name="NPACO">   256</i>
   <i name="APACO">     16.00000000</i>
  </separator>
  <separator name="symmetry" >
   <i type="int" name="ISYM">     2</i>
   <i name="SYMPREC">      0.00001000</i>
  </separator>
  <separator name="dos" >
   <i type="int" name="LORBIT">     0</i>
   <v name="RWIGS">     -1.00000000</v>
   <i type="int" name="NEDOS">   301</i>
   <i name="EMIN">     10.00000000</i>
   <i name="EMAX">    -10.00000000</i>
   <i name="EFERMI">      0.00000000</i>
  </separator>
  <separator name="writing" >
   <i type="int" name="NWRITE">     2</i>
   <i type="logical" name="LWAVE"> F  </i>
   <i type="logical" name="LDOWNSAMPLE"> F  </i>
   <i type="logical" name="LCHARG"> F  </i>
   <i type="logical" name="LPARD"> F  </i>
   <i type="logical" name="LVTOT"> F  </i>
   <i type="logical" name="LVHAR"> F  </i>
   <i type="logical" name="LELF"> F  </i>
   <i type="logical" name="LOPTICS"> F  </i>
   <v name="STM">      0.00000000      0.00000000      0.00000000      0.00000000      0.00000000      0.00000000      0.00000000</v>
  </separator>
  <separator name="performance" >
   <i type="int" name="NPAR">    24</i>
   <i type="int" name="NSIM">     4</i>
   <i type="int" name="NBLK">    -1</i>
   <i type="logical" name="LPLANE"> T  </i>
   <i type="logical" name="LSCALAPACK"> T  </i>
   <i type="logical" name="LSCAAWARE"> F  </i>
   <i type="logical" name="LSCALU"> F  </i>
   <i type="logical" name="LASYNC"> F  </i>
   <i type="logical" name="LORBITALREAL"> F  </i>
  </separator>
  <separator name="miscellaneous" >
   <i type="int" name="IDIOT">     3</i>
   <i type="int" name="ISPECIAL">     0</i>
   <i type="logical" name="LMUSIC"> F  </i>
   <v name="POMASS">     12.01100000</v>
   <v name="DARWINR">      0.00000000</v>
   <v name="DARWINV">      1.00000000</v>
   <i type="logical" name="LCORR"> T  </i>
  </separator>
  <i type="logical" name="GGA_COMPAT"> T  </i>
  <i type="logical" name="LBERRY"> F  </i>
  <i type="int" name="ICORELEVEL">     0</i>
  <i type="logical" name="LDAU"> F  </i>
  <i type="int" name="I_CONSTRAINED_M">     0</i>
  <separator name="electronic exchange-correlation" >
   <i type="string" name="GGA">--</i>
   <i type="int" name="VOSKOWN">     0</i>
   <i type="logical" name="LHFCALC"> F  </i>
   <i type="string" name="PRECFOCK"></i>
   <i type="logical" name="LSYMGRAD"> F  </i>
   <i type="logical" name="LHFONE"> F  </i>
   <i type="logical" name="LRHFCALC"> F  </i>
   <i type="logical" name="LTHOMAS"> F  </i>
   <i type="logical" name="LMODELHF"> F  </i>
   <i name="ENCUT4O">     -1.00000000</i>
   <i type="int" name="EXXOEP">     0</i>
   <i type="int" name="FOURORBIT">     0</i>
   <i name="AEXX">      0.00000000</i>
   <i name="HFALPHA">      0.00000000</i>
   <i name="MCALPHA">      0.00000000</i>
   <i name="ALDAX">      1.00000000</i>
   <i name="AGGAX">      1.00000000</i>
   <i name="ALDAC">      1.00000000</i>
   <i name="AGGAC">      1.00000000</i>
   <i type="int" name="NKREDX">     1</i>
   <i type="int" name="NKREDY">     1</i>
   <i type="int" name="NKREDZ">     1</i>
   <i type="logical" name="SHIFTRED"> F  </i>
   <i type="logical" name="ODDONLY"> F  </i>
   <i type="logical" name="EVENONLY"> F  </i>
   <i type="int" name="LMAXFOCK">     0</i>
   <i type="int" name="NMAXFOCKAE">     0</i>
   <i type="logical" name="LFOCKAEDFT"> F  </i>
   <i name="HFSCREEN">      0.00000000</i>
   <i name="HFSCREENC">      0.00000000</i>
   <i type="int" name="NBANDSGWLOW">     0</i>
  </separator>
  <separator name="vdW DFT" >
   <i type="logical" name="LUSE_VDW"> F  </i>
   <i name="Zab_VDW">     -0.84910000</i>
   <i name="PARAM1">      0.12340000</i>
   <i name="PARAM2">      1.00000000</i>
   <i name="PARAM3">      0.00000000</i>
  </separator>
  <separator name="model GW" >
   <i type="int" name="MODEL_GW">     0</i>
   <i name="MODEL_EPS0">      3.52650945</i>
   <i name="MODEL_ALPHA">      1.00000000</i>
  </separator>
  <separator name="linear response parameters" >
   <i type="logical" name="LEPSILON"> F  </i>
   <i type="logical" name="LRPA"> F  </i>
   <i type="logical" name="LNABLA"> F  </i>
   <i type="logical" name="LVEL"> F  </i>
   <i type="int" name="KINTER">     0</i>
   <i name="CSHIFT">      0.10000000</i>
   <i name="OMEGAMAX">     -1.00000000</i>
   <i name="DEG_THRESHOLD">      0.00200000</i>
   <i name="RTIME">     -0.10000000</i>
   <i name="WPLASMAI">      0.00000000</i>
   <v name="DFIELD">      0.00000000      0.00000000      0.00000000</v>
   <v name="WPLASMA">      0.00000000      0.00000000      0.00000000      0.00000000      0.00000000      0.00000000      0.00000000      0.00000000      0.00000000</v>
  </separator>
  <separator name="orbital magnetization" >
   <i type="logical" name="NUCIND"> F  </i>
   <v name="MAGPOS">      0.00000000      0.00000000      0.00000000</v>
   <i type="logical" name="LNICSALL"> T  </i>
   <i type="logical" name="ORBITALMAG"> F  </i>
   <i type="logical" name="LMAGBLOCH"> F  </i>
   <i type="logical" name="LCHIMAG"> F  </i>
   <i type="logical" name="LGAUGE"> T  </i>
   <i type="int" name="MAGATOM">     0</i>
   <v name="MAGDIPOL">      0.00000000      0.00000000      0.00000000</v>
   <v name="AVECCONST">      0.00000000      0.00000000      0.00000000</v>
  </separator>
  <separator name="response functions" >
   <i type="logical" name="LADDER"> F  </i>
   <i type="logical" name="LRPAFORCE"> F  </i>
   <i type="logical" name="LFXC"> F  </i>
   <i type="logical" name="LHARTREE"> T  </i>
   <i type="int" name="IBSE">     0</i>
   <v type="int" name="KPOINT">    -1     0     0     0</v>
   <i type="logical" name="LTCTE"> F  </i>
   <i type="logical" name="LTETE"> F  </i>
   <i type="logical" name="LTRIPLET"> F  </i>
   <i type="logical" name="LFXCEPS"> F  </i>
   <i type="logical" name="LFXHEG"> F  </i>
   <i type="int" name="NATURALO">     2</i>
   <i type="logical" name="L2ORDER"> F  </i>
   <i type="logical" name="LMP2LT"> F  </i>
   <i type="logical" name="LUSEW"> F  </i>
   <i name="ENCUTGW">     -2.00000000</i>
   <i name="ENCUTGWSOFT">     -2.00000000</i>
   <i name="ENCUTLF">     -1.00000000</i>
   <i type="int" name="LMAXMP2">    -1</i>
   <i name="SCISSOR">      0.00000000</i>
   <i type="int" name="NOMEGA">     0</i>
   <i type="int" name="NOMEGAR">     0</i>
   <i type="int" name="NBANDSGW">    -1</i>
   <i type="int" name="NBANDSO">    -1</i>
   <i type="int" name="NBANDSV">    -1</i>
   <i type="int" name="NELM">    40</i>
   <i type="int" name="NELMHF">     1</i>
   <i type="int" name="DIM">     3</i>
   <i type="int" name="ANTIRES">     0</i>
   <i name="OMEGAMAX">    -30.00000000</i>
   <i name="OMEGAMIN">    -30.00000000</i>
   <i name="OMEGATL">   -200.00000000</i>
   <i type="int" name="OMEGAGRID">   140</i>
   <i name="CSHIFT">     -0.10000000</i>
   <i type="logical" name="SELFENERGY"> F  </i>
   <i type="logical" name="LSPECTRAL"> F  </i>
   <i type="logical" name="LSPECTRALGW"> F  </i>
   <i type="logical" name="LSINGLES"> F  </i>
   <i type="logical" name="LFERMIGW"> F  </i>
   <i type="logical" name="ODDONLYGW"> F  </i>
   <i type="logical" name="EVENONLYGW"> F  </i>
   <i type="int" name="NKREDLFX">     1</i>
   <i type="int" name="NKREDLFY">     1</i>
   <i type="int" name="NKREDLFZ">     1</i>
   <i type="int" name="MAXMEM">  2800</i>
   <i type="int" name="TELESCOPE">     0</i>
   <i type="int" name="TAUPAR">     1</i>
   <i type="int" name="OMEGAPAR">    -1</i>
   <i name="LAMBDA">      1.00000000</i>
  </separator>
  <separator name="External order field" >
   <i name="OFIELD_KAPPA">      0.00000000</i>
   <v name="OFIELD_K">      0.00000000      0.00000000      0.00000000</v>
   <i name="OFIELD_Q6_NEAR">      0.00000000</i>
   <i name="OFIELD_Q6_FAR">      0.00000000</i>
   <i name="OFIELD_A">      0.00000000</i>
  </separator>
 </parameters>
 <atominfo>
  <atoms>       8 </atoms>
  <types>       1 </types>
  <array name="atoms" >
   <dimension dim="1">ion</dimension>
   <field type="string">element</field>
   <field type="int">atomtype</field>
   <set>
    <rc><c>C </c><c>   1</c></rc>
    <rc><c>C </c><c>   1</c></rc>
    <rc><c>C </c><c>   1</c></rc>
    <rc><c>C </c><c>   1</c></rc>
    <rc><c>C </c><c>   1</c></rc>
    <rc><c>C </c><c>   1</c></rc>
    <rc><c>C </c><c>   1</c></rc>
    <rc><c>C </c><c>   1</c></rc>
   </set>
  </array>
  <array name="atomtypes" >
   <dimension dim="1">type</dimension>
   <field type="int">atomspertype</field>
   <field type="string">element</field>
   <field>mass</field>
   <field>valence</field>
   <field type="string">pseudopotential</field>
   <set>
    <rc><c>   8</c><c>C </c><c>     12.01100000</c><c>      4.00000000</c><c>  PAW_PBE C_h 06Feb2004                 </c></rc>
   </set>
  </array>
 </atominfo>
 <structure name="initialpos" >
  <crystal>
   <varray name="basis" >
    <v>       3.60934112       0.00000000       0.00000000 </v>
    <v>       0.00000000       3.60934112       0.00000000 </v>
    <v>       0.00000000       0.00000000       3.60934112 </v>
   </varray>
   <i name="volume">     47.02012600 </i>
   <varray name="rec_basis" >
    <v>       0.27705888       0.00000000       0.00000000 </v>
    <v>       0.00000000       0.27705888       0.00000000 </v>
    <v>       0.00000000       0.00000000       0.27705888 </v>
   </varray>
  </crystal>
  <varray name="positions" >
   <v>       0.25000000       0.25000000       0.25000000 </v>
   <v>       0.00000000       0.00000000       0.00000000 </v>
   <v>       0.25000000       0.75000000       0.75000000 </v>
   <v>       0.00000000       0.50000000       0.50000000 </v>
   <v>       0.75000000       0.25000000       0.75000000 </v>
   <v>       0.50000000       0.00000000       0.50000000 </v>
   <v>       0.75000000       0.75000000       0.25000000 </v>
   <v>       0.50000000       0.50000000       0.00000000 </v>
  </varray>
 </structure>
 <calculation>
  <scstep>
   <time name="dav">    1.36    1.49</time>
   <time name="total">    1.40    1.58</time>
   <energy>
    <i name="alphaZ">     74.61757155 </i>
    <i name="ewald">  -1375.43107519 </i>
    <i name="hartreedc">    -73.12794012 </i>
    <i name="XCdc">     61.30186229 </i>
    <i name="pawpsdc">    914.77613359 </i>
    <i name="pawaedc">   -872.73161751 </i>
    <i name="eentropy">     -0.00149209 </i>
    <i name="bandstr">    193.77787607 </i>
    <i name="atom">   1177.21277265 </i>
    <i name="e_fr_energy">    100.39409125 </i>
    <i name="e_wo_entrp">    100.39558334 </i>
    <i name="e_0_energy">    100.39483729 </i>
   </energy>
  </scstep>
  <scstep>
   <time name="dav">    2.32    2.35</time>
   <time name="total">    2.32    2.35</time>
   <energy>
    <i name="e_fr_energy">    -72.15471701 </i>
    <i name="e_wo_entrp">    -72.15471701 </i>
    <i name="e_0_energy">    -72.15471701 </i>
   </energy>
  </scstep>
  <scstep>
   <time name="dav">    1.66    1.69</time>
   <time name="total">    1.66    1.69</time>
   <energy>
    <i name="e_fr_energy">    -74.98757182 </i>
    <i name="e_wo_entrp">    -74.98757182 </i>
    <i name="e_0_energy">    -74.98757182 </i>
   </energy>
  </scstep>
  <scstep>
   <time name="dav">    2.80    2.82</time>
   <time name="total">    2.80    2.82</time>
   <energy>
    <i name="e_fr_energy">    -75.00568977 </i>
    <i name="e_wo_entrp">    -75.00568977 </i>
    <i name="e_0_energy">    -75.00568977 </i>
   </energy>
  </scstep>
  <scstep>
   <time name="dav">    1.64    1.65</time>
   <time name="total">    1.72    1.78</time>
   <energy>
    <i name="e_fr_energy">    -75.00569260 </i>
    <i name="e_wo_entrp">    -75.00569260 </i>
    <i name="e_0_energy">    -75.00569260 </i>
   </energy>
  </scstep>
  <scstep>
   <time name="dav">    1.64    1.65</time>
   <time name="total">    1.74    1.76</time>
   <energy>
    <i name="e_fr_energy">    -73.34347419 </i>
    <i name="e_wo_entrp">    -73.34347419 </i>
    <i name="e_0_energy">    -73.34347419 </i>
   </energy>
  </scstep>
  <scstep>
   <time name="dav">    2.10    2.10</time>
   <time name="total">    2.18    2.21</time>
   <energy>
    <i name="e_fr_energy">    -72.78721862 </i>
    <i name="e_wo_entrp">    -72.78721862 </i>
    <i name="e_0_energy">    -72.78721862 </i>
   </energy>
  </scstep>
  <scstep>
   <time name="dav">    2.42    2.43</time>
   <time name="total">    2.52    2.53</time>
   <energy>
    <i name="e_fr_energy">    -72.78591549 </i>
    <i name="e_wo_entrp">    -72.78591549 </i>
    <i name="e_0_energy">    -72.78591549 </i>
   </energy>
  </scstep>
  <scstep>
   <time name="dav">    2.11    2.12</time>
   <time name="total">    2.20    2.22</time>
   <energy>
    <i name="e_fr_energy">    -72.78611764 </i>
    <i name="e_wo_entrp">    -72.78611764 </i>
    <i name="e_0_energy">    -72.78611764 </i>
   </energy>
  </scstep>
  <scstep>
   <time name="dav">    2.32    2.32</time>
   <time name="total">    2.40    2.42</time>
   <energy>
    <i name="e_fr_energy">    -72.78624207 </i>
    <i name="e_wo_entrp">    -72.78624207 </i>
    <i name="e_0_energy">    -72.78624207 </i>
   </energy>
  </scstep>
  <scstep>
   <time name="dav">    2.19    2.20</time>
   <time name="total">    2.28    2.29</time>
   <energy>
    <i name="e_fr_energy">    -72.78624315 </i>
    <i name="e_wo_entrp">    -72.78624315 </i>
    <i name="e_0_energy">    -72.78624315 </i>
   </energy>
  </scstep>
  <scstep>
   <time name="dav">    2.37    2.37</time>
   <time name="total">    2.45    2.47</time>
   <energy>
    <i name="e_fr_energy">    -72.78624352 </i>
    <i name="e_wo_entrp">    -72.78624352 </i>
    <i name="e_0_energy">    -72.78624352 </i>
   </energy>
  </scstep>
  <scstep>
   <time name="dav">    2.26    2.26</time>
   <time name="total">    2.34    2.35</time>
   <energy>
    <i name="e_fr_energy">    -72.78624353 </i>
    <i name="e_wo_entrp">    -72.78624353 </i>
    <i name="e_0_energy">    -72.78624353 </i>
   </energy>
  </scstep>
  <scstep>
   <time name="dav">    2.18    2.19</time>
   <time name="total">    2.19    2.21</time>
   <energy>
    <i name="alphaZ">     74.61757155 </i>
    <i name="ewald">  -1375.43107519 </i>
    <i name="hartreedc">   -107.27945766 </i>
    <i name="XCdc">     64.23668739 </i>
    <i name="pawpsdc">  13390.33155776 </i>
    <i name="pawaedc"> -13348.73872629 </i>
    <i name="eentropy">     -0.00000000 </i>
    <i name="bandstr">     52.26442625 </i>
    <i name="atom">   1177.21277265 </i>
    <i name="e_fr_energy">    -72.78624353 </i>
    <i name="e_wo_entrp">    -72.78624353 </i>
    <i name="e_0_energy">    -72.78624353 </i>
   </energy>
  </scstep>
  <structure>
   <crystal>
    <varray name="basis" >
     <v>       3.60934112       0.00000000       0.00000000 </v>
     <v>       0.00000000       3.60934112       0.00000000 </v>
     <v>       0.00000000       0.00000000       3.60934112 </v>
    </varray>
    <i name="volume">     47.02012600 </i>
    <varray name="rec_basis" >
     <v>       0.27705888       0.00000000       0.00000000 </v>
     <v>       0.00000000       0.27705888       0.00000000 </v>
     <v>       0.00000000       0.00000000       0.27705888 </v>
    </varray>
   </crystal>
   <varray name="positions" >
    <v>       0.25000000       0.25000000       0.25000000 </v>
    <v>       0.00000000       0.00000000       0.00000000 </v>
    <v>       0.25000000       0.75000000       0.75000000 </v>
    <v>       0.00000000       0.50000000       0.50000000 </v>
    <v>       0.75000000       0.25000000       0.75000000 </v>
    <v>       0.50000000       0.00000000       0.50000000 </v>
    <v>       0.75000000       0.75000000       0.25000000 </v>
    <v>       0.50000000       0.50000000       0.00000000 </v>
   </varray>
  </structure>
  <varray name="forces" >
   <v>      -0.00000000      -0.00000000      -0.00000000 </v>
   <v>       0.00000000       0.00000000       0.00000000 </v>
   <v>       0.00000000      -0.00000000       0.00000000 </v>
   <v>      -0.00000000      -0.00000000       0.00000000 </v>
   <v>       0.00000000       0.00000000      -0.00000000 </v>
   <v>       0.00000000       0.00000000      -0.00000000 </v>
   <v>      -0.00000000      -0.00000000       0.00000000 </v>
   <v>       0.00000000       0.00000000      -0.00000000 </v>
  </varray>
  <varray name="stress" >
   <v>    -135.01198725       0.00000000       0.00000000 </v>
   <v>       0.00000000    -135.01198725       0.00000000 </v>
   <v>      -0.00000000      -0.00000000    -135.01198725 </v>
  </varray>
  <energy>
   <i name="e_fr_energy">    -72.78624353 </i>
   <i name="e_wo_entrp">    -72.78624353 </i>
   <i name="e_0_energy">     -0.00000000 </i>
  </energy>
  <time name="totalsc">   31.85   32.42</time>
  <eigenvalues>
   <array>
    <dimension dim="1">band</dimension>
    <dimension dim="2">kpoint</dimension>
    <dimension dim="3">spin</dimension>
    <field>eigene</field>
    <field>occ</field>
    <set>
     <set comment="spin 1">
      <set comment="kpoint 1">
       <r>  -10.5768    1.0000 </r>
       <r>   -2.6602    1.0000 </r>
       <r>   -2.6602    1.0000 </r>
       <r>   -2.6602    1.0000 </r>
       <r>   -1.5513    1.0000 </r>
       <r>   -1.5513    1.0000 </r>
       <r>   -1.5513    1.0000 </r>
       <r>    4.1976    1.0000 </r>
       <r>    4.1976    1.0000 </r>
       <r>    4.1976    1.0000 </r>
       <r>    4.3364    1.0000 </r>
       <r>    4.3364    1.0000 </r>
       <r>    4.3364    1.0000 </r>
       <r>   10.1424    1.0000 </r>
       <r>   10.3280    1.0000 </r>
       <r>   10.3280    1.0000 </r>
       <r>   14.9980    0.0000 </r>
       <r>   14.9980    0.0000 </r>
       <r>   14.9980    0.0000 </r>
       <r>   15.3773    0.0000 </r>
       <r>   15.3773    0.0000 </r>
       <r>   15.3773    0.0000 </r>
       <r>   15.9727    0.0000 </r>
       <r>   15.9732    0.0000 </r>
      </set>
      <set comment="kpoint 2">
       <r>  -10.4849    1.0000 </r>
       <r>   -3.7217    1.0000 </r>
       <r>   -2.5987    1.0000 </r>
       <r>   -2.5987    1.0000 </r>
       <r>   -1.5028    1.0000 </r>
       <r>   -1.5028    1.0000 </r>
       <r>   -0.4070    1.0000 </r>
       <r>    3.8831    1.0000 </r>
       <r>    3.8831    1.0000 </r>
       <r>    4.2743    1.0000 </r>
       <r>    4.2743    1.0000 </r>
       <r>    4.2898    1.0000 </r>
       <r>    4.4254    1.0000 </r>
       <r>    9.7015    1.0000 </r>
       <r>    9.9801    1.0000 </r>
       <r>   10.2125    1.0000 </r>
       <r>   14.7635    0.0000 </r>
       <r>   15.2788    0.0000 </r>
       <r>   15.2788    0.0000 </r>
       <r>   15.8261    0.0000 </r>
       <r>   15.8267    0.0000 </r>
       <r>   15.8267    0.0000 </r>
       <r>   15.9045    0.0000 </r>
       <r>   16.3973    0.0000 </r>
      </set>
      <set comment="kpoint 3">
       <r>  -10.3013    1.0000 </r>
       <r>   -4.7261    1.0000 </r>
       <r>   -2.4803    1.0000 </r>
       <r>   -2.4803    1.0000 </r>
       <r>   -1.4124    1.0000 </r>
       <r>   -1.4124    1.0000 </r>
       <r>    0.7584    1.0000 </r>
       <r>    3.4568    1.0000 </r>
       <r>    3.4568    1.0000 </r>
       <r>    4.0389    1.0000 </r>
       <r>    4.0389    1.0000 </r>
       <r>    4.4745    1.0000 </r>
       <r>    4.6024    1.0000 </r>
       <r>    9.0863    1.0000 </r>
       <r>    9.4082    1.0000 </r>
       <r>    9.8397    1.0000 </r>
       <r>   14.6148    0.0000 </r>
       <r>   15.7672    0.0000 </r>
       <r>   15.8734    0.0000 </r>
       <r>   15.8734    0.0000 </r>
       <r>   16.4022    0.0000 </r>
       <r>   16.6019    0.0000 </r>
       <r>   16.6019    0.0000 </r>
       <r>   17.1250    0.0000 </r>
      </set>
      <set comment="kpoint 4">
       <r>  -10.0267    1.0000 </r>
       <r>   -5.6655    1.0000 </r>
       <r>   -2.3155    1.0000 </r>
       <r>   -2.3155    1.0000 </r>
       <r>   -1.2949    1.0000 </r>
       <r>   -1.2949    1.0000 </r>
       <r>    1.9275    1.0000 </r>
       <r>    2.9957    1.0000 </r>
       <r>    2.9957    1.0000 </r>
       <r>    3.6962    1.0000 </r>
       <r>    3.6962    1.0000 </r>
       <r>    4.7520    1.0000 </r>
       <r>    4.8664    1.0000 </r>
       <r>    8.3842    1.0000 </r>
       <r>    8.7351    1.0000 </r>
       <r>    9.2662    1.0000 </r>
       <r>   14.5500    0.0000 </r>
       <r>   15.5823    0.0000 </r>
       <r>   16.7393    0.0000 </r>
       <r>   16.7393    0.0000 </r>
       <r>   17.1047    0.0000 </r>
       <r>   17.6053    0.0000 </r>
       <r>   17.6053    0.0000 </r>
       <r>   18.0159    0.0000 </r>
      </set>
      <set comment="kpoint 5">
       <r>   -9.6616    1.0000 </r>
       <r>   -6.5337    1.0000 </r>
       <r>   -2.1243    1.0000 </r>
       <r>   -2.1243    1.0000 </r>
       <r>   -1.1744    1.0000 </r>
       <r>   -1.1744    1.0000 </r>
       <r>    2.5735    1.0000 </r>
       <r>    2.5735    1.0000 </r>
       <r>    3.0794    1.0000 </r>
       <r>    3.3248    1.0000 </r>
       <r>    3.3248    1.0000 </r>
       <r>    5.1249    1.0000 </r>
       <r>    5.2149    1.0000 </r>
       <r>    7.6490    1.0000 </r>
       <r>    8.0380    1.0000 </r>
       <r>    8.5481    1.0000 </r>
       <r>   14.5607    0.0000 </r>
       <r>   15.3704    0.0000 </r>
       <r>   17.8048    0.0000 </r>
       <r>   17.8048    0.0000 </r>
       <r>   17.9340    0.0000 </r>
       <r>   18.7579    0.0000 </r>
       <r>   18.7579    0.0000 </r>
       <r>   18.9981    0.0000 </r>
      </set>
      <set comment="kpoint 6">
       <r>   -9.2073    1.0000 </r>
       <r>   -7.3255    1.0000 </r>
       <r>   -1.9419    1.0000 </r>
       <r>   -1.9419    1.0000 </r>
       <r>   -1.0812    1.0000 </r>
       <r>   -1.0812    1.0000 </r>
       <r>    2.2559    1.0000 </r>
       <r>    2.2559    1.0000 </r>
       <r>    3.0047    1.0000 </r>
       <r>    3.0047    1.0000 </r>
       <r>    4.1864    1.0000 </r>
       <r>    5.5995    1.0000 </r>
       <r>    5.6444    1.0000 </r>
       <r>    6.8988    1.0000 </r>
       <r>    7.3599    1.0000 </r>
       <r>    7.7418    1.0000 </r>
       <r>   14.6378    0.0000 </r>
       <r>   15.1522    0.0000 </r>
       <r>   18.8815    0.0000 </r>
       <r>   18.9895    0.0000 </r>
       <r>   18.9895    0.0000 </r>
       <r>   19.9721    0.0000 </r>
       <r>   20.0291    0.0000 </r>
       <r>   20.0483    0.0000 </r>
      </set>
      <set comment="kpoint 7">
       <r>   -8.6651    1.0000 </r>
       <r>   -8.0371    1.0000 </r>
       <r>   -1.8232    1.0000 </r>
       <r>   -1.8232    1.0000 </r>
       <r>   -1.0357    1.0000 </r>
       <r>   -1.0357    1.0000 </r>
       <r>    2.0889    1.0000 </r>
       <r>    2.0889    1.0000 </r>
       <r>    2.8148    1.0000 </r>
       <r>    2.8148    1.0000 </r>
       <r>    5.2092    1.0000 </r>
       <r>    6.1072    1.0000 </r>
       <r>    6.1502    1.0000 </r>
       <r>    6.1938    1.0000 </r>
       <r>    6.7254    1.0000 </r>
       <r>    6.9236    1.0000 </r>
       <r>   14.7704    0.0000 </r>
       <r>   14.9467    0.0000 </r>
       <r>   19.9208    0.0000 </r>
       <r>   20.1522    0.0000 </r>
       <r>   20.1522    0.0000 </r>
       <r>   20.9586    0.0000 </r>
       <r>   20.9683    0.0000 </r>
       <r>   20.9800    0.0000 </r>
      </set>
      <set comment="kpoint 8">
       <r>  -10.3931    1.0000 </r>
       <r>   -3.6509    1.0000 </r>
       <r>   -3.6509    1.0000 </r>
       <r>   -2.5438    1.0000 </r>
       <r>   -1.4577    1.0000 </r>
       <r>   -0.3800    1.0000 </r>
       <r>   -0.3800    1.0000 </r>
       <r>    3.3794    1.0000 </r>
       <r>    3.9832    1.0000 </r>
       <r>    3.9832    1.0000 </r>
       <r>    4.3678    1.0000 </r>
       <r>    4.3678    1.0000 </r>
       <r>    4.4880    1.0000 </r>
       <r>    9.1636    1.0000 </r>
       <r>    9.7111    1.0000 </r>
       <r>   10.2193    1.0000 </r>
       <r>   15.1020    0.0000 </r>
       <r>   15.1020    0.0000 </r>
       <r>   15.2397    0.0000 </r>
       <r>   16.1510    0.0000 </r>
       <r>   16.2140    0.0000 </r>
       <r>   16.2140    0.0000 </r>
       <r>   16.4985    0.0000 </r>
       <r>   16.5170    0.0000 </r>
      </set>
      <set comment="kpoint 9">
       <r>  -10.2098    1.0000 </r>
       <r>   -4.6491    1.0000 </r>
       <r>   -3.5122    1.0000 </r>
       <r>   -2.4422    1.0000 </r>
       <r>   -1.3738    1.0000 </r>
       <r>   -0.3374    1.0000 </r>
       <r>    0.7511    1.0000 </r>
       <r>    2.8410    1.0000 </r>
       <r>    3.5659    1.0000 </r>
       <r>    4.1509    1.0000 </r>
       <r>    4.1845    1.0000 </r>
       <r>    4.5013    1.0000 </r>
       <r>    4.5565    1.0000 </r>
       <r>    8.4941    1.0000 </r>
       <r>    9.1665    1.0000 </r>
       <r>   10.0062    1.0000 </r>
       <r>   14.9735    0.0000 </r>
       <r>   15.5453    0.0000 </r>
       <r>   15.7497    0.0000 </r>
       <r>   16.1095    0.0000 </r>
       <r>   16.7625    0.0000 </r>
       <r>   16.9282    0.0000 </r>
       <r>   17.1161    0.0000 </r>
       <r>   17.2843    0.0000 </r>
      </set>
      <set comment="kpoint 10">
       <r>   -9.9354    1.0000 </r>
       <r>   -5.5843    1.0000 </r>
       <r>   -3.3118    1.0000 </r>
       <r>   -2.3148    1.0000 </r>
       <r>   -1.2622    1.0000 </r>
       <r>   -0.3033    1.0000 </r>
       <r>    1.8637    1.0000 </r>
       <r>    2.3464    1.0000 </r>
       <r>    3.1089    1.0000 </r>
       <r>    3.8501    1.0000 </r>
       <r>    4.3421    1.0000 </r>
       <r>    4.4886    1.0000 </r>
       <r>    4.8456    1.0000 </r>
       <r>    7.7659    1.0000 </r>
       <r>    8.5114    1.0000 </r>
       <r>    9.5522    1.0000 </r>
       <r>   14.9191    0.0000 </r>
       <r>   15.9433    0.0000 </r>
       <r>   16.1856    0.0000 </r>
       <r>   16.6517    0.0000 </r>
       <r>   17.4432    0.0000 </r>
       <r>   17.8826    0.0000 </r>
       <r>   17.9908    0.0000 </r>
       <r>   18.0334    0.0000 </r>
      </set>
      <set comment="kpoint 11">
       <r>   -9.5709    1.0000 </r>
       <r>   -6.4494    1.0000 </r>
       <r>   -3.0614    1.0000 </r>
       <r>   -2.2039    1.0000 </r>
       <r>   -1.1314    1.0000 </r>
       <r>   -0.3133    1.0000 </r>
       <r>    1.9723    1.0000 </r>
       <r>    2.6710    1.0000 </r>
       <r>    2.9226    1.0000 </r>
       <r>    3.5613    1.0000 </r>
       <r>    4.0751    1.0000 </r>
       <r>    4.8923    1.0000 </r>
       <r>    5.2507    1.0000 </r>
       <r>    7.0195    1.0000 </r>
       <r>    7.8250    1.0000 </r>
       <r>    8.9131    1.0000 </r>
       <r>   14.9360    0.0000 </r>
       <r>   15.7401    0.0000 </r>
       <r>   17.0926    0.0000 </r>
       <r>   17.7410    0.0000 </r>
       <r>   18.2512    0.0000 </r>
       <r>   18.9033    0.0000 </r>
       <r>   18.9805    0.0000 </r>
       <r>   18.9874    0.0000 </r>
      </set>
      <set comment="kpoint 12">
       <r>   -9.1172    1.0000 </r>
       <r>   -7.2391    1.0000 </r>
       <r>   -2.7809    1.0000 </r>
       <r>   -2.1764    1.0000 </r>
       <r>   -0.9738    1.0000 </r>
       <r>   -0.4008    1.0000 </r>
       <r>    1.7821    1.0000 </r>
       <r>    2.2878    1.0000 </r>
       <r>    3.3803    1.0000 </r>
       <r>    3.7758    1.0000 </r>
       <r>    3.8887    1.0000 </r>
       <r>    5.3778    1.0000 </r>
       <r>    5.8031    1.0000 </r>
       <r>    6.2734    1.0000 </r>
       <r>    7.1508    1.0000 </r>
       <r>    8.1503    1.0000 </r>
       <r>   15.0163    0.0000 </r>
       <r>   15.5273    0.0000 </r>
       <r>   18.1812    0.0000 </r>
       <r>   18.9438    0.0000 </r>
       <r>   19.1767    0.0000 </r>
       <r>   19.8488    0.0000 </r>
       <r>   20.0224    0.0000 </r>
       <r>   20.1068    0.0000 </r>
      </set>
      <set comment="kpoint 13">
       <r>   -8.5759    1.0000 </r>
       <r>   -7.9490    1.0000 </r>
       <r>   -2.5040    1.0000 </r>
       <r>   -2.2827    1.0000 </r>
       <r>   -0.7778    1.0000 </r>
       <r>   -0.5687    1.0000 </r>
       <r>    1.7967    1.0000 </r>
       <r>    1.9833    1.0000 </r>
       <r>    3.3677    1.0000 </r>
       <r>    3.5172    1.0000 </r>
       <r>    4.7458    1.0000 </r>
       <r>    5.5248    1.0000 </r>
       <r>    5.9203    1.0000 </r>
       <r>    6.5122    1.0000 </r>
       <r>    6.5143    1.0000 </r>
       <r>    7.3259    1.0000 </r>
       <r>   15.1499    0.0000 </r>
       <r>   15.3249    0.0000 </r>
       <r>   19.3424    0.0000 </r>
       <r>   20.0313    0.0000 </r>
       <r>   20.1912    0.0000 </r>
       <r>   20.6308    0.0000 </r>
       <r>   20.8199    0.0000 </r>
       <r>   21.0779    0.0000 </r>
      </set>
      <set comment="kpoint 14">
       <r>  -10.0269    1.0000 </r>
       <r>   -4.4971    1.0000 </r>
       <r>   -4.4971    1.0000 </r>
       <r>   -2.3842    1.0000 </r>
       <r>   -1.2998    1.0000 </r>
       <r>    0.7190    1.0000 </r>
       <r>    0.7190    1.0000 </r>
       <r>    2.2670    1.0000 </r>
       <r>    3.7823    1.0000 </r>
       <r>    3.7823    1.0000 </r>
       <r>    4.3850    1.0000 </r>
       <r>    4.3850    1.0000 </r>
       <r>    4.7861    1.0000 </r>
       <r>    7.7949    1.0000 </r>
       <r>    8.6511    1.0000 </r>
       <r>    9.9918    1.0000 </r>
       <r>   15.5491    0.0000 </r>
       <r>   15.6482    0.0000 </r>
       <r>   15.6482    0.0000 </r>
       <r>   16.5067    0.0000 </r>
       <r>   17.2944    0.0000 </r>
       <r>   17.4340    0.0000 </r>
       <r>   17.4340    0.0000 </r>
       <r>   17.6110    0.0000 </r>
      </set>
      <set comment="kpoint 15">
       <r>   -9.7532    1.0000 </r>
       <r>   -5.4231    1.0000 </r>
       <r>   -4.2740    1.0000 </r>
       <r>   -2.3500    1.0000 </r>
       <r>   -1.1890    1.0000 </r>
       <r>    0.6308    1.0000 </r>
       <r>    1.7174    1.0000 </r>
       <r>    1.8162    1.0000 </r>
       <r>    3.3255    1.0000 </r>
       <r>    4.0988    1.0000 </r>
       <r>    4.1798    1.0000 </r>
       <r>    4.7642    1.0000 </r>
       <r>    4.8708    1.0000 </r>
       <r>    7.0565    1.0000 </r>
       <r>    8.0197    1.0000 </r>
       <r>    9.7146    1.0000 </r>
       <r>   15.6078    0.0000 </r>
       <r>   15.9147    0.0000 </r>
       <r>   16.5313    0.0000 </r>
       <r>   16.5731    0.0000 </r>
       <r>   17.9906    0.0000 </r>
       <r>   18.0770    0.0000 </r>
       <r>   18.1175    0.0000 </r>
       <r>   18.3389    0.0000 </r>
      </set>
      <set comment="kpoint 16">
       <r>   -9.3896    1.0000 </r>
       <r>   -6.2818    1.0000 </r>
       <r>   -3.9872    1.0000 </r>
       <r>   -2.4075    1.0000 </r>
       <r>   -1.0243    1.0000 </r>
       <r>    0.4554    1.0000 </r>
       <r>    1.5596    1.0000 </r>
       <r>    2.6212    1.0000 </r>
       <r>    2.8564    1.0000 </r>
       <r>    4.0411    1.0000 </r>
       <r>    4.4983    1.0000 </r>
       <r>    4.7836    1.0000 </r>
       <r>    5.3162    1.0000 </r>
       <r>    6.3128    1.0000 </r>
       <r>    7.3518    1.0000 </r>
       <r>    9.2033    1.0000 </r>
       <r>   15.6313    0.0000 </r>
       <r>   16.3832    0.0000 </r>
       <r>   16.6051    0.0000 </r>
       <r>   17.6787    0.0000 </r>
       <r>   18.7736    0.0000 </r>
       <r>   18.8464    0.0000 </r>
       <r>   18.9463    0.0000 </r>
       <r>   19.3745    0.0000 </r>
      </set>
      <set comment="kpoint 17">
       <r>   -8.9373    1.0000 </r>
       <r>   -7.0669    1.0000 </r>
       <r>   -3.6489    1.0000 </r>
       <r>   -2.6029    1.0000 </r>
       <r>   -0.7854    1.0000 </r>
       <r>    0.1880    1.0000 </r>
       <r>    1.5277    1.0000 </r>
       <r>    2.4051    1.0000 </r>
       <r>    3.4230    1.0000 </r>
       <r>    4.0306    1.0000 </r>
       <r>    4.5876    1.0000 </r>
       <r>    4.9636    1.0000 </r>
       <r>    5.5811    1.0000 </r>
       <r>    6.0359    1.0000 </r>
       <r>    6.6921    1.0000 </r>
       <r>    8.5155    1.0000 </r>
       <r>   15.7127    0.0000 </r>
       <r>   16.1962    0.0000 </r>
       <r>   17.5444    0.0000 </r>
       <r>   18.8927    0.0000 </r>
       <r>   19.5422    0.0000 </r>
       <r>   19.7300    0.0000 </r>
       <r>   19.9896    0.0000 </r>
       <r>   20.2528    0.0000 </r>
      </set>
      <set comment="kpoint 18">
       <r>   -8.3979    1.0000 </r>
       <r>   -7.7734    1.0000 </r>
       <r>   -3.2796    1.0000 </r>
       <r>   -2.9135    1.0000 </r>
       <r>   -0.4794    1.0000 </r>
       <r>   -0.1397    1.0000 </r>
       <r>    1.6939    1.0000 </r>
       <r>    2.0038    1.0000 </r>
       <r>    4.1487    1.0000 </r>
       <r>    4.1563    1.0000 </r>
       <r>    4.3539    1.0000 </r>
       <r>    4.8658    1.0000 </r>
       <r>    5.4872    1.0000 </r>
       <r>    6.0658    1.0000 </r>
       <r>    6.8626    1.0000 </r>
       <r>    7.7137    1.0000 </r>
       <r>   15.8426    0.0000 </r>
       <r>   16.0089    0.0000 </r>
       <r>   18.6350    0.0000 </r>
       <r>   19.6630    0.0000 </r>
       <r>   20.3268    0.0000 </r>
       <r>   20.3813    0.0000 </r>
       <r>   20.6977    0.0000 </r>
       <r>   21.0618    0.0000 </r>
      </set>
      <set comment="kpoint 19">
       <r>   -9.4807    1.0000 </r>
       <r>   -5.1847    1.0000 </r>
       <r>   -5.1847    1.0000 </r>
       <r>   -2.4857    1.0000 </r>
       <r>   -1.0535    1.0000 </r>
       <r>    1.4689    1.0000 </r>
       <r>    1.4689    1.0000 </r>
       <r>    1.4828    1.0000 </r>
       <r>    3.6282    1.0000 </r>
       <r>    3.6282    1.0000 </r>
       <r>    4.7101    1.0000 </r>
       <r>    4.7101    1.0000 </r>
       <r>    5.2201    1.0000 </r>
       <r>    6.3201    1.0000 </r>
       <r>    7.4104    1.0000 </r>
       <r>    9.6332    1.0000 </r>
       <r>   15.9855    0.0000 </r>
       <r>   16.5433    0.0000 </r>
       <r>   16.5433    0.0000 </r>
       <r>   17.0374    0.0000 </r>
       <r>   18.2314    0.0000 </r>
       <r>   18.3296    0.0000 </r>
       <r>   18.9300    0.0000 </r>
       <r>   18.9300    0.0000 </r>
      </set>
      <set comment="kpoint 20">
       <r>   -9.1186    1.0000 </r>
       <r>   -6.0328    1.0000 </r>
       <r>   -4.8740    1.0000 </r>
       <r>   -2.7643    1.0000 </r>
       <r>   -0.8328    1.0000 </r>
       <r>    1.1216    1.0000 </r>
       <r>    1.3832    1.0000 </r>
       <r>    2.2060    1.0000 </r>
       <r>    3.1218    1.0000 </r>
       <r>    4.0025    1.0000 </r>
       <r>    4.7384    1.0000 </r>
       <r>    5.3690    1.0000 </r>
       <r>    5.4285    1.0000 </r>
       <r>    5.5866    1.0000 </r>
       <r>    6.7614    1.0000 </r>
       <r>    9.2930    1.0000 </r>
       <r>   16.4068    0.0000 </r>
       <r>   16.5682    0.0000 </r>
       <r>   17.1417    0.0000 </r>
       <r>   17.6529    0.0000 </r>
       <r>   18.6940    0.0000 </r>
       <r>   18.9728    0.0000 </r>
       <r>   19.6378    0.0000 </r>
       <r>   19.8607    0.0000 </r>
      </set>
      <set comment="kpoint 21">
       <r>   -8.6684    1.0000 </r>
       <r>   -6.8103    1.0000 </r>
       <r>   -4.4987    1.0000 </r>
       <r>   -3.1607    1.0000 </r>
       <r>   -0.5260    1.0000 </r>
       <r>    0.7081    1.0000 </r>
       <r>    1.4959    1.0000 </r>
       <r>    2.6199    1.0000 </r>
       <r>    2.8768    1.0000 </r>
       <r>    4.4427    1.0000 </r>
       <r>    4.8537    1.0000 </r>
       <r>    4.8729    1.0000 </r>
       <r>    5.3455    1.0000 </r>
       <r>    6.1181    1.0000 </r>
       <r>    6.2705    1.0000 </r>
       <r>    8.7278    1.0000 </r>
       <r>   16.6431    0.0000 </r>
       <r>   17.0436    0.0000 </r>
       <r>   17.1346    0.0000 </r>
       <r>   18.8629    0.0000 </r>
       <r>   19.2048    0.0000 </r>
       <r>   19.9724    0.0000 </r>
       <r>   20.1391    0.0000 </r>
       <r>   20.4264    0.0000 </r>
      </set>
      <set comment="kpoint 22">
       <r>   -8.1319    1.0000 </r>
       <r>   -7.5115    1.0000 </r>
       <r>   -4.0717    1.0000 </r>
       <r>   -3.6142    1.0000 </r>
       <r>   -0.1499    1.0000 </r>
       <r>    0.2715    1.0000 </r>
       <r>    1.7703    1.0000 </r>
       <r>    2.1579    1.0000 </r>
       <r>    3.5267    1.0000 </r>
       <r>    4.1869    1.0000 </r>
       <r>    4.9460    1.0000 </r>
       <r>    5.0264    1.0000 </r>
       <r>    5.2096    1.0000 </r>
       <r>    5.5076    1.0000 </r>
       <r>    7.1511    1.0000 </r>
       <r>    7.9928    1.0000 </r>
       <r>   16.7583    0.0000 </r>
       <r>   16.8994    0.0000 </r>
       <r>   18.0861    0.0000 </r>
       <r>   19.1369    0.0000 </r>
       <r>   19.8275    0.0000 </r>
       <r>   20.2045    0.0000 </r>
       <r>   20.5100    0.0000 </r>
       <r>   21.0489    0.0000 </r>
      </set>
      <set comment="kpoint 23">
       <r>   -8.7588    1.0000 </r>
       <r>   -5.7058    1.0000 </r>
       <r>   -5.7058    1.0000 </r>
       <r>   -3.2433    1.0000 </r>
       <r>   -0.5542    1.0000 </r>
       <r>    1.4271    1.0000 </r>
       <r>    1.7204    1.0000 </r>
       <r>    1.7204    1.0000 </r>
       <r>    3.4634    1.0000 </r>
       <r>    3.4634    1.0000 </r>
       <r>    4.8679    1.0000 </r>
       <r>    5.5813    1.0000 </r>
       <r>    5.5813    1.0000 </r>
       <r>    5.7723    1.0000 </r>
       <r>    6.1293    1.0000 </r>
       <r>    9.1410    1.0000 </r>
       <r>   16.5388    0.0000 </r>
       <r>   17.6707    0.0000 </r>
       <r>   17.6707    0.0000 </r>
       <r>   17.7370    0.0000 </r>
       <r>   18.7316    0.0000 </r>
       <r>   19.2727    0.0000 </r>
       <r>   20.3149    0.0000 </r>
       <r>   20.3149    0.0000 </r>
      </set>
      <set comment="kpoint 24">
       <r>   -8.3118    1.0000 </r>
       <r>   -6.4720    1.0000 </r>
       <r>   -5.3060    1.0000 </r>
       <r>   -3.7820    1.0000 </r>
       <r>   -0.1972    1.0000 </r>
       <r>    1.2070    1.0000 </r>
       <r>    1.6440    1.0000 </r>
       <r>    2.2987    1.0000 </r>
       <r>    2.9261    1.0000 </r>
       <r>    3.8782    1.0000 </r>
       <r>    4.1736    1.0000 </r>
       <r>    5.5017    1.0000 </r>
       <r>    5.7528    1.0000 </r>
       <r>    5.9745    1.0000 </r>
       <r>    6.4806    1.0000 </r>
       <r>    8.7430    1.0000 </r>
       <r>   17.0014    0.0000 </r>
       <r>   17.7272    0.0000 </r>
       <r>   17.9251    0.0000 </r>
       <r>   18.8605    0.0000 </r>
       <r>   18.9192    0.0000 </r>
       <r>   19.7298    0.0000 </r>
       <r>   20.0463    0.0000 </r>
       <r>   20.2031    0.0000 </r>
      </set>
      <set comment="kpoint 25">
       <r>   -7.7795    1.0000 </r>
       <r>   -7.1650    1.0000 </r>
       <r>   -4.8419    1.0000 </r>
       <r>   -4.3266    1.0000 </r>
       <r>    0.2259    1.0000 </r>
       <r>    0.7003    1.0000 </r>
       <r>    1.9881    1.0000 </r>
       <r>    2.4249    1.0000 </r>
       <r>    2.8904    1.0000 </r>
       <r>    3.5135    1.0000 </r>
       <r>    4.3617    1.0000 </r>
       <r>    4.9066    1.0000 </r>
       <r>    5.9088    1.0000 </r>
       <r>    6.0017    1.0000 </r>
       <r>    7.3542    1.0000 </r>
       <r>    8.1297    1.0000 </r>
       <r>   17.7447    0.0000 </r>
       <r>   17.8098    0.0000 </r>
       <r>   17.8945    0.0000 </r>
       <r>   18.6780    0.0000 </r>
       <r>   19.2559    0.0000 </r>
       <r>   19.7117    0.0000 </r>
       <r>   20.1386    0.0000 </r>
       <r>   21.0719    0.0000 </r>
      </set>
      <set comment="kpoint 26">
       <r>   -7.8691    1.0000 </r>
       <r>   -6.0555    1.0000 </r>
       <r>   -6.0555    1.0000 </r>
       <r>   -4.4118    1.0000 </r>
       <r>    0.1986    1.0000 </r>
       <r>    1.7212    1.0000 </r>
       <r>    1.7212    1.0000 </r>
       <r>    1.9285    1.0000 </r>
       <r>    3.3157    1.0000 </r>
       <r>    3.3157    1.0000 </r>
       <r>    3.5000    1.0000 </r>
       <r>    4.8890    1.0000 </r>
       <r>    6.4178    1.0000 </r>
       <r>    6.6413    1.0000 </r>
       <r>    6.6413    1.0000 </r>
       <r>    8.5323    1.0000 </r>
       <r>   17.1770    0.0000 </r>
       <r>   18.5948    0.0000 </r>
       <r>   18.7552    0.0000 </r>
       <r>   18.8757    0.0000 </r>
       <r>   18.8757    0.0000 </r>
       <r>   19.2944    0.0000 </r>
       <r>   19.2944    0.0000 </r>
       <r>   20.4090    0.0000 </r>
      </set>
      <set comment="kpoint 27">
       <r>   -7.3429    1.0000 </r>
       <r>   -6.7367    1.0000 </r>
       <r>   -5.5666    1.0000 </r>
       <r>   -5.0141    1.0000 </r>
       <r>    0.6565    1.0000 </r>
       <r>    1.1681    1.0000 </r>
       <r>    2.2708    1.0000 </r>
       <r>    2.3176    1.0000 </r>
       <r>    2.7873    1.0000 </r>
       <r>    2.8638    1.0000 </r>
       <r>    3.7798    1.0000 </r>
       <r>    4.3086    1.0000 </r>
       <r>    6.6572    1.0000 </r>
       <r>    6.7160    1.0000 </r>
       <r>    7.4426    1.0000 </r>
       <r>    8.0902    1.0000 </r>
       <r>   17.6541    0.0000 </r>
       <r>   18.3777    0.0000 </r>
       <r>   18.7518    0.0000 </r>
       <r>   18.8656    0.0000 </r>
       <r>   18.8716    0.0000 </r>
       <r>   18.9842    0.0000 </r>
       <r>   20.0738    0.0000 </r>
       <r>   21.1300    0.0000 </r>
      </set>
      <set comment="kpoint 28">
       <r>   -6.8252    1.0000 </r>
       <r>   -6.2309    1.0000 </r>
       <r>   -6.2309    1.0000 </r>
       <r>   -5.6536    1.0000 </r>
       <r>    1.1438    1.0000 </r>
       <r>    1.6845    1.0000 </r>
       <r>    1.6845    1.0000 </r>
       <r>    2.2511    1.0000 </r>
       <r>    2.7378    1.0000 </r>
       <r>    3.2312    1.0000 </r>
       <r>    3.2312    1.0000 </r>
       <r>    3.7433    1.0000 </r>
       <r>    7.1223    1.0000 </r>
       <r>    7.3782    1.0000 </r>
       <r>    7.3782    1.0000 </r>
       <r>    7.8435    1.0000 </r>
       <r>   17.8384    0.0000 </r>
       <r>   18.2835    0.0000 </r>
       <r>   18.2835    0.0000 </r>
       <r>   18.4153    0.0000 </r>
       <r>   19.5945    0.0000 </r>
       <r>   19.9433    0.0000 </r>
       <r>   19.9433    0.0000 </r>
       <r>   20.7102    0.0000 </r>
      </set>
      <set comment="kpoint 29">
       <r>  -10.3014    1.0000 </r>
       <r>   -3.5829    1.0000 </r>
       <r>   -3.5829    1.0000 </r>
       <r>   -3.5829    1.0000 </r>
       <r>   -0.3656    1.0000 </r>
       <r>   -0.3656    1.0000 </r>
       <r>   -0.3656    1.0000 </r>
       <r>    3.5029    1.0000 </r>
       <r>    3.5029    1.0000 </r>
       <r>    3.5029    1.0000 </r>
       <r>    4.5753    1.0000 </r>
       <r>    4.5753    1.0000 </r>
       <r>    4.5753    1.0000 </r>
       <r>    8.5619    1.0000 </r>
       <r>    9.9061    1.0000 </r>
       <r>    9.9061    1.0000 </r>
       <r>   15.1888    0.0000 </r>
       <r>   15.1888    0.0000 </r>
       <r>   15.1888    0.0000 </r>
       <r>   16.5280    0.0000 </r>
       <r>   16.5280    0.0000 </r>
       <r>   16.7752    0.0000 </r>
       <r>   16.7752    0.0000 </r>
       <r>   16.7752    0.0000 </r>
      </set>
      <set comment="kpoint 30">
       <r>  -10.1183    1.0000 </r>
       <r>   -4.5737    1.0000 </r>
       <r>   -3.4509    1.0000 </r>
       <r>   -3.4509    1.0000 </r>
       <r>   -0.3530    1.0000 </r>
       <r>   -0.3530    1.0000 </r>
       <r>    0.7163    1.0000 </r>
       <r>    3.0006    1.0000 </r>
       <r>    3.0006    1.0000 </r>
       <r>    3.7594    1.0000 </r>
       <r>    4.5918    1.0000 </r>
       <r>    4.5918    1.0000 </r>
       <r>    4.7493    1.0000 </r>
       <r>    7.8513    1.0000 </r>
       <r>    9.3802    1.0000 </r>
       <r>    9.8300    1.0000 </r>
       <r>   15.1430    0.0000 </r>
       <r>   15.5461    0.0000 </r>
       <r>   15.5461    0.0000 </r>
       <r>   16.4239    0.0000 </r>
       <r>   17.1818    0.0000 </r>
       <r>   17.2348    0.0000 </r>
       <r>   17.3181    0.0000 </r>
       <r>   17.6628    0.0000 </r>
      </set>
      <set comment="kpoint 31">
       <r>   -9.8443    1.0000 </r>
       <r>   -5.5039    1.0000 </r>
       <r>   -3.2644    1.0000 </r>
       <r>   -3.2644    1.0000 </r>
       <r>   -0.3740    1.0000 </r>
       <r>   -0.3740    1.0000 </r>
       <r>    1.7445    1.0000 </r>
       <r>    2.5636    1.0000 </r>
       <r>    2.5636    1.0000 </r>
       <r>    4.1704    1.0000 </r>
       <r>    4.4461    1.0000 </r>
       <r>    4.4461    1.0000 </r>
       <r>    5.0081    1.0000 </r>
       <r>    7.1026    1.0000 </r>
       <r>    8.7491    1.0000 </r>
       <r>    9.4764    1.0000 </r>
       <r>   15.1391    0.0000 </r>
       <r>   16.2085    0.0000 </r>
       <r>   16.2085    0.0000 </r>
       <r>   16.2525    0.0000 </r>
       <r>   17.8558    0.0000 </r>
       <r>   17.9968    0.0000 </r>
       <r>   18.0038    0.0000 </r>
       <r>   18.7418    0.0000 </r>
      </set>
      <set comment="kpoint 32">
       <r>   -9.4802    1.0000 </r>
       <r>   -6.3657    1.0000 </r>
       <r>   -3.0425    1.0000 </r>
       <r>   -3.0425    1.0000 </r>
       <r>   -0.4624    1.0000 </r>
       <r>   -0.4624    1.0000 </r>
       <r>    2.2637    1.0000 </r>
       <r>    2.2637    1.0000 </r>
       <r>    2.6711    1.0000 </r>
       <r>    4.2084    1.0000 </r>
       <r>    4.2084    1.0000 </r>
       <r>    4.7620    1.0000 </r>
       <r>    5.3494    1.0000 </r>
       <r>    6.3518    1.0000 </r>
       <r>    8.0860    1.0000 </r>
       <r>    8.8965    1.0000 </r>
       <r>   15.1887    0.0000 </r>
       <r>   16.0480    0.0000 </r>
       <r>   17.1241    0.0000 </r>
       <r>   17.1241    0.0000 </r>
       <r>   18.6188    0.0000 </r>
       <r>   18.8344    0.0000 </r>
       <r>   18.9202    0.0000 </r>
       <r>   19.9227    0.0000 </r>
      </set>
      <set comment="kpoint 33">
       <r>   -9.0272    1.0000 </r>
       <r>   -7.1530    1.0000 </r>
       <r>   -2.8232    1.0000 </r>
       <r>   -2.8232    1.0000 </r>
       <r>   -0.6108    1.0000 </r>
       <r>   -0.6108    1.0000 </r>
       <r>    2.1219    1.0000 </r>
       <r>    2.1219    1.0000 </r>
       <r>    3.4779    1.0000 </r>
       <r>    3.9657    1.0000 </r>
       <r>    3.9657    1.0000 </r>
       <r>    5.5285    1.0000 </r>
       <r>    5.6178    1.0000 </r>
       <r>    5.7692    1.0000 </r>
       <r>    7.4345    1.0000 </r>
       <r>    8.1526    1.0000 </r>
       <r>   15.2910    0.0000 </r>
       <r>   15.8323    0.0000 </r>
       <r>   18.2113    0.0000 </r>
       <r>   18.2113    0.0000 </r>
       <r>   19.5058    0.0000 </r>
       <r>   19.7713    0.0000 </r>
       <r>   19.8861    0.0000 </r>
       <r>   21.0408    0.0000 </r>
      </set>
      <set comment="kpoint 34">
       <r>   -8.4869    1.0000 </r>
       <r>   -7.8612    1.0000 </r>
       <r>   -2.6747    1.0000 </r>
       <r>   -2.6747    1.0000 </r>
       <r>   -0.7367    1.0000 </r>
       <r>   -0.7367    1.0000 </r>
       <r>    2.0860    1.0000 </r>
       <r>    2.0860    1.0000 </r>
       <r>    3.8093    1.0000 </r>
       <r>    3.8093    1.0000 </r>
       <r>    4.2040    1.0000 </r>
       <r>    4.9055    1.0000 </r>
       <r>    6.2624    1.0000 </r>
       <r>    6.4042    1.0000 </r>
       <r>    6.8211    1.0000 </r>
       <r>    7.3024    1.0000 </r>
       <r>   15.4395    0.0000 </r>
       <r>   15.6242    0.0000 </r>
       <r>   19.3253    0.0000 </r>
       <r>   19.3253    0.0000 </r>
       <r>   20.4807    0.0000 </r>
       <r>   20.7482    0.0000 </r>
       <r>   20.8734    0.0000 </r>
       <r>   20.8779    0.0000 </r>
      </set>
      <set comment="kpoint 35">
       <r>   -9.9357    1.0000 </r>
       <r>   -4.4252    1.0000 </r>
       <r>   -4.4252    1.0000 </r>
       <r>   -3.3355    1.0000 </r>
       <r>   -0.4083    1.0000 </r>
       <r>    0.6199    1.0000 </r>
       <r>    0.6199    1.0000 </r>
       <r>    2.5024    1.0000 </r>
       <r>    3.3385    1.0000 </r>
       <r>    3.3385    1.0000 </r>
       <r>    4.7740    1.0000 </r>
       <r>    4.7740    1.0000 </r>
       <r>    4.8701    1.0000 </r>
       <r>    7.1133    1.0000 </r>
       <r>    9.0735    1.0000 </r>
       <r>    9.7402    1.0000 </r>
       <r>   15.5628    0.0000 </r>
       <r>   15.5628    0.0000 </r>
       <r>   15.5883    0.0000 </r>
       <r>   16.7981    0.0000 </r>
       <r>   17.3279    0.0000 </r>
       <r>   17.5870    0.0000 </r>
       <r>   18.0462    0.0000 </r>
       <r>   18.0462    0.0000 </r>
      </set>
      <set comment="kpoint 36">
       <r>   -9.6624    1.0000 </r>
       <r>   -5.3448    1.0000 </r>
       <r>   -4.2090    1.0000 </r>
       <r>   -3.1845    1.0000 </r>
       <r>   -0.5360    1.0000 </r>
       <r>    0.4233    1.0000 </r>
       <r>    1.4861    1.0000 </r>
       <r>    2.1675    1.0000 </r>
       <r>    3.0076    1.0000 </r>
       <r>    3.8760    1.0000 </r>
       <r>    4.6624    1.0000 </r>
       <r>    4.9566    1.0000 </r>
       <r>    5.0521    1.0000 </r>
       <r>    6.3518    1.0000 </r>
       <r>    8.5058    1.0000 </r>
       <r>    9.5165    1.0000 </r>
       <r>   15.6110    0.0000 </r>
       <r>   15.9685    0.0000 </r>
       <r>   16.2580    0.0000 </r>
       <r>   16.7695    0.0000 </r>
       <r>   17.9736    0.0000 </r>
       <r>   18.0766    0.0000 </r>
       <r>   18.5940    0.0000 </r>
       <r>   19.0670    0.0000 </r>
      </set>
      <set comment="kpoint 37">
       <r>   -9.2993    1.0000 </r>
       <r>   -6.1994    1.0000 </r>
       <r>   -3.9355    1.0000 </r>
       <r>   -3.0381    1.0000 </r>
       <r>   -0.7235    1.0000 </r>
       <r>    0.1168    1.0000 </r>
       <r>    2.0426    1.0000 </r>
       <r>    2.2279    1.0000 </r>
       <r>    2.7908    1.0000 </r>
       <r>    4.4971    1.0000 </r>
       <r>    4.5863    1.0000 </r>
       <r>    4.8800    1.0000 </r>
       <r>    5.4425    1.0000 </r>
       <r>    5.5993    1.0000 </r>
       <r>    7.8741    1.0000 </r>
       <r>    9.0540    1.0000 </r>
       <r>   15.6993    0.0000 </r>
       <r>   16.5971    0.0000 </r>
       <r>   16.6628    0.0000 </r>
       <r>   17.1869    0.0000 </r>
       <r>   18.7175    0.0000 </r>
       <r>   18.8601    0.0000 </r>
       <r>   19.2895    0.0000 </r>
       <r>   20.1802    0.0000 </r>
      </set>
      <set comment="kpoint 38">
       <r>   -8.8477    1.0000 </r>
       <r>   -6.9816    1.0000 </r>
       <r>   -3.6240    1.0000 </r>
       <r>   -2.9718    1.0000 </r>
       <r>   -0.8663    1.0000 </r>
       <r>   -0.2518    1.0000 </r>
       <r>    2.0981    1.0000 </r>
       <r>    2.6315    1.0000 </r>
       <r>    2.8883    1.0000 </r>
       <r>    4.3800    1.0000 </r>
       <r>    4.7067    1.0000 </r>
       <r>    4.8739    1.0000 </r>
       <r>    5.3413    1.0000 </r>
       <r>    5.9981    1.0000 </r>
       <r>    7.2360    1.0000 </r>
       <r>    8.3946    1.0000 </r>
       <r>   15.8284    0.0000 </r>
       <r>   16.3928    0.0000 </r>
       <r>   17.5980    0.0000 </r>
       <r>   18.2701    0.0000 </r>
       <r>   19.5013    0.0000 </r>
       <r>   19.8101    0.0000 </r>
       <r>   20.1119    0.0000 </r>
       <r>   20.9353    0.0000 </r>
      </set>
      <set comment="kpoint 39">
       <r>   -8.3092    1.0000 </r>
       <r>   -7.6862    1.0000 </r>
       <r>   -3.3116    1.0000 </r>
       <r>   -3.0663    1.0000 </r>
       <r>   -0.8321    1.0000 </r>
       <r>   -0.5999    1.0000 </r>
       <r>    2.2615    1.0000 </r>
       <r>    2.4575    1.0000 </r>
       <r>    3.5275    1.0000 </r>
       <r>    4.1839    1.0000 </r>
       <r>    4.3865    1.0000 </r>
       <r>    4.5157    1.0000 </r>
       <r>    6.0031    1.0000 </r>
       <r>    6.6143    1.0000 </r>
       <r>    6.7599    1.0000 </r>
       <r>    7.6029    1.0000 </r>
       <r>   15.9935    0.0000 </r>
       <r>   16.1858    0.0000 </r>
       <r>   18.6615    0.0000 </r>
       <r>   19.2494    0.0000 </r>
       <r>   20.2906    0.0000 </r>
       <r>   20.3576    0.0000 </r>
       <r>   20.7964    0.0000 </r>
       <r>   20.9574    0.0000 </r>
      </set>
      <set comment="kpoint 40">
       <r>   -9.3902    1.0000 </r>
       <r>   -5.1102    1.0000 </r>
       <r>   -5.1102    1.0000 </r>
       <r>   -3.1121    1.0000 </r>
       <r>   -0.7714    1.0000 </r>
       <r>    1.0919    1.0000 </r>
       <r>    1.0919    1.0000 </r>
       <r>    1.9983    1.0000 </r>
       <r>    3.6409    1.0000 </r>
       <r>    3.6409    1.0000 </r>
       <r>    5.0139    1.0000 </r>
       <r>    5.0139    1.0000 </r>
       <r>    5.2980    1.0000 </r>
       <r>    5.5864    1.0000 </r>
       <r>    7.9921    1.0000 </r>
       <r>    9.4556    1.0000 </r>
       <r>   16.0516    0.0000 </r>
       <r>   16.3386    0.0000 </r>
       <r>   16.3386    0.0000 </r>
       <r>   17.2191    0.0000 </r>
       <r>   18.1535    0.0000 </r>
       <r>   18.2903    0.0000 </r>
       <r>   19.5428    0.0000 </r>
       <r>   19.5428    0.0000 </r>
      </set>
      <set comment="kpoint 41">
       <r>   -9.0287    1.0000 </r>
       <r>   -5.9527    1.0000 </r>
       <r>   -4.8064    1.0000 </r>
       <r>   -3.1251    1.0000 </r>
       <r>   -0.9632    1.0000 </r>
       <r>    0.6106    1.0000 </r>
       <r>    1.6758    1.0000 </r>
       <r>    2.0381    1.0000 </r>
       <r>    3.4146    1.0000 </r>
       <r>    4.3391    1.0000 </r>
       <r>    4.8369    1.0000 </r>
       <r>    4.9834    1.0000 </r>
       <r>    5.4468    1.0000 </r>
       <r>    5.5444    1.0000 </r>
       <r>    7.3946    1.0000 </r>
       <r>    9.1546    1.0000 </r>
       <r>   16.4522    0.0000 </r>
       <r>   16.4760    0.0000 </r>
       <r>   17.2676    0.0000 </r>
       <r>   17.2802    0.0000 </r>
       <r>   18.6503    0.0000 </r>
       <r>   18.8443    0.0000 </r>
       <r>   20.1545    0.0000 </r>
       <r>   20.5307    0.0000 </r>
      </set>
      <set comment="kpoint 42">
       <r>   -8.5794    1.0000 </r>
       <r>   -6.7265    1.0000 </r>
       <r>   -4.4443    1.0000 </r>
       <r>   -3.3063    1.0000 </r>
       <r>   -0.9642    1.0000 </r>
       <r>    0.1066    1.0000 </r>
       <r>    2.2256    1.0000 </r>
       <r>    2.2389    1.0000 </r>
       <r>    3.1417    1.0000 </r>
       <r>    4.1209    1.0000 </r>
       <r>    4.9849    1.0000 </r>
       <r>    5.0301    1.0000 </r>
       <r>    5.4305    1.0000 </r>
       <r>    6.2686    1.0000 </r>
       <r>    6.7786    1.0000 </r>
       <r>    8.6221    1.0000 </r>
       <r>   16.5967    0.0000 </r>
       <r>   17.1304    0.0000 </r>
       <r>   17.1998    0.0000 </r>
       <r>   18.3542    0.0000 </r>
       <r>   19.1799    0.0000 </r>
       <r>   19.7616    0.0000 </r>
       <r>   20.4796    0.0000 </r>
       <r>   20.8501    0.0000 </r>
      </set>
      <set comment="kpoint 43">
       <r>   -8.0440    1.0000 </r>
       <r>   -7.4252    1.0000 </r>
       <r>   -4.0434    1.0000 </r>
       <r>   -3.6413    1.0000 </r>
       <r>   -0.7421    1.0000 </r>
       <r>   -0.3626    1.0000 </r>
       <r>    2.5037    1.0000 </r>
       <r>    2.8233    1.0000 </r>
       <r>    2.8246    1.0000 </r>
       <r>    3.4488    1.0000 </r>
       <r>    5.1550    1.0000 </r>
       <r>    5.3101    1.0000 </r>
       <r>    5.5802    1.0000 </r>
       <r>    6.1717    1.0000 </r>
       <r>    7.0979    1.0000 </r>
       <r>    7.9126    1.0000 </r>
       <r>   16.7664    0.0000 </r>
       <r>   16.9502    0.0000 </r>
       <r>   18.1346    0.0000 </r>
       <r>   19.0187    0.0000 </r>
       <r>   19.8225    0.0000 </r>
       <r>   19.9415    0.0000 </r>
       <r>   20.5402    0.0000 </r>
       <r>   20.7546    0.0000 </r>
      </set>
      <set comment="kpoint 44">
       <r>   -8.6696    1.0000 </r>
       <r>   -5.6296    1.0000 </r>
       <r>   -5.6296    1.0000 </r>
       <r>   -3.3868    1.0000 </r>
       <r>   -1.0167    1.0000 </r>
       <r>    1.0845    1.0000 </r>
       <r>    1.0845    1.0000 </r>
       <r>    2.1961    1.0000 </r>
       <r>    4.0068    1.0000 </r>
       <r>    4.0068    1.0000 </r>
       <r>    4.0940    1.0000 </r>
       <r>    5.6788    1.0000 </r>
       <r>    5.6788    1.0000 </r>
       <r>    5.8411    1.0000 </r>
       <r>    6.8269    1.0000 </r>
       <r>    9.0360    1.0000 </r>
       <r>   16.6118    0.0000 </r>
       <r>   17.4010    0.0000 </r>
       <r>   17.4010    0.0000 </r>
       <r>   17.8032    0.0000 </r>
       <r>   18.7059    0.0000 </r>
       <r>   19.0718    0.0000 </r>
       <r>   20.7448    0.0000 </r>
       <r>   20.7448    0.0000 </r>
      </set>
      <set comment="kpoint 45">
       <r>   -8.2236    1.0000 </r>
       <r>   -6.3906    1.0000 </r>
       <r>   -5.2369    1.0000 </r>
       <r>   -3.8070    1.0000 </r>
       <r>   -0.8412    1.0000 </r>
       <r>    0.5027    1.0000 </r>
       <r>    1.5839    1.0000 </r>
       <r>    2.4661    1.0000 </r>
       <r>    3.3887    1.0000 </r>
       <r>    3.6158    1.0000 </r>
       <r>    4.5534    1.0000 </r>
       <r>    5.8358    1.0000 </r>
       <r>    6.0402    1.0000 </r>
       <r>    6.2365    1.0000 </r>
       <r>    6.5020    1.0000 </r>
       <r>    8.6695    1.0000 </r>
       <r>   17.0719    0.0000 </r>
       <r>   17.5437    0.0000 </r>
       <r>   17.9308    0.0000 </r>
       <r>   18.4574    0.0000 </r>
       <r>   18.9117    0.0000 </r>
       <r>   19.7794    0.0000 </r>
       <r>   19.9166    0.0000 </r>
       <r>   20.3186    0.0000 </r>
      </set>
      <set comment="kpoint 46">
       <r>   -7.6928    1.0000 </r>
       <r>   -7.0803    1.0000 </r>
       <r>   -4.7858    1.0000 </r>
       <r>   -4.2965    1.0000 </r>
       <r>   -0.4948    1.0000 </r>
       <r>   -0.0342    1.0000 </r>
       <r>    2.1305    1.0000 </r>
       <r>    2.7323    1.0000 </r>
       <r>    2.8123    1.0000 </r>
       <r>    3.2057    1.0000 </r>
       <r>    5.0946    1.0000 </r>
       <r>    5.6547    1.0000 </r>
       <r>    5.9821    1.0000 </r>
       <r>    6.0694    1.0000 </r>
       <r>    7.3358    1.0000 </r>
       <r>    8.0834    1.0000 </r>
       <r>   17.6976    0.0000 </r>
       <r>   17.8040    0.0000 </r>
       <r>   17.8429    0.0000 </r>
       <r>   18.6780    0.0000 </r>
       <r>   19.2702    0.0000 </r>
       <r>   19.7559    0.0000 </r>
       <r>   19.8382    0.0000 </r>
       <r>   20.7325    0.0000 </r>
      </set>
      <set comment="kpoint 47">
       <r>   -7.7821    1.0000 </r>
       <r>   -5.9782    1.0000 </r>
       <r>   -5.9782    1.0000 </r>
       <r>   -4.3810    1.0000 </r>
       <r>   -0.5463    1.0000 </r>
       <r>    0.9558    1.0000 </r>
       <r>    0.9558    1.0000 </r>
       <r>    2.6957    1.0000 </r>
       <r>    2.7921    1.0000 </r>
       <r>    4.0883    1.0000 </r>
       <r>    4.0883    1.0000 </r>
       <r>    5.6716    1.0000 </r>
       <r>    6.4723    1.0000 </r>
       <r>    6.6756    1.0000 </r>
       <r>    6.6756    1.0000 </r>
       <r>    8.4879    1.0000 </r>
       <r>   17.2469    0.0000 </r>
       <r>   18.5548    0.0000 </r>
       <r>   18.5683    0.0000 </r>
       <r>   18.5683    0.0000 </r>
       <r>   18.7633    0.0000 </r>
       <r>   19.4201    0.0000 </r>
       <r>   19.4201    0.0000 </r>
       <r>   20.0587    0.0000 </r>
      </set>
      <set comment="kpoint 48">
       <r>   -7.2579    1.0000 </r>
       <r>   -6.6547    1.0000 </r>
       <r>   -5.4964    1.0000 </r>
       <r>   -4.9571    1.0000 </r>
       <r>   -0.1295    1.0000 </r>
       <r>    0.3782    1.0000 </r>
       <r>    1.4731    1.0000 </r>
       <r>    2.0545    1.0000 </r>
       <r>    3.1840    1.0000 </r>
       <r>    3.6231    1.0000 </r>
       <r>    4.5858    1.0000 </r>
       <r>    5.1156    1.0000 </r>
       <r>    6.7047    1.0000 </r>
       <r>    6.7579    1.0000 </r>
       <r>    7.4471    1.0000 </r>
       <r>    8.0706    1.0000 </r>
       <r>   17.7165    0.0000 </r>
       <r>   18.4141    0.0000 </r>
       <r>   18.6641    0.0000 </r>
       <r>   18.7039    0.0000 </r>
       <r>   18.8413    0.0000 </r>
       <r>   19.0545    0.0000 </r>
       <r>   19.8174    0.0000 </r>
       <r>   20.7981    0.0000 </r>
      </set>
      <set comment="kpoint 49">
       <r>   -6.7429    1.0000 </r>
       <r>   -6.1531    1.0000 </r>
       <r>   -6.1531    1.0000 </r>
       <r>   -5.5831    1.0000 </r>
       <r>    0.3298    1.0000 </r>
       <r>    0.8683    1.0000 </r>
       <r>    0.8683    1.0000 </r>
       <r>    1.4298    1.0000 </r>
       <r>    3.6116    1.0000 </r>
       <r>    4.0841    1.0000 </r>
       <r>    4.0841    1.0000 </r>
       <r>    4.5855    1.0000 </r>
       <r>    7.1554    1.0000 </r>
       <r>    7.3983    1.0000 </r>
       <r>    7.3983    1.0000 </r>
       <r>    7.8447    1.0000 </r>
       <r>   17.8967    0.0000 </r>
       <r>   18.3276    0.0000 </r>
       <r>   18.3276    0.0000 </r>
       <r>   18.4529    0.0000 </r>
       <r>   19.4666    0.0000 </r>
       <r>   19.7557    0.0000 </r>
       <r>   19.7557    0.0000 </r>
       <r>   20.5164    0.0000 </r>
      </set>
      <set comment="kpoint 50">
       <r>   -9.7535    1.0000 </r>
       <r>   -4.2851    1.0000 </r>
       <r>   -4.2851    1.0000 </r>
       <r>   -4.2851    1.0000 </r>
       <r>    0.3914    1.0000 </r>
       <r>    0.3914    1.0000 </r>
       <r>    0.3914    1.0000 </r>
       <r>    2.9976    1.0000 </r>
       <r>    2.9976    1.0000 </r>
       <r>    2.9976    1.0000 </r>
       <r>    5.0369    1.0000 </r>
       <r>    5.0369    1.0000 </r>
       <r>    5.0369    1.0000 </r>
       <r>    6.3440    1.0000 </r>
       <r>    9.3009    1.0000 </r>
       <r>    9.3009    1.0000 </r>
       <r>   15.6665    0.0000 </r>
       <r>   15.6665    0.0000 </r>
       <r>   15.6665    0.0000 </r>
       <r>   17.3184    0.0000 </r>
       <r>   17.3184    0.0000 </r>
       <r>   17.6778    0.0000 </r>
       <r>   18.9840    0.0000 </r>
       <r>   18.9840    0.0000 </r>
      </set>
      <set comment="kpoint 51">
       <r>   -9.4809    1.0000 </r>
       <r>   -5.1903    1.0000 </r>
       <r>   -4.0858    1.0000 </r>
       <r>   -4.0858    1.0000 </r>
       <r>    0.0279    1.0000 </r>
       <r>    0.0279    1.0000 </r>
       <r>    1.0554    1.0000 </r>
       <r>    2.8364    1.0000 </r>
       <r>    2.8364    1.0000 </r>
       <r>    3.7432    1.0000 </r>
       <r>    5.1285    1.0000 </r>
       <r>    5.1285    1.0000 </r>
       <r>    5.2846    1.0000 </r>
       <r>    5.5638    1.0000 </r>
       <r>    8.7535    1.0000 </r>
       <r>    9.2416    1.0000 </r>
       <r>   15.7826    0.0000 </r>
       <r>   16.0733    0.0000 </r>
       <r>   16.0733    0.0000 </r>
       <r>   17.1859    0.0000 </r>
       <r>   17.9918    0.0000 </r>
       <r>   18.0340    0.0000 </r>
       <r>   19.4473    0.0000 </r>
       <r>   20.0842    0.0000 </r>
      </set>
      <set comment="kpoint 52">
       <r>   -9.1189    1.0000 </r>
       <r>   -6.0359    1.0000 </r>
       <r>   -3.8463    1.0000 </r>
       <r>   -3.8463    1.0000 </r>
       <r>   -0.4087    1.0000 </r>
       <r>   -0.4087    1.0000 </r>
       <r>    1.6325    1.0000 </r>
       <r>    2.8276    1.0000 </r>
       <r>    2.8276    1.0000 </r>
       <r>    4.6576    1.0000 </r>
       <r>    4.8034    1.0000 </r>
       <r>    5.0791    1.0000 </r>
       <r>    5.0791    1.0000 </r>
       <r>    5.6103    1.0000 </r>
       <r>    8.1613    1.0000 </r>
       <r>    8.8915    1.0000 </r>
       <r>   15.9342    0.0000 </r>
       <r>   16.7749    0.0000 </r>
       <r>   16.7749    0.0000 </r>
       <r>   16.9945    0.0000 </r>
       <r>   18.6168    0.0000 </r>
       <r>   18.7599    0.0000 </r>
       <r>   20.0557    0.0000 </r>
       <r>   21.2263    0.0000 </r>
      </set>
      <set comment="kpoint 53">
       <r>   -8.6689    1.0000 </r>
       <r>   -6.8120    1.0000 </r>
       <r>   -3.6059    1.0000 </r>
       <r>   -3.6059    1.0000 </r>
       <r>   -0.8160    1.0000 </r>
       <r>   -0.8160    1.0000 </r>
       <r>    2.1915    1.0000 </r>
       <r>    2.8961    1.0000 </r>
       <r>    2.8961    1.0000 </r>
       <r>    4.0796    1.0000 </r>
       <r>    4.9623    1.0000 </r>
       <r>    4.9623    1.0000 </r>
       <r>    5.6403    1.0000 </r>
       <r>    6.0094    1.0000 </r>
       <r>    7.5669    1.0000 </r>
       <r>    8.2964    1.0000 </r>
[...]
       <r>   -5.0750    1.0000 </r>
       <r>   -5.0750    1.0000 </r>
       <r>   -2.0108    1.0000 </r>
       <r>   -2.0108    1.0000 </r>
       <r>   -2.0108    1.0000 </r>
       <r>   -0.5243    1.0000 </r>
       <r>    6.6696    1.0000 </r>
       <r>    6.6696    1.0000 </r>
       <r>    6.6696    1.0000 </r>
       <r>    7.1520    1.0000 </r>
       <r>    7.1520    1.0000 </r>
       <r>    7.1520    1.0000 </r>
       <r>    7.8770    1.0000 </r>
       <r>    7.8770    1.0000 </r>
       <r>   18.0562    0.0000 </r>
       <r>   18.0562    0.0000 </r>
       <r>   18.0562    0.0000 </r>
       <r>   18.6529    0.0000 </r>
       <r>   18.6529    0.0000 </r>
       <r>   18.6835    0.0000 </r>
       <r>   19.6842    0.0000 </r>
       <r>   19.6842    0.0000 </r>
      </set>
      <set comment="kpoint 82">
       <r>   -6.1215    1.0000 </r>
       <r>   -5.5988    1.0000 </r>
       <r>   -4.8835    1.0000 </r>
       <r>   -4.8835    1.0000 </r>
       <r>   -2.3591    1.0000 </r>
       <r>   -2.3591    1.0000 </r>
       <r>   -1.6586    1.0000 </r>
       <r>   -1.1485    1.0000 </r>
       <r>    6.7942    1.0000 </r>
       <r>    6.7942    1.0000 </r>
       <r>    7.3085    1.0000 </r>
       <r>    7.3085    1.0000 </r>
       <r>    7.3453    1.0000 </r>
       <r>    7.3946    1.0000 </r>
       <r>    7.6411    1.0000 </r>
       <r>    7.7664    1.0000 </r>
       <r>   18.2971    0.0000 </r>
       <r>   18.4095    0.0000 </r>
       <r>   18.4095    0.0000 </r>
       <r>   18.5020    0.0000 </r>
       <r>   18.8532    0.0000 </r>
       <r>   18.8951    0.0000 </r>
       <r>   19.0724    0.0000 </r>
       <r>   19.0724    0.0000 </r>
      </set>
      <set comment="kpoint 83">
       <r>   -5.6834    1.0000 </r>
       <r>   -5.2415    1.0000 </r>
       <r>   -5.2415    1.0000 </r>
       <r>   -4.9655    1.0000 </r>
       <r>   -2.4408    1.0000 </r>
       <r>   -2.1696    1.0000 </r>
       <r>   -2.1696    1.0000 </r>
       <r>   -1.7366    1.0000 </r>
       <r>    7.1056    1.0000 </r>
       <r>    7.2693    1.0000 </r>
       <r>    7.2693    1.0000 </r>
       <r>    7.5151    1.0000 </r>
       <r>    7.5218    1.0000 </r>
       <r>    7.5705    1.0000 </r>
       <r>    7.5705    1.0000 </r>
       <r>    7.7694    1.0000 </r>
       <r>   18.4999    0.0000 </r>
       <r>   18.5938    0.0000 </r>
       <r>   18.5938    0.0000 </r>
       <r>   18.7065    0.0000 </r>
       <r>   18.7263    0.0000 </r>
       <r>   18.8255    0.0000 </r>
       <r>   18.8255    0.0000 </r>
       <r>   18.8695    0.0000 </r>
      </set>
      <set comment="kpoint 84">
       <r>   -5.3244    1.0000 </r>
       <r>   -5.0472    1.0000 </r>
       <r>   -5.0472    1.0000 </r>
       <r>   -5.0472    1.0000 </r>
       <r>   -2.5239    1.0000 </r>
       <r>   -2.5239    1.0000 </r>
       <r>   -2.5239    1.0000 </r>
       <r>   -2.2512    1.0000 </r>
       <r>    7.5573    1.0000 </r>
       <r>    7.5573    1.0000 </r>
       <r>    7.5573    1.0000 </r>
       <r>    7.6167    1.0000 </r>
       <r>    7.6167    1.0000 </r>
       <r>    7.6167    1.0000 </r>
       <r>    7.7035    1.0000 </r>
       <r>    7.7035    1.0000 </r>
       <r>   18.6325    0.0000 </r>
       <r>   18.6325    0.0000 </r>
       <r>   18.6325    0.0000 </r>
       <r>   18.7038    0.0000 </r>
       <r>   18.7042    0.0000 </r>
       <r>   18.7568    0.0000 </r>
       <r>   18.8244    0.0000 </r>
       <r>   18.8335    0.0000 </r>
      </set>
     </set>
    </set>
   </array>
  </eigenvalues>
  <separator name="orbital magnetization" >
   <v name="MAGDIPOLOUT">      0.00000000      0.00000000      0.00000000</v>
  </separator>
  <dos>
   <i name="efermi">     10.58042809 </i>
   <total>
    <array>
     <dimension dim="1">gridpoints</dimension>
     <dimension dim="2">spin</dimension>
     <field>energy</field>
     <field>total</field>
     <field>integrated</field>
     <set>
      <set comment="spin 1">
       <r>   -12.2028     0.0000     0.0000 </r>
       <r>   -12.0836     0.0000     0.0000 </r>
       <r>   -11.9643     0.0000     0.0000 </r>
       <r>   -11.8451     0.0000     0.0000 </r>
       <r>   -11.7258     0.0000     0.0000 </r>
       <r>   -11.6066     0.0000     0.0000 </r>
       <r>   -11.4874     0.0000     0.0000 </r>
       <r>   -11.3681     0.0000     0.0000 </r>
       <r>   -11.2489     0.0000     0.0000 </r>
       <r>   -11.1296     0.0000     0.0000 </r>
       <r>   -11.0104     0.0000     0.0000 </r>
       <r>   -10.8911     0.0000     0.0000 </r>
       <r>   -10.7719     0.0000     0.0000 </r>
       <r>   -10.6526     0.0008     0.0001 </r>
       <r>   -10.5334     0.0552     0.0067 </r>
       <r>   -10.4142     0.1769     0.0278 </r>
       <r>   -10.2949     0.2234     0.0544 </r>
       <r>   -10.1757     0.3336     0.0942 </r>
       <r>   -10.0564     0.2414     0.1230 </r>
       <r>    -9.9372     0.4509     0.1767 </r>
       <r>    -9.8179     0.3539     0.2189 </r>
       <r>    -9.6987     0.4096     0.2678 </r>
       <r>    -9.5794     0.5102     0.3286 </r>
       <r>    -9.4602     0.5039     0.3887 </r>
       <r>    -9.3409     0.5524     0.4546 </r>
       <r>    -9.2217     0.3960     0.5018 </r>
       <r>    -9.1025     0.6921     0.5843 </r>
       <r>    -8.9832     0.6631     0.6634 </r>
       <r>    -8.8640     0.5413     0.7280 </r>
       <r>    -8.7447     0.5050     0.7882 </r>
       <r>    -8.6255     0.7575     0.8785 </r>
       <r>    -8.5062     0.8282     0.9773 </r>
       <r>    -8.3870     0.5999     1.0488 </r>
       <r>    -8.2677     0.7708     1.1407 </r>
       <r>    -8.1485     0.6479     1.2180 </r>
       <r>    -8.0293     0.8851     1.3235 </r>
       <r>    -7.9100     0.5733     1.3919 </r>
       <r>    -7.7908     0.9835     1.5091 </r>
       <r>    -7.6715     1.0613     1.6357 </r>
       <r>    -7.5523     0.5558     1.7020 </r>
       <r>    -7.4330     0.8420     1.8024 </r>
       <r>    -7.3138     0.7478     1.8916 </r>
       <r>    -7.1945     1.2663     2.0426 </r>
       <r>    -7.0753     0.9045     2.1504 </r>
       <r>    -6.9560     0.9548     2.2643 </r>
       <r>    -6.8368     0.7800     2.3573 </r>
       <r>    -6.7176     1.0964     2.4880 </r>
       <r>    -6.5983     0.8905     2.5942 </r>
       <r>    -6.4791     1.1487     2.7312 </r>
       <r>    -6.3598     0.9908     2.8493 </r>
       <r>    -6.2406     1.1672     2.9885 </r>
       <r>    -6.1213     1.0781     3.1171 </r>
       <r>    -6.0021     1.2545     3.2667 </r>
       <r>    -5.8828     1.2133     3.4114 </r>
       <r>    -5.7636     0.7432     3.5000 </r>
       <r>    -5.6444     1.0594     3.6263 </r>
       <r>    -5.5251     1.7355     3.8333 </r>
       <r>    -5.4059     1.2434     3.9815 </r>
       <r>    -5.2866     1.3357     4.1408 </r>
       <r>    -5.1674     1.4885     4.3183 </r>
       <r>    -5.0481     1.1685     4.4576 </r>
       <r>    -4.9289     1.5935     4.6477 </r>
       <r>    -4.8096     1.5644     4.8342 </r>
       <r>    -4.6904     1.7820     5.0467 </r>
       <r>    -4.5711     1.2352     5.1940 </r>
       <r>    -4.4519     1.3786     5.3584 </r>
       <r>    -4.3327     1.5425     5.5423 </r>
       <r>    -4.2134     2.0938     5.7920 </r>
       <r>    -4.0942     0.6335     5.8675 </r>
       <r>    -3.9749     1.3731     6.0313 </r>
       <r>    -3.8557     0.9455     6.1440 </r>
       <r>    -3.7364     1.3105     6.3003 </r>
       <r>    -3.6172     1.7383     6.5075 </r>
       <r>    -3.4979     1.0133     6.6284 </r>
       <r>    -3.3787     0.7561     6.7185 </r>
       <r>    -3.2594     1.4204     6.8879 </r>
       <r>    -3.1402     0.9909     7.0061 </r>
       <r>    -3.0210     1.3724     7.1697 </r>
       <r>    -2.9017     0.6902     7.2520 </r>
       <r>    -2.7825     0.5989     7.3234 </r>
       <r>    -2.6632     0.6674     7.4030 </r>
       <r>    -2.5440     0.8914     7.5093 </r>
       <r>    -2.4247     1.2866     7.6627 </r>
       <r>    -2.3055     1.4524     7.8359 </r>
       <r>    -2.1862     1.1461     7.9726 </r>
       <r>    -2.0670     1.0616     8.0992 </r>
       <r>    -1.9478     0.7421     8.1877 </r>
       <r>    -1.8285     0.7172     8.2732 </r>
       <r>    -1.7093     0.9626     8.3880 </r>
       <r>    -1.5900     0.9003     8.4954 </r>
       <r>    -1.4708     1.1198     8.6289 </r>
       <r>    -1.3515     1.3890     8.7945 </r>
       <r>    -1.2323     2.3538     9.0752 </r>
       <r>    -1.1130     1.4597     9.2493 </r>
       <r>    -0.9938     2.4692     9.5437 </r>
       <r>    -0.8745     1.8211     9.7609 </r>
       <r>    -0.7553     2.7878    10.0933 </r>
       <r>    -0.6361     1.4789    10.2696 </r>
       <r>    -0.5168     1.9202    10.4986 </r>
       <r>    -0.3976     2.7808    10.8302 </r>
       <r>    -0.2783     2.7434    11.1574 </r>
       <r>    -0.1591     1.3156    11.3142 </r>
       <r>    -0.0398     1.3632    11.4768 </r>
       <r>     0.0794     1.0220    11.5986 </r>
       <r>     0.1987     1.1572    11.7366 </r>
       <r>     0.3179     1.3443    11.8969 </r>
       <r>     0.4371     1.2159    12.0419 </r>
       <r>     0.5564     1.2318    12.1888 </r>
       <r>     0.6756     1.5815    12.3774 </r>
       <r>     0.7949     1.7161    12.5820 </r>
       <r>     0.9141     0.5091    12.6427 </r>
       <r>     1.0334     0.9524    12.7563 </r>
       <r>     1.1526     1.3453    12.9167 </r>
       <r>     1.2719     1.0625    13.0434 </r>
       <r>     1.3911     0.4278    13.0944 </r>
       <r>     1.5104     1.7758    13.3062 </r>
       <r>     1.6296     1.3005    13.4613 </r>
       <r>     1.7488     2.3389    13.7402 </r>
       <r>     1.8681     1.8452    13.9602 </r>
       <r>     1.9873     1.3777    14.1245 </r>
       <r>     2.1066     2.4985    14.4224 </r>
       <r>     2.2258     2.3620    14.7041 </r>
       <r>     2.3451     2.7896    15.0367 </r>
       <r>     2.4643     1.3643    15.1994 </r>
       <r>     2.5836     1.6109    15.3915 </r>
       <r>     2.7028     1.7604    15.6014 </r>
       <r>     2.8220     2.3491    15.8815 </r>
       <r>     2.9413     3.5124    16.3004 </r>
       <r>     3.0605     1.9967    16.5385 </r>
       <r>     3.1798     1.4518    16.7116 </r>
       <r>     3.2990     1.6160    16.9043 </r>
       <r>     3.4183     2.6760    17.2234 </r>
       <r>     3.5375     2.9143    17.5709 </r>
       <r>     3.6568     2.3228    17.8479 </r>
       <r>     3.7760     2.2499    18.1162 </r>
       <r>     3.8953     2.3016    18.3906 </r>
       <r>     4.0145     2.0063    18.6299 </r>
       <r>     4.1337     3.5037    19.0477 </r>
       <r>     4.2530     3.8228    19.5035 </r>
       <r>     4.3722     2.4723    19.7983 </r>
       <r>     4.4915     2.7532    20.1266 </r>
       <r>     4.6107     3.6081    20.5569 </r>
       <r>     4.7300     2.2355    20.8235 </r>
       <r>     4.8492     3.4696    21.2372 </r>
       <r>     4.9685     4.6140    21.7874 </r>
       <r>     5.0877     3.4271    22.1960 </r>
       <r>     5.2069     1.8902    22.4214 </r>
       <r>     5.3262     2.0329    22.6639 </r>
       <r>     5.4454     3.4128    23.0708 </r>
       <r>     5.5647     4.1836    23.5697 </r>
       <r>     5.6839     3.5603    23.9942 </r>
       <r>     5.8032     1.7208    24.1994 </r>
       <r>     5.9224     2.9079    24.5462 </r>
       <r>     6.0417     3.3278    24.9430 </r>
       <r>     6.1609     2.4728    25.2379 </r>
       <r>     6.2802     3.3387    25.6360 </r>
       <r>     6.3994     3.0300    25.9973 </r>
       <r>     6.5186     2.2880    26.2702 </r>
       <r>     6.6379     2.1618    26.5279 </r>
       <r>     6.7571     3.7024    26.9694 </r>
       <r>     6.8764     3.1242    27.3420 </r>
       <r>     6.9956     2.2035    27.6047 </r>
       <r>     7.1149     2.4718    27.8995 </r>
       <r>     7.2341     2.2141    28.1635 </r>
       <r>     7.3534     2.7206    28.4879 </r>
       <r>     7.4726     3.9453    28.9584 </r>
       <r>     7.5918     2.2533    29.2271 </r>
       <r>     7.7111     1.3768    29.3913 </r>
       <r>     7.8303     2.2300    29.6572 </r>
       <r>     7.9496     2.2181    29.9217 </r>
       <r>     8.0688     2.2085    30.1850 </r>
       <r>     8.1881     1.7931    30.3988 </r>
       <r>     8.3073     0.7486    30.4881 </r>
       <r>     8.4266     0.9521    30.6016 </r>
       <r>     8.5458     1.9804    30.8378 </r>
       <r>     8.6651     1.1326    30.9729 </r>
       <r>     8.7843     1.2715    31.1245 </r>
       <r>     8.9035     0.6826    31.2059 </r>
       <r>     9.0228     0.5729    31.2742 </r>
       <r>     9.1420     0.9914    31.3924 </r>
       <r>     9.2613     1.1588    31.5306 </r>
       <r>     9.3805     0.5701    31.5986 </r>
       <r>     9.4998     0.5411    31.6631 </r>
       <r>     9.6190     0.5714    31.7312 </r>
       <r>     9.7383     0.6318    31.8066 </r>
       <r>     9.8575     0.4285    31.8577 </r>
       <r>     9.9768     0.3406    31.8983 </r>
       <r>    10.0960     0.4155    31.9479 </r>
       <r>    10.2152     0.1898    31.9705 </r>
       <r>    10.3345     0.2057    31.9950 </r>
       <r>    10.4537     0.0418    32.0000 </r>
       <r>    10.5730     0.0000    32.0000 </r>
       <r>    10.6922     0.0000    32.0000 </r>
       <r>    10.8115     0.0000    32.0000 </r>
       <r>    10.9307     0.0000    32.0000 </r>
       <r>    11.0500     0.0000    32.0000 </r>
       <r>    11.1692     0.0000    32.0000 </r>
       <r>    11.2884     0.0000    32.0000 </r>
       <r>    11.4077     0.0000    32.0000 </r>
       <r>    11.5269     0.0000    32.0000 </r>
       <r>    11.6462     0.0000    32.0000 </r>
       <r>    11.7654     0.0000    32.0000 </r>
       <r>    11.8847     0.0000    32.0000 </r>
       <r>    12.0039     0.0000    32.0000 </r>
       <r>    12.1232     0.0000    32.0000 </r>
       <r>    12.2424     0.0000    32.0000 </r>
       <r>    12.3617     0.0000    32.0000 </r>
       <r>    12.4809     0.0000    32.0000 </r>
       <r>    12.6001     0.0000    32.0000 </r>
       <r>    12.7194     0.0000    32.0000 </r>
       <r>    12.8386     0.0000    32.0000 </r>
       <r>    12.9579     0.0000    32.0000 </r>
       <r>    13.0771     0.0000    32.0000 </r>
       <r>    13.1964     0.0000    32.0000 </r>
       <r>    13.3156     0.0000    32.0000 </r>
       <r>    13.4349     0.0000    32.0000 </r>
       <r>    13.5541     0.0000    32.0000 </r>
       <r>    13.6733     0.0000    32.0000 </r>
       <r>    13.7926     0.0000    32.0000 </r>
       <r>    13.9118     0.0000    32.0000 </r>
       <r>    14.0311     0.0000    32.0000 </r>
       <r>    14.1503     0.0000    32.0000 </r>
       <r>    14.2696     0.0000    32.0000 </r>
       <r>    14.3888     0.0000    32.0000 </r>
       <r>    14.5081     0.0275    32.0033 </r>
       <r>    14.6273     0.4093    32.0521 </r>
       <r>    14.7466     0.2328    32.0798 </r>
       <r>    14.8658     0.2379    32.1082 </r>
       <r>    14.9850     0.9445    32.2208 </r>
       <r>    15.1043     0.7354    32.3085 </r>
       <r>    15.2235     1.0902    32.4385 </r>
       <r>    15.3428     0.8154    32.5358 </r>
       <r>    15.4620     0.4707    32.5919 </r>
       <r>    15.5813     1.4262    32.7620 </r>
       <r>    15.7005     1.9468    32.9941 </r>
       <r>    15.8198     1.6113    33.1863 </r>
       <r>    15.9390     1.7158    33.3909 </r>
       <r>    16.0582     1.6058    33.5824 </r>
       <r>    16.1775     1.3929    33.7485 </r>
       <r>    16.2967     1.8726    33.9717 </r>
       <r>    16.4160     1.6830    34.1724 </r>
       <r>    16.5352     2.0298    34.4145 </r>
       <r>    16.6545     3.3913    34.8189 </r>
       <r>    16.7737     2.0573    35.0642 </r>
       <r>    16.8930     1.7989    35.2787 </r>
       <r>    17.0122     1.5862    35.4679 </r>
       <r>    17.1315     2.7936    35.8010 </r>
       <r>    17.2507     2.9549    36.1533 </r>
       <r>    17.3699     2.5897    36.4621 </r>
       <r>    17.4892     1.6834    36.6629 </r>
       <r>    17.6084     2.4460    36.9546 </r>
       <r>    17.7277     3.3652    37.3559 </r>
       <r>    17.8469     3.4178    37.7634 </r>
       <r>    17.9662     3.5547    38.1873 </r>
       <r>    18.0854     4.2763    38.6972 </r>
       <r>    18.2047     2.8509    39.0372 </r>
       <r>    18.3239     3.3060    39.4314 </r>
       <r>    18.4431     3.3241    39.8278 </r>
       <r>    18.5624     3.8694    40.2892 </r>
       <r>    18.6816     4.7039    40.8501 </r>
       <r>    18.8009     4.9460    41.4399 </r>
       <r>    18.9201     6.5121    42.2164 </r>
       <r>    19.0394     4.0287    42.6968 </r>
       <r>    19.1586     3.0375    43.0590 </r>
       <r>    19.2779     3.4335    43.4685 </r>
       <r>    19.3971     2.8092    43.8035 </r>
       <r>    19.5164     2.4355    44.0939 </r>
       <r>    19.6356     1.8056    44.3092 </r>
       <r>    19.7548     2.8868    44.6534 </r>
       <r>    19.8741     4.3470    45.1718 </r>
       <r>    19.9933     2.2597    45.4412 </r>
       <r>    20.1126     2.7420    45.7682 </r>
       <r>    20.2318     3.1799    46.1474 </r>
       <r>    20.3511     2.8729    46.4900 </r>
       <r>    20.4703     2.0684    46.7366 </r>
       <r>    20.5896     1.7335    46.9433 </r>
       <r>    20.7088     0.8830    47.0486 </r>
       <r>    20.8280     2.1705    47.3074 </r>
       <r>    20.9473     1.3584    47.4694 </r>
       <r>    21.0665     1.6591    47.6673 </r>
       <r>    21.1858     1.2704    47.8188 </r>
       <r>    21.3050     0.4179    47.8686 </r>
       <r>    21.4243     0.4653    47.9241 </r>
       <r>    21.5435     0.2906    47.9587 </r>
       <r>    21.6628     0.0527    47.9650 </r>
       <r>    21.7820     0.0000    47.9650 </r>
       <r>    21.9013     0.0394    47.9697 </r>
       <r>    22.0205     0.2503    47.9996 </r>
       <r>    22.1397     0.0036    48.0000 </r>
       <r>    22.2590     0.0000    48.0000 </r>
       <r>    22.3782     0.0000    48.0000 </r>
       <r>    22.4975     0.0000    48.0000 </r>
       <r>    22.6167     0.0000    48.0000 </r>
       <r>    22.7360     0.0000    48.0000 </r>
       <r>    22.8552     0.0000    48.0000 </r>
       <r>    22.9745     0.0000    48.0000 </r>
       <r>    23.0937     0.0000    48.0000 </r>
       <r>    23.2129     0.0000    48.0000 </r>
       <r>    23.3322     0.0000    48.0000 </r>
       <r>    23.4514     0.0000    48.0000 </r>
       <r>    23.5707     0.0000    48.0000 </r>
      </set>
     </set>
    </array>
   </total>
  </dos>
 </calculation>
 <structure name="finalpos" >
  <crystal>
   <varray name="basis" >
    <v>       3.60934112       0.00000000       0.00000000 </v>
    <v>       0.00000000       3.60934112       0.00000000 </v>
    <v>       0.00000000       0.00000000       3.60934112 </v>
   </varray>
   <i name="volume">     47.02012600 </i>
   <varray name="rec_basis" >
    <v>       0.27705888       0.00000000       0.00000000 </v>
    <v>       0.00000000       0.27705888       0.00000000 </v>
    <v>       0.00000000       0.00000000       0.27705888 </v>
   </varray>
  </crystal>
  <varray name="positions" >
   <v>       0.25000000       0.25000000       0.25000000 </v>
   <v>       0.00000000       0.00000000       0.00000000 </v>
   <v>       0.25000000       0.75000000       0.75000000 </v>
   <v>       0.00000000       0.50000000       0.50000000 </v>
   <v>       0.75000000       0.25000000       0.75000000 </v>
   <v>       0.50000000       0.00000000       0.50000000 </v>
   <v>       0.75000000       0.75000000       0.25000000 </v>
   <v>       0.50000000       0.50000000       0.00000000 </v>
  </varray>
 </structure>
</modeling>
