   2   2   0   0
  0.8096536E+02  0.2484875E-09  0.2484875E-09  0.3028239E-08  0.5000000E-15
  1.000000000000000E-004
  CAR 
 unknown system                          
     17.31588396    -24.44045137  301     -3.68407302      1.00000000
    -24.440  0.0000E+00  0.0000E+00
    -24.301  0.0000E+00  0.0000E+00
    -24.162  0.0000E+00  0.0000E+00
    -24.023  0.0000E+00  0.0000E+00
    -23.884  0.0000E+00  0.0000E+00
    -23.745  0.0000E+00  0.0000E+00
    -23.605  0.0000E+00  0.0000E+00
    -23.466  0.0000E+00  0.0000E+00
    -23.327  0.0000E+00  0.0000E+00
    -23.188  0.0000E+00  0.0000E+00
    -23.049  0.0000E+00  0.0000E+00
    -22.909  0.0000E+00  0.0000E+00
    -22.770  0.1176E-12  0.1637E-13
    -22.631  0.1221E-04  0.1700E-05
    -22.492  0.2223E-02  0.3111E-03
    -22.353  0.2028E-02  0.5935E-03
    -22.213  0.4824E-02  0.1265E-02
    -22.074  0.2198E-02  0.1571E-02
    -21.935  0.2685E-02  0.1945E-02
    -21.796  0.3107E-02  0.2377E-02
    -21.657  0.4854E-02  0.3053E-02
    -21.518  0.2495E-02  0.3400E-02
    -21.378  0.2019E-02  0.3681E-02
    -21.239  0.3479E-02  0.4165E-02
    -21.100  0.2027E-02  0.4447E-02
    -20.961  0.5787E-02  0.5253E-02
    -20.822  0.3650E-02  0.5761E-02
    -20.682  0.8279E-03  0.5876E-02
    -20.543  0.5616E-02  0.6658E-02
    -20.404  0.7910E-04  0.6669E-02
    -20.265  0.3580E-02  0.7167E-02
    -20.126  0.3887E-02  0.7708E-02
    -19.986  0.4592E-02  0.8347E-02
    -19.847  0.3814E-02  0.8878E-02
    -19.708  0.1205E-02  0.9046E-02
    -19.569  0.4635E-02  0.9691E-02
    -19.430  0.3506E-02  0.1018E-01
    -19.291  0.2694E-02  0.1055E-01
    -19.151  0.1149E-04  0.1056E-01
    -19.012  0.2970E-02  0.1097E-01
    -18.873  0.8729E-02  0.1218E-01
    -18.734  0.3774E-02  0.1271E-01
    -18.595  0.9715E-03  0.1284E-01
    -18.455  0.3502E-02  0.1333E-01
    -18.316  0.2837E-02  0.1373E-01
    -18.177  0.5132E-02  0.1444E-01
    -18.038  0.2404E-02  0.1478E-01
    -17.899  0.3175E-02  0.1522E-01
    -17.759  0.4704E-03  0.1528E-01
    -17.620  0.5839E-02  0.1610E-01
    -17.481  0.8766E-02  0.1732E-01
    -17.342  0.5300E-02  0.1805E-01
    -17.203  0.2010E-02  0.1833E-01
    -17.063  0.3740E-04  0.1834E-01
    -16.924  0.4755E-02  0.1900E-01
    -16.785  0.1195E-02  0.1917E-01
    -16.646  0.1045E-06  0.1917E-01
    -16.507  0.1018E-02  0.1931E-01
    -16.368  0.1676E-02  0.1954E-01
    -16.228  0.4628E-02  0.2019E-01
    -16.089  0.4458E-02  0.2081E-01
    -15.950  0.2390E-02  0.2114E-01
    -15.811  0.2630E-02  0.2151E-01
    -15.672  0.1388E-02  0.2170E-01
    -15.532  0.5674E-02  0.2249E-01
    -15.393  0.5868E-02  0.2330E-01
    -15.254  0.6178E-02  0.2416E-01
    -15.115  0.3647E-02  0.2467E-01
    -14.976  0.3620E-03  0.2472E-01
    -14.836  0.5145E-02  0.2544E-01
    -14.697  0.4823E-02  0.2611E-01
    -14.558  0.6870E-05  0.2611E-01
    -14.419  0.1327E-02  0.2630E-01
    -14.280  0.6793E-02  0.2724E-01
    -14.141  0.3798E-02  0.2777E-01
    -14.001  0.2588E-02  0.2813E-01
    -13.862  0.2767E-02  0.2852E-01
    -13.723  0.7132E-03  0.2861E-01
    -13.584  0.3672E-02  0.2913E-01
    -13.445  0.6263E-03  0.2921E-01
    -13.305  0.6899E-02  0.3017E-01
    -13.166  0.7218E-02  0.3118E-01
    -13.027  0.3492E-02  0.3166E-01
    -12.888  0.5553E-03  0.3174E-01
    -12.749  0.4277E-02  0.3234E-01
    -12.609  0.1312E-02  0.3252E-01
    -12.470  0.4081E-02  0.3309E-01
    -12.331  0.1914E-02  0.3335E-01
    -12.192  0.6907E-02  0.3432E-01
    -12.053  0.5695E-02  0.3511E-01
    -11.914  0.3218E-02  0.3556E-01
    -11.774  0.6101E-02  0.3640E-01
    -11.635  0.3872E-02  0.3694E-01
    -11.496  0.1089E-03  0.3696E-01
    -11.357  0.5613E-02  0.3774E-01
    -11.218  0.5262E-02  0.3847E-01
    -11.078  0.4995E-02  0.3917E-01
    -10.939  0.3653E-02  0.3968E-01
    -10.800  0.2315E-02  0.4000E-01
    -10.661  0.6757E-02  0.4094E-01
    -10.522  0.8948E-02  0.4218E-01
    -10.382  0.5430E-02  0.4294E-01
    -10.243  0.8531E-02  0.4413E-01
    -10.104  0.1332E-01  0.4598E-01
     -9.965  0.6992E-02  0.4696E-01
     -9.826  0.5906E-02  0.4778E-01
     -9.687  0.1114E-01  0.4933E-01
     -9.547  0.8807E-02  0.5055E-01
     -9.408  0.1617E-01  0.5281E-01
     -9.269  0.4955E-02  0.5349E-01
     -9.130  0.7390E-02  0.5452E-01
     -8.991  0.5140E-02  0.5524E-01
     -8.851  0.1300E-01  0.5705E-01
     -8.712  0.8817E-02  0.5827E-01
     -8.573  0.9307E-02  0.5957E-01
     -8.434  0.3013E-02  0.5999E-01
     -8.295  0.6006E-02  0.6083E-01
     -8.155  0.5237E-02  0.6155E-01
     -8.016  0.6482E-02  0.6246E-01
     -7.877  0.2830E-02  0.6285E-01
     -7.738  0.1299E-01  0.6466E-01
     -7.599  0.7684E-02  0.6573E-01
     -7.460  0.8567E-03  0.6585E-01
     -7.320  0.8501E-02  0.6703E-01
     -7.181  0.5509E-02  0.6780E-01
     -7.042  0.5494E-02  0.6856E-01
     -6.903  0.3657E-02  0.6907E-01
     -6.764  0.4230E-02  0.6966E-01
     -6.624  0.5379E-02  0.7041E-01
     -6.485  0.9579E-02  0.7174E-01
     -6.346  0.7159E-02  0.7274E-01
     -6.207  0.3538E-02  0.7323E-01
     -6.068  0.1219E-02  0.7340E-01
     -5.928  0.4232E-02  0.7399E-01
     -5.789  0.4967E-02  0.7468E-01
     -5.650  0.4381E-02  0.7529E-01
     -5.511  0.3809E-02  0.7582E-01
     -5.372  0.1791E-02  0.7607E-01
     -5.233  0.8494E-02  0.7725E-01
     -5.093  0.7767E-02  0.7833E-01
     -4.954  0.2819E-05  0.7833E-01
     -4.815  0.1041E-04  0.7833E-01
     -4.676  0.3476E-02  0.7882E-01
     -4.537  0.1004E-02  0.7896E-01
     -4.397  0.1495E-02  0.7917E-01
     -4.258  0.5978E-03  0.7925E-01
     -4.119  0.1398E-02  0.7944E-01
     -3.980  0.4331E-04  0.7945E-01
     -3.841  0.3745E-02  0.7997E-01
     -3.701  0.2034E-03  0.8000E-01
     -3.562  0.5014E-10  0.8000E-01
     -3.423  0.0000E+00  0.8000E-01
     -3.284  0.0000E+00  0.8000E-01
     -3.145  0.0000E+00  0.8000E-01
     -3.006  0.0000E+00  0.8000E-01
     -2.866  0.8641E-17  0.8000E-01
     -2.727  0.1848E-06  0.8000E-01
     -2.588  0.2039E-02  0.8028E-01
     -2.449  0.1952E-02  0.8056E-01
     -2.310  0.8561E-03  0.8067E-01
     -2.170  0.1140E-02  0.8083E-01
     -2.031  0.1009E-03  0.8085E-01
     -1.892  0.4897E-02  0.8153E-01
     -1.753  0.9899E-03  0.8167E-01
     -1.614  0.2287E-02  0.8199E-01
     -1.474  0.9441E-02  0.8330E-01
     -1.335  0.5249E-02  0.8403E-01
     -1.196  0.6802E-02  0.8498E-01
     -1.057  0.1284E-02  0.8516E-01
     -0.918  0.5499E-02  0.8592E-01
     -0.779  0.1369E-02  0.8611E-01
     -0.639  0.5605E-04  0.8612E-01
     -0.500  0.7367E-02  0.8714E-01
     -0.361  0.5603E-03  0.8722E-01
     -0.222  0.3065E-03  0.8726E-01
     -0.083  0.4081E-02  0.8783E-01
      0.057  0.3623E-02  0.8834E-01
      0.196  0.5621E-02  0.8912E-01
      0.335  0.4881E-02  0.8980E-01
      0.474  0.4023E-02  0.9036E-01
      0.613  0.4967E-02  0.9105E-01
      0.753  0.8124E-03  0.9116E-01
      0.892  0.8158E-02  0.9230E-01
      1.031  0.5708E-02  0.9309E-01
      1.170  0.7379E-02  0.9412E-01
      1.309  0.1225E-01  0.9583E-01
      1.448  0.5906E-02  0.9665E-01
      1.588  0.1502E-01  0.9874E-01
      1.727  0.5909E-02  0.9956E-01
      1.866  0.1630E-01  0.1018E+00
      2.005  0.1127E-01  0.1034E+00
      2.144  0.2090E-01  0.1063E+00
      2.284  0.1472E-01  0.1084E+00
      2.423  0.1118E-01  0.1099E+00
      2.562  0.1321E-01  0.1118E+00
      2.701  0.1729E-01  0.1142E+00
      2.840  0.1930E-01  0.1168E+00
      2.980  0.1871E-01  0.1194E+00
      3.119  0.1434E-01  0.1214E+00
      3.258  0.1498E-01  0.1235E+00
      3.397  0.1757E-01  0.1260E+00
      3.536  0.1948E-01  0.1287E+00
      3.675  0.2278E-01  0.1319E+00
      3.815  0.2223E-01  0.1350E+00
      3.954  0.2161E-01  0.1380E+00
      4.093  0.2445E-01  0.1414E+00
      4.232  0.2534E-01  0.1449E+00
      4.371  0.3116E-01  0.1492E+00
      4.511  0.2135E-01  0.1522E+00
      4.650  0.3395E-01  0.1569E+00
      4.789  0.2217E-01  0.1600E+00
      4.928  0.3037E-01  0.1642E+00
      5.067  0.3979E-01  0.1698E+00
      5.207  0.3390E-01  0.1745E+00
      5.346  0.2836E-01  0.1784E+00
      5.485  0.3121E-01  0.1828E+00
      5.624  0.3025E-01  0.1870E+00
      5.763  0.3113E-01  0.1913E+00
      5.902  0.3384E-01  0.1960E+00
      6.042  0.3616E-01  0.2011E+00
      6.181  0.2549E-01  0.2046E+00
      6.320  0.3618E-01  0.2097E+00
      6.459  0.1668E-01  0.2120E+00
      6.598  0.3177E-01  0.2164E+00
      6.738  0.3751E-01  0.2216E+00
      6.877  0.2936E-01  0.2257E+00
      7.016  0.2769E-01  0.2296E+00
      7.155  0.2585E-01  0.2332E+00
      7.294  0.3705E-01  0.2383E+00
      7.434  0.3631E-01  0.2434E+00
      7.573  0.3560E-01  0.2483E+00
      7.712  0.4674E-01  0.2548E+00
      7.851  0.3766E-01  0.2601E+00
      7.990  0.3817E-01  0.2654E+00
      8.129  0.1554E-01  0.2675E+00
      8.269  0.4138E-01  0.2733E+00
      8.408  0.2532E-01  0.2768E+00
      8.547  0.3152E-01  0.2812E+00
      8.686  0.3653E-01  0.2863E+00
      8.825  0.4012E-01  0.2919E+00
      8.965  0.4293E-01  0.2979E+00
      9.104  0.4314E-01  0.3039E+00
      9.243  0.2878E-01  0.3079E+00
      9.382  0.3886E-01  0.3133E+00
      9.521  0.2476E-01  0.3167E+00
      9.661  0.4288E-01  0.3227E+00
      9.800  0.4227E-01  0.3286E+00
      9.939  0.4430E-01  0.3347E+00
     10.078  0.4820E-01  0.3415E+00
     10.217  0.2978E-01  0.3456E+00
     10.356  0.3515E-01  0.3505E+00
     10.496  0.2568E-01  0.3541E+00
     10.635  0.4934E-01  0.3609E+00
     10.774  0.4112E-01  0.3667E+00
     10.913  0.3407E-01  0.3714E+00
     11.052  0.5929E-01  0.3797E+00
     11.192  0.2410E-01  0.3830E+00
     11.331  0.4512E-01  0.3893E+00
     11.470  0.3598E-01  0.3943E+00
     11.609  0.3183E-01  0.3987E+00
     11.748  0.3244E-01  0.4032E+00
     11.888  0.3164E-01  0.4076E+00
     12.027  0.4267E-01  0.4136E+00
     12.166  0.3165E-01  0.4180E+00
     12.305  0.3917E-01  0.4234E+00
     12.444  0.4037E-01  0.4291E+00
     12.583  0.4324E-01  0.4351E+00
     12.723  0.3918E-01  0.4405E+00
     12.862  0.2261E-01  0.4437E+00
     13.001  0.3169E-01  0.4481E+00
     13.140  0.2757E-01  0.4519E+00
     13.279  0.2798E-01  0.4558E+00
     13.419  0.1489E-01  0.4579E+00
     13.558  0.2432E-01  0.4613E+00
     13.697  0.2453E-01  0.4647E+00
     13.836  0.2301E-01  0.4679E+00
     13.975  0.1688E-01  0.4702E+00
     14.115  0.1359E-01  0.4721E+00
     14.254  0.9112E-02  0.4734E+00
     14.393  0.5700E-02  0.4742E+00
     14.532  0.1403E-01  0.4762E+00
     14.671  0.7420E-02  0.4772E+00
     14.811  0.6144E-02  0.4780E+00
     14.950  0.3509E-02  0.4785E+00
     15.089  0.5759E-03  0.4786E+00
     15.228  0.3154E-02  0.4791E+00
     15.367  0.2908E-02  0.4795E+00
     15.506  0.3889E-02  0.4800E+00
     15.646  0.2442E-04  0.4800E+00
     15.785  0.2352E-12  0.4800E+00
     15.924  0.0000E+00  0.4800E+00
     16.063  0.0000E+00  0.4800E+00
     16.202  0.0000E+00  0.4800E+00
     16.342  0.0000E+00  0.4800E+00
     16.481  0.0000E+00  0.4800E+00
     16.620  0.0000E+00  0.4800E+00
     16.759  0.0000E+00  0.4800E+00
     16.898  0.0000E+00  0.4800E+00
     17.038  0.0000E+00  0.4800E+00
     17.177  0.0000E+00  0.4800E+00
     17.316  0.0000E+00  0.4800E+00
