 vasp.5.4.4.18Apr17-6-g9f103f2a35 (build Jan 14 2019 14:48:31) complex          
  
 executed on             LinuxIFC date 2019.09.10  15:54:03
 running on   24 total cores
 distrk:  each k-point on   24 cores,    1 groups
 distr:  one band on NCORES_PER_BAND=   1 cores,   24 groups


--------------------------------------------------------------------------------------------------------


 INCAR:
 POTCAR:    PAW_PBE C_h 06Feb2004                 

 ----------------------------------------------------------------------------- 
|                                                                             |
|           W    W    AA    RRRRR   N    N  II  N    N   GGGG   !!!           |
|           W    W   A  A   R    R  NN   N  II  NN   N  G    G  !!!           |
|           W    W  A    A  R    R  N N  N  II  N N  N  G       !!!           |
|           W WW W  AAAAAA  RRRRR   N  N N  II  N  N N  G  GGG   !            |
|           WW  WW  A    A  R   R   N   NN  II  N   NN  G    G                |
|           W    W  A    A  R    R  N    N  II  N    N   GGGG   !!!           |
|                                                                             |
|      For optimal performance we recommend to set                            |
|        NCORE= 4 - approx SQRT( number of cores)                             |
|      NCORE specifies how many cores store one orbital (NPAR=cpu/NCORE).     |
|      This setting can  greatly improve the performance of VASP for DFT.     |
|      The default,   NCORE=1            might be grossly inefficient         |
|      on modern multi-core architectures or massively parallel machines.     |
|      Do your own testing !!!!                                               |
|      Unfortunately you need to use the default for GW and RPA calculations. |
|      (for HF NCORE is supported but not extensively tested yet)             |
|                                                                             |
 ----------------------------------------------------------------------------- 

 POTCAR:    PAW_PBE C_h 06Feb2004                 
   VRHFIN =C: s2p2                                                              
   LEXCH  = PE                                                                  
   EATOM  =   147.1560 eV,   10.8157 Ry                                         
                                                                                
   TITEL  = PAW_PBE C_h 06Feb2004                                               
   LULTRA =        F    use ultrasoft PP ?                                      
   IUNSCR =        1    unscreen: 0-lin 1-nonlin 2-no                           
   RPACOR =    0.800    partial core radius                                     
   POMASS =   12.011; ZVAL   =    4.000    mass and valenz                      
   RCORE  =    1.100    outmost cutoff radius                                   
   RWIGS  =    1.630; RWIGS  =    0.863    wigner-seitz radius (au A)           
   ENMAX  =  700.000; ENMIN  =  500.000 eV                                      
   ICORE  =        2    local potential                                         
   LCOR   =        T    correct aug charges                                     
   LPAW   =        T    paw PP                                                  
   EAUG   =  946.768                                                            
   DEXC   =    0.000                                                            
   RMAX   =    1.128    core radius for proj-oper                               
   RAUG   =    1.300    factor for augmentation sphere                          
   RDEP   =    1.162    radius for radial grids                                 
   RDEPT  =    1.088    core radius for aug-charge                              
                                                                                
   Atomic configuration                                                         
    4 entries                                                                   
     n  l   j            E        occ.                                          
     1  0  0.50      -273.3789   2.0000                                         
     2  0  0.50       -13.7508   2.0000                                         
     2  1  0.50        -5.2854   2.0000                                         
     3  2  1.50        -5.4423   0.0000                                         
   Description                                                                  
     l       E           TYP  RCUT    TYP  RCUT                                 
     0    -13.7508458     23  1.100                                             
     0     -8.2022199     23  1.100                                             
     1     -5.2854383     23  1.100                                             
     1      1.1560700     23  1.100                                             
     2     -5.4423304      7  1.100                                             
  local pseudopotential read in
  partial core-charges read in
  partial kinetic energy density read in
  atomic valenz-charges read in
  non local Contribution for L=           0  read in
    real space projection operators read in
  non local Contribution for L=           0  read in
    real space projection operators read in
  non local Contribution for L=           1  read in
    real space projection operators read in
  non local Contribution for L=           1  read in
    real space projection operators read in
    PAW grid and wavefunctions read in
 
   number of l-projection  operators is LMAX  =           4
   number of lm-projection operators is LMMAX =           8
 
  PAW_PBE C_h 06Feb2004                 :
 energy of atom  1       EATOM= -147.1560
 kinetic energy error for atom=    0.0044 (will be added to EATOM!!)
 
 
 POSCAR: graphene                                
  positions in direct lattice
  velocities in cartesian coordinates
 exchange correlation table for  LEXCH =        8
   RHO(1)=    0.500       N(1)  =     2000
   RHO(2)=  100.500       N(2)  =     4000

 VTST: version 3.1, (03/28/14)

 CHAIN: initializing optimizer
 
 OPT: Using VASP Conjugate-Gradient optimizer
 CHAIN: Read ICHAIN            0
 
 POSCAR: graphene                                
  positions in direct lattice
  velocities in cartesian coordinates
 


--------------------------------------------------------------------------------------------------------


 ion  position               nearest neighbor table
   1  0.000  1.000  0.500-   2 1.43   2 1.43   2 1.43
   2  0.667  0.333  0.500-   1 1.43   1 1.43   1 1.43
 
  Warning from LATTYP: Got some problem with cell dimensions!
  Tried to take original basis but could not verify dimensions!
  LATTYP: Found a hexagonal cell.
 ALAT       =     2.4848699157
 C/A-ratio  =    12.1867118882
  
  Lattice vectors:
  
 A1 = (   2.4848699157,   0.0000000000,   0.0000000000)
 A2 = (  -1.2424349579,  -2.1519658867,   0.0000000000)
 A3 = (   0.0000000000,   0.0000000000, -30.2823937426)


Analysis of symmetry for initial positions (statically):
=====================================================================
 Subroutine PRICEL returns:
 Original cell was already a primitive cell.
 

 Routine SETGRP: Setting up the symmetry group for a 
 hexagonal supercell.


 Subroutine GETGRP returns: Found 24 space group operations
 (whereof 12 operations were pure point group operations)
 out of a pool of 24 trial point group operations.


The static configuration has the point symmetry D_3h.
 The point group associated with its full space group is D_6h.


Analysis of symmetry for dynamics (positions and initial velocities):
=====================================================================
 Subroutine PRICEL returns:
 Original cell was already a primitive cell.
 

 Routine SETGRP: Setting up the symmetry group for a 
 hexagonal supercell.


 Subroutine GETGRP returns: Found 24 space group operations
 (whereof 12 operations were pure point group operations)
 out of a pool of 24 trial point group operations.


The dynamic configuration has the point symmetry D_3h.
 The point group associated with its full space group is D_6h.


 Subroutine INISYM returns: Found 24 space group operations
 (whereof 12 operations are pure point group operations),
 and found     1 'primitive' translations

 
 
 KPOINTS: K-Mesh Generated with KP-Resolved Value 

Automatic generation of k-mesh.
Space group operators:
 irot       det(A)        alpha          n_x          n_y          n_z        tau_x        tau_y        tau_z
    1     1.000000     0.000000     1.000000     0.000000     0.000000     0.000000     0.000000     0.000000
    2    -1.000000    60.000000     0.000000     0.000000     1.000000     0.000000     0.000000     0.000000
    3     1.000000   120.000000     0.000000     0.000000     1.000000     0.000000     0.000000     0.000000
    4    -1.000000   180.000000     0.000000     0.000000     1.000000     0.000000     0.000000     0.000000
    5     1.000000   120.000000     0.000000     0.000000    -1.000000     0.000000     0.000000     0.000000
    6    -1.000000    60.000000     0.000000     0.000000    -1.000000     0.000000     0.000000     0.000000
    7    -1.000000   180.000000     1.000000     0.000000     0.000000     0.000000     0.000000     0.000000
    8     1.000000   180.000000     0.866026     0.499999     0.000000     0.000000     0.000000     0.000000
    9    -1.000000   180.000000    -0.500001    -0.866025     0.000000     0.000000     0.000000     0.000000
   10     1.000000   180.000000     0.000000     1.000000     0.000000     0.000000     0.000000     0.000000
   11    -1.000000   180.000000     0.500001    -0.866025     0.000000     0.000000     0.000000     0.000000
   12     1.000000   180.000000     0.866026    -0.499999     0.000000     0.000000     0.000000     0.000000
   13    -1.000000     0.000000     1.000000     0.000000     0.000000     0.666670     0.333330     0.000000
   14     1.000000    60.000000     0.000000     0.000000     1.000000     0.666670     0.333338     0.000000
   15    -1.000000   120.000000     0.000000     0.000000     1.000000     0.666662     0.333330     0.000000
   16     1.000000   180.000000     0.000000     0.000000     1.000000     0.666670     0.333330     0.000000
   17    -1.000000   120.000000     0.000000     0.000000    -1.000000     0.666670     0.333338     0.000000
   18     1.000000    60.000000     0.000000     0.000000    -1.000000     0.666662     0.333330     0.000000
   19     1.000000   180.000000     1.000000     0.000000     0.000000     0.666670     0.333330     0.000000
   20    -1.000000   180.000000     0.866026     0.499999     0.000000     0.666662     0.333330     0.000000
   21     1.000000   180.000000    -0.500001    -0.866025     0.000000     0.666670     0.333338     0.000000
   22    -1.000000   180.000000     0.000000     1.000000     0.000000     0.666670     0.333330     0.000000
   23     1.000000   180.000000     0.500001    -0.866025     0.000000     0.666662     0.333330     0.000000
   24    -1.000000   180.000000     0.866026    -0.499999     0.000000     0.666670     0.333338     0.000000
 
 Subroutine IBZKPT returns following result:
 ===========================================
 
 Found     42 irreducible k-points:
 
 Following reciprocal coordinates:
            Coordinates               Weight
  0.041667  0.041667  0.000000     48.000000
  0.125000  0.041667  0.000000     96.000000
  0.208333  0.041667  0.000000     96.000000
  0.291667  0.041667  0.000000     96.000000
  0.375000  0.041667  0.000000     96.000000
  0.458333  0.041667  0.000000     96.000000
 -0.458333  0.041667  0.000000     96.000000
 -0.375000  0.041667  0.000000     96.000000
 -0.291667  0.041667  0.000000     96.000000
 -0.208333  0.041667  0.000000     96.000000
 -0.125000  0.041667  0.000000     96.000000
 -0.041667  0.041667  0.000000     48.000000
  0.125000  0.125000  0.000000     48.000000
  0.208333  0.125000  0.000000     96.000000
  0.291667  0.125000  0.000000     96.000000
  0.375000  0.125000  0.000000     96.000000
  0.458333  0.125000  0.000000     96.000000
 -0.458333  0.125000  0.000000     96.000000
 -0.375000  0.125000  0.000000     96.000000
 -0.291667  0.125000  0.000000     96.000000
 -0.208333  0.125000  0.000000     96.000000
 -0.125000  0.125000  0.000000     48.000000
  0.208333  0.208333  0.000000     48.000000
  0.291667  0.208333  0.000000     96.000000
  0.375000  0.208333  0.000000     96.000000
  0.458333  0.208333  0.000000     96.000000
 -0.458333  0.208333  0.000000     96.000000
 -0.375000  0.208333  0.000000     96.000000
 -0.291667  0.208333  0.000000     96.000000
 -0.208333  0.208333  0.000000     48.000000
  0.291667  0.291667  0.000000     48.000000
  0.375000  0.291667  0.000000     96.000000
  0.458333  0.291667  0.000000     96.000000
 -0.458333  0.291667  0.000000     96.000000
 -0.375000  0.291667  0.000000     96.000000
 -0.291667  0.291667  0.000000     48.000000
  0.375000  0.375000  0.000000     48.000000
  0.458333  0.375000  0.000000     96.000000
 -0.458333  0.375000  0.000000     96.000000
 -0.375000  0.375000  0.000000     48.000000
  0.458333  0.458333  0.000000     48.000000
 -0.458333  0.458333  0.000000     48.000000
 
 Following cartesian coordinates:
            Coordinates               Weight
  0.082499  0.000000  0.000000     48.000000
  0.164999 -0.047631  0.000000     96.000000
  0.247498 -0.095262  0.000000     96.000000
  0.329997 -0.142893  0.000000     96.000000
  0.412496 -0.190523  0.000000     96.000000
  0.494996 -0.238154  0.000000     96.000000
 -0.412496  0.285785  0.000000     96.000000
 -0.329997  0.238154  0.000000     96.000000
 -0.247498  0.190523  0.000000     96.000000
 -0.164999  0.142893  0.000000     96.000000
 -0.082499  0.095262  0.000000     96.000000
  0.000000  0.047631  0.000000     48.000000
  0.247498  0.000000  0.000000     48.000000
  0.329997 -0.047631  0.000000     96.000000
  0.412496 -0.095262  0.000000     96.000000
  0.494996 -0.142893  0.000000     96.000000
  0.577495 -0.190523  0.000000     96.000000
 -0.329997  0.333416  0.000000     96.000000
 -0.247498  0.285785  0.000000     96.000000
 -0.164999  0.238154  0.000000     96.000000
 -0.082499  0.190523  0.000000     96.000000
  0.000000  0.142893  0.000000     48.000000
  0.412496  0.000000  0.000000     48.000000
  0.494996 -0.047631  0.000000     96.000000
  0.577495 -0.095262  0.000000     96.000000
  0.659994 -0.142893  0.000000     96.000000
 -0.247498  0.381047  0.000000     96.000000
 -0.164999  0.333416  0.000000     96.000000
 -0.082499  0.285785  0.000000     96.000000
  0.000000  0.238154  0.000000     48.000000
  0.577495  0.000000  0.000000     48.000000
  0.659994 -0.047631  0.000000     96.000000
  0.742494 -0.095262  0.000000     96.000000
 -0.164999  0.428678  0.000000     96.000000
 -0.082499  0.381047  0.000000     96.000000
  0.000000  0.333416  0.000000     48.000000
  0.742494  0.000000  0.000000     48.000000
  0.824993 -0.047631  0.000000     96.000000
 -0.082499  0.476309  0.000000     96.000000
  0.000000  0.428678  0.000000     48.000000
  0.907492  0.000000  0.000000     48.000000
  0.000000  0.523940  0.000000     48.000000
 


--------------------------------------------------------------------------------------------------------




 Dimension of arrays:
   k-points           NKPTS =     42   k-points in BZ     NKDIM =     42   number of bands    NBANDS=     24
   number of dos      NEDOS =    301   number of ions     NIONS =      2
   non local maximal  LDIM  =      4   non local SUM 2l+1 LMDIM =      8
   total plane-waves  NPLWV = 169344
   max r-space proj   IRMAX =      1   max aug-charges    IRDMAX=   2987
   dimension x,y,z NGX =    24 NGY =   24 NGZ =  294
   dimension x,y,z NGXF=    36 NGYF=   36 NGZF=  420
   support grid    NGXF=    36 NGYF=   36 NGZF=  420
   ions per type =               2
   NGX,Y,Z   is equivalent  to a cutoff of  16.06, 16.06, 16.14 a.u.
   NGXF,Y,Z  is equivalent  to a cutoff of  24.09, 24.09, 23.06 a.u.

 SYSTEM =  unknown system                          
 POSCAR =  graphene                                

 Startparameter for this run:
   NWRITE =      2    write-flag & timer
   PREC   = high      normal or accurate (medium, high low for compatibility)
   ISTART =      0    job   : 0-new  1-cont  2-samecut
   ICHARG =      2    charge: 1-file 2-atom 10-const
   ISPIN  =      1    spin polarized calculation?
   LNONCOLLINEAR =      F non collinear calculations
   LSORBIT =      F    spin-orbit coupling
   INIWAV =      1    electr: 0-lowe 1-rand  2-diag
   LASPH  =      F    aspherical Exc in radial PAW
   METAGGA=      F    non-selfconsistent MetaGGA calc.

 Electronic Relaxation 1
   ENCUT  =  875.0 eV  64.31 Ry    8.02 a.u.   5.99  5.99 73.04*2*pi/ulx,y,z
   ENINI  =  875.0     initial cutoff
   ENAUG  =  946.8 eV  augmentation charge cutoff
   NELM   =     40;   NELMIN=  2; NELMDL=  0     # of ELM steps 
   EDIFF  = 0.1E-06   stopping-criterion for ELM
   LREAL  =      F    real-space projection
   NLSPLINE    = F    spline interpolate recip. space projectors
   LCOMPAT=      F    compatible to vasp.4.4
   GGA_COMPAT  = T    GGA compatible to vasp.4.4-vasp.4.6
   LMAXPAW     = -100 max onsite density
   LMAXMIX     =    2 max onsite mixed and CHGCAR
   VOSKOWN=      0    Vosko Wilk Nusair interpolation
   ROPT   =    0.00000
 Ionic relaxation
   EDIFFG = -.1E-01   stopping-criterion for IOM
   NSW    =    100    number of steps for IOM
   NBLOCK =      1;   KBLOCK =    100    inner block; outer block 
   IBRION =      2    ionic relax: 0-MD 1-quasi-New 2-CG
   NFREE  =      1    steps in history (QN), initial steepest desc. (CG)
   ISIF   =      2    stress and relaxation
   IWAVPR =     11    prediction:  0-non 1-charg 2-wave 3-comb
   ISYM   =      2    0-nonsym 1-usesym 2-fastsym
   LCORR  =      T    Harris-Foulkes like correction to forces

   POTIM  = 0.5000    time-step for ionic-motion
   TEIN   =    0.0    initial temperature
   TEBEG  =    0.0;   TEEND  =   0.0 temperature during run
   SMASS  =  -3.00    Nose mass-parameter (am)
   estimated Nose-frequenzy (Omega)   =  0.10E-29 period in steps =****** mass=  -0.141E-27a.u.
   SCALEE = 1.0000    scale energy and forces
   NPACO  =    256;   APACO  = 16.0  distance and # of slots for P.C.
   PSTRESS=    0.0 pullay stress

  Mass of Ions in am
   POMASS =  12.01
  Ionic Valenz
   ZVAL   =   4.00
  Atomic Wigner-Seitz radii
   RWIGS  =  -1.00
  virtual crystal weights 
   VCA    =   1.00
   NELECT =       8.0000    total number of electrons
   NUPDOWN=      -1.0000    fix difference up-down

 DOS related values:
   EMIN   =  10.00;   EMAX   =-10.00  energy-range for DOS
   EFERMI =   0.00
   ISMEAR =     0;   SIGMA  =   0.05  broadening in eV -4-tet -1-fermi 0-gaus

 Electronic relaxation 2 (details)
   IALGO  =     48    algorithm
   LDIAG  =      T    sub-space diagonalisation (order eigenvalues)
   LSUBROT=      F    optimize rotation matrix (better conditioning)
   TURBO    =      0    0=normal 1=particle mesh
   IRESTART =      0    0=no restart 2=restart with 2 vectors
   NREBOOT  =      0    no. of reboots
   NMIN     =      0    reboot dimension
   EREF     =   0.00    reference energy to select bands
   IMIX   =      4    mixing-type and parameters
     AMIX     =   0.40;   BMIX     =  1.00
     AMIX_MAG =   1.60;   BMIX_MAG =  1.00
     AMIN     =   0.10
     WC   =   100.;   INIMIX=   1;  MIXPRE=   1;  MAXMIX= -45

 Intra band minimization:
   WEIMIN = 0.0010     energy-eigenvalue tresh-hold
   EBREAK =  0.10E-08  absolut break condition
   DEPER  =   0.30     relativ break condition  

   TIME   =   0.40     timestep for ELM

  volume/ion in A,a.u.               =      80.97       546.38
  Fermi-wavevector in a.u.,A,eV,Ry     =   0.600706  1.135169  4.909626  0.360847
  Thomas-Fermi vector in A             =   1.652665
 
 Write flags
   LWAVE        =      F    write WAVECAR
   LDOWNSAMPLE  =      F    k-point downsampling of WAVECAR
   LCHARG       =      F    write CHGCAR
   LVTOT        =      F    write LOCPOT, total local potential
   LVHAR        =      F    write LOCPOT, Hartree potential only
   LELF         =      F    write electronic localiz. function (ELF)
   LORBIT       =      0    0 simple, 1 ext, 2 COOP (PROOUT), +10 PAW based schemes


 Dipole corrections
   LMONO  =      F    monopole corrections only (constant potential shift)
   LDIPOL =      F    correct potential (dipole corrections)
   IDIPOL =      0    1-x, 2-y, 3-z, 4-all directions 
   EPSILON=  1.0000000 bulk dielectric constant

 Exchange correlation treatment:
   GGA     =    --    GGA type
   LEXCH   =     8    internal setting for exchange type
   VOSKOWN=      0    Vosko Wilk Nusair interpolation
   LHFCALC =     F    Hartree Fock is set to
   LHFONE  =     F    Hartree Fock one center treatment
   AEXX    =    0.0000 exact exchange contribution

 Linear response parameters
   LEPSILON=     F    determine dielectric tensor
   LRPA    =     F    only Hartree local field effects (RPA)
   LNABLA  =     F    use nabla operator in PAW spheres
   LVEL    =     F    velocity operator in full k-point grid
   LINTERFAST=   F  fast interpolation
   KINTER  =     0    interpolate to denser k-point grid
   CSHIFT  =0.1000    complex shift for real part using Kramers Kronig
   OMEGAMAX=  -1.0    maximum frequency
   DEG_THRESHOLD= 0.2000000E-02 threshold for treating states as degnerate
   RTIME   =   -0.100 relaxation time in fs
  (WPLASMAI=    0.000 imaginary part of plasma frequency in eV, 0.658/RTIME)
   DFIELD  = 0.0000000 0.0000000 0.0000000 field for delta impulse in time
 
 Orbital magnetization related:
   ORBITALMAG=     F  switch on orbital magnetization
   LCHIMAG   =     F  perturbation theory with respect to B field
   DQ        =  0.001000  dq finite difference perturbation B field
   LLRAUG    =     F  two centre corrections for induced B field



--------------------------------------------------------------------------------------------------------


 conjugate gradient relaxation of ions
 charge density and potential will be updated during run
 non-spin polarized calculation
 RMM-DIIS sequential band-by-band
 perform sub-space diagonalisation
    before iterative eigenvector-optimisation
 modified Broyden-mixing scheme, WC =      100.0
 initial mixing is a Kerker type mixing with AMIX =  0.4000 and BMIX =      1.0000
 Hartree-type preconditioning will be used
 using additional bands           20
 reciprocal scheme for non local part
 use partial core corrections
 calculate Harris-corrections to forces 
   (improved forces if not selfconsistent)
 use gradient corrections 
 use of overlap-Matrix (Vanderbilt PP)
 Gauss-broadening in eV      SIGMA  =   0.05


--------------------------------------------------------------------------------------------------------


  energy-cutoff  :      875.00
  volume of cell :      161.93
      direct lattice vectors                 reciprocal lattice vectors
     1.242434958 -2.151965887  0.000000000     0.402435554 -0.232345691  0.000000000
     1.242434958  2.151965887  0.000000000     0.402435554  0.232345691  0.000000000
     0.000000000  0.000000000 30.282393743     0.000000000  0.000000000  0.033022489

  length of vectors
     2.484874605  2.484874605 30.282393743     0.464692258  0.464692258  0.033022489


 
 k-points in units of 2pi/SCALE and weight: K-Mesh Generated with KP-Resolved Value 
   0.08249929  0.00000000  0.00000000       0.014
   0.16499858 -0.04763087  0.00000000       0.028
   0.24749787 -0.09526173  0.00000000       0.028
   0.32999715 -0.14289260  0.00000000       0.028
   0.41249644 -0.19052347  0.00000000       0.028
   0.49499573 -0.23815433  0.00000000       0.028
  -0.41249644  0.28578520  0.00000000       0.028
  -0.32999715  0.23815433  0.00000000       0.028
  -0.24749787  0.19052347  0.00000000       0.028
  -0.16499858  0.14289260  0.00000000       0.028
  -0.08249929  0.09526173  0.00000000       0.028
   0.00000000  0.04763087  0.00000000       0.014
   0.24749787  0.00000000  0.00000000       0.014
   0.32999715 -0.04763087  0.00000000       0.028
   0.41249644 -0.09526173  0.00000000       0.028
   0.49499573 -0.14289260  0.00000000       0.028
   0.57749502 -0.19052347  0.00000000       0.028
  -0.32999715  0.33341607  0.00000000       0.028
  -0.24749787  0.28578520  0.00000000       0.028
  -0.16499858  0.23815433  0.00000000       0.028
  -0.08249929  0.19052347  0.00000000       0.028
   0.00000000  0.14289260  0.00000000       0.014
   0.41249644  0.00000000  0.00000000       0.014
   0.49499573 -0.04763087  0.00000000       0.028
   0.57749502 -0.09526173  0.00000000       0.028
   0.65999431 -0.14289260  0.00000000       0.028
  -0.24749787  0.38104693  0.00000000       0.028
  -0.16499858  0.33341607  0.00000000       0.028
  -0.08249929  0.28578520  0.00000000       0.028
   0.00000000  0.23815433  0.00000000       0.014
   0.57749502  0.00000000  0.00000000       0.014
   0.65999431 -0.04763087  0.00000000       0.028
   0.74249360 -0.09526173  0.00000000       0.028
  -0.16499858  0.42867780  0.00000000       0.028
  -0.08249929  0.38104693  0.00000000       0.028
   0.00000000  0.33341607  0.00000000       0.014
   0.74249360  0.00000000  0.00000000       0.014
   0.82499288 -0.04763087  0.00000000       0.028
  -0.08249929  0.47630867  0.00000000       0.028
   0.00000000  0.42867780  0.00000000       0.014
   0.90749217  0.00000000  0.00000000       0.014
   0.00000000  0.52393953  0.00000000       0.014
 
 k-points in reciprocal lattice and weights: K-Mesh Generated with KP-Resolved Value 
   0.04166667  0.04166667  0.00000000       0.014
   0.12500000  0.04166667  0.00000000       0.028
   0.20833333  0.04166667  0.00000000       0.028
   0.29166667  0.04166667  0.00000000       0.028
   0.37500000  0.04166667  0.00000000       0.028
   0.45833333  0.04166667  0.00000000       0.028
  -0.45833333  0.04166667  0.00000000       0.028
  -0.37500000  0.04166667  0.00000000       0.028
  -0.29166667  0.04166667  0.00000000       0.028
  -0.20833333  0.04166667  0.00000000       0.028
  -0.12500000  0.04166667  0.00000000       0.028
  -0.04166667  0.04166667  0.00000000       0.014
   0.12500000  0.12500000  0.00000000       0.014
   0.20833333  0.12500000  0.00000000       0.028
   0.29166667  0.12500000  0.00000000       0.028
   0.37500000  0.12500000  0.00000000       0.028
   0.45833333  0.12500000  0.00000000       0.028
  -0.45833333  0.12500000  0.00000000       0.028
  -0.37500000  0.12500000  0.00000000       0.028
  -0.29166667  0.12500000  0.00000000       0.028
  -0.20833333  0.12500000  0.00000000       0.028
  -0.12500000  0.12500000  0.00000000       0.014
   0.20833333  0.20833333  0.00000000       0.014
   0.29166667  0.20833333  0.00000000       0.028
   0.37500000  0.20833333  0.00000000       0.028
   0.45833333  0.20833333  0.00000000       0.028
  -0.45833333  0.20833333  0.00000000       0.028
  -0.37500000  0.20833333  0.00000000       0.028
  -0.29166667  0.20833333  0.00000000       0.028
  -0.20833333  0.20833333  0.00000000       0.014
   0.29166667  0.29166667  0.00000000       0.014
   0.37500000  0.29166667  0.00000000       0.028
   0.45833333  0.29166667  0.00000000       0.028
  -0.45833333  0.29166667  0.00000000       0.028
  -0.37500000  0.29166667  0.00000000       0.028
  -0.29166667  0.29166667  0.00000000       0.014
   0.37500000  0.37500000  0.00000000       0.014
   0.45833333  0.37500000  0.00000000       0.028
  -0.45833333  0.37500000  0.00000000       0.028
  -0.37500000  0.37500000  0.00000000       0.014
   0.45833333  0.45833333  0.00000000       0.014
  -0.45833333  0.45833333  0.00000000       0.014
 
 position of ions in fractional coordinates (direct lattice) 
   0.00000262  0.99999738  0.50000000
   0.66666738  0.33333262  0.50000000
 
 position of ions in cartesian coordinates  (Angst):
   1.24243496  2.15195460 15.14119687
   1.24243496 -0.71732502 15.14119687
 


--------------------------------------------------------------------------------------------------------


 k-point  1 :   0.0417 0.0417 0.0000  plane waves:    9400
 k-point  2 :   0.1250 0.0417 0.0000  plane waves:    9445
 k-point  3 :   0.2083 0.0417 0.0000  plane waves:    9471
 k-point  4 :   0.2917 0.0417 0.0000  plane waves:    9488
 k-point  5 :   0.3750 0.0417 0.0000  plane waves:    9502
 k-point  6 :   0.4583 0.0417 0.0000  plane waves:    9528
 k-point  7 :  -0.4583 0.0417 0.0000  plane waves:    9503
 k-point  8 :  -0.3750 0.0417 0.0000  plane waves:    9494
 k-point  9 :  -0.2917 0.0417 0.0000  plane waves:    9475
 k-point 10 :  -0.2083 0.0417 0.0000  plane waves:    9462
 k-point 11 :  -0.1250 0.0417 0.0000  plane waves:    9410
 k-point 12 :  -0.0417 0.0417 0.0000  plane waves:    9369
 k-point 13 :   0.1250 0.1250 0.0000  plane waves:    9480
 k-point 14 :   0.2083 0.1250 0.0000  plane waves:    9505
 k-point 15 :   0.2917 0.1250 0.0000  plane waves:    9521
 k-point 16 :   0.3750 0.1250 0.0000  plane waves:    9567
 k-point 17 :   0.4583 0.1250 0.0000  plane waves:    9559
 k-point 18 :  -0.4583 0.1250 0.0000  plane waves:    9544
 k-point 19 :  -0.3750 0.1250 0.0000  plane waves:    9525
 k-point 20 :  -0.2917 0.1250 0.0000  plane waves:    9484
 k-point 21 :  -0.2083 0.1250 0.0000  plane waves:    9463
 k-point 22 :  -0.1250 0.1250 0.0000  plane waves:    9417
 k-point 23 :   0.2083 0.2083 0.0000  plane waves:    9536
 k-point 24 :   0.2917 0.2083 0.0000  plane waves:    9565
 k-point 25 :   0.3750 0.2083 0.0000  plane waves:    9602
 k-point 26 :   0.4583 0.2083 0.0000  plane waves:    9594
 k-point 27 :  -0.4583 0.2083 0.0000  plane waves:    9533
 k-point 28 :  -0.3750 0.2083 0.0000  plane waves:    9511
 k-point 29 :  -0.2917 0.2083 0.0000  plane waves:    9479
 k-point 30 :  -0.2083 0.2083 0.0000  plane waves:    9472
 k-point 31 :   0.2917 0.2917 0.0000  plane waves:    9608
 k-point 32 :   0.3750 0.2917 0.0000  plane waves:    9632
 k-point 33 :   0.4583 0.2917 0.0000  plane waves:    9584
 k-point 34 :  -0.4583 0.2917 0.0000  plane waves:    9540
 k-point 35 :  -0.3750 0.2917 0.0000  plane waves:    9523
 k-point 36 :  -0.2917 0.2917 0.0000  plane waves:    9478
 k-point 37 :   0.3750 0.3750 0.0000  plane waves:    9598
 k-point 38 :   0.4583 0.3750 0.0000  plane waves:    9590
 k-point 39 :  -0.4583 0.3750 0.0000  plane waves:    9535
 k-point 40 :  -0.3750 0.3750 0.0000  plane waves:    9472
 k-point 41 :   0.4583 0.4583 0.0000  plane waves:    9548
 k-point 42 :  -0.4583 0.4583 0.0000  plane waves:    9502

 maximum and minimum number of plane-waves per node :      9632     9369

 maximum number of plane-waves:      9632
 maximum index in each direction: 
   IXMAX=    6   IYMAX=    5   IZMAX=   73
   IXMIN=   -6   IYMIN=   -6   IZMIN=  -73


 serial   3D FFT for wavefunctions
 parallel 3D FFT for charge:
    minimum data exchange during FFTs selected (reduces bandwidth)


 total amount of memory used by VASP MPI-rank0    72669. kBytes
=======================================================================

   base      :      30000. kBytes
   nonl-proj :      26242. kBytes
   fftplans  :       1683. kBytes
   grid      :       8239. kBytes
   one-center:          6. kBytes
   wavefun   :       6499. kBytes
 
     INWAV:  cpu time    0.0000: real time    0.0000
 Broyden mixing: mesh for mixing (old mesh)
   NGX = 11   NGY = 11   NGZ =147
  (NGX  = 36   NGY  = 36   NGZ  =420)
  gives a total of  17787 points

 initial charge density was supplied:
 charge density of overlapping atoms calculated
 number of electron       8.0000000 magnetization 
 keeping initial charge density in first step


--------------------------------------------------------------------------------------------------------


 Maximum index for augmentation-charges          213 (set IRDMAX)


--------------------------------------------------------------------------------------------------------


 First call to EWALD:  gamma=   0.325
 Maximum number of real-space cells 6x 6x 1
 Maximum number of reciprocal cells 2x 2x13

    FEWALD:  cpu time    0.0020: real time    0.0050


--------------------------------------- Iteration      1(   1)  ---------------------------------------


    POTLOK:  cpu time    0.0350: real time    0.0608
    SETDIJ:  cpu time    0.0110: real time    0.0181
    EDDIAG:  cpu time    0.6529: real time    0.7479
  RMM-DIIS:  cpu time    1.2298: real time    1.2619
    ORTHCH:  cpu time    0.0310: real time    0.0311
       DOS:  cpu time    0.0030: real time    0.0124
    --------------------------------------------
      LOOP:  cpu time    1.9627: real time    2.1331

 eigenvalue-minimisations  :  1008
 total energy-change (2. order) : 0.9966486E+02  (-0.1509010E+03)
 number of electron       8.0000000 magnetization 
 augmentation part        8.0000000 magnetization 

 Free energy of the ion-electron system (eV)
  ---------------------------------------------------
  alpha Z        PSCENC =         1.35417775
  Ewald energy   TEWEN  =      2199.00021856
  -Hartree energ DENC   =     -2406.38898787
  -exchange      EXHF   =         0.00000000
  -V(xc)+E(xc)   XCENC  =        14.39733463
  PAW double counting   =       228.69403340     -218.18290438
  entropy T*S    EENTRO =        -0.00083941
  eigenvalues    EBANDS =       -13.51137012
  atomic energy  EATOM  =       294.30319316
  Solvation  Ediel_sol  =         0.00000000
  ---------------------------------------------------
  free energy    TOTEN  =        99.66485571 eV

  energy without entropy =       99.66569512  energy(sigma->0) =       99.66527542


--------------------------------------------------------------------------------------------------------




--------------------------------------- Iteration      1(   2)  ---------------------------------------


    EDDIAG:  cpu time    0.6289: real time    0.6450
  RMM-DIIS:  cpu time    1.2118: real time    1.2137
    ORTHCH:  cpu time    0.0310: real time    0.0310
       DOS:  cpu time    0.0010: real time    0.0007
    --------------------------------------------
      LOOP:  cpu time    1.8727: real time    1.8894

 eigenvalue-minimisations  :  1008
 total energy-change (2. order) :-0.5062519E+02  (-0.3034240E+02)
 number of electron       8.0000000 magnetization 
 augmentation part        8.0000000 magnetization 

 Free energy of the ion-electron system (eV)
  ---------------------------------------------------
  alpha Z        PSCENC =         1.35417775
  Ewald energy   TEWEN  =      2199.00021856
  -Hartree energ DENC   =     -2406.38898787
  -exchange      EXHF   =         0.00000000
  -V(xc)+E(xc)   XCENC  =        14.39733463
  PAW double counting   =       228.69403340     -218.18290438
  entropy T*S    EENTRO =        -0.00320533
  eigenvalues    EBANDS =       -64.13419515
  atomic energy  EATOM  =       294.30319316
  Solvation  Ediel_sol  =         0.00000000
  ---------------------------------------------------
  free energy    TOTEN  =        49.03966477 eV

  energy without entropy =       49.04287010  energy(sigma->0) =       49.04126743


--------------------------------------------------------------------------------------------------------




--------------------------------------- Iteration      1(   3)  ---------------------------------------


    EDDIAG:  cpu time    0.6309: real time    0.6453
  RMM-DIIS:  cpu time    1.2208: real time    1.2234
    ORTHCH:  cpu time    0.0310: real time    0.0314
       DOS:  cpu time    0.0010: real time    0.0007
    --------------------------------------------
      LOOP:  cpu time    1.8837: real time    1.9008

 eigenvalue-minimisations  :  1008
 total energy-change (2. order) :-0.3878554E+02  (-0.1988649E+02)
 number of electron       8.0000000 magnetization 
 augmentation part        8.0000000 magnetization 

 Free energy of the ion-electron system (eV)
  ---------------------------------------------------
  alpha Z        PSCENC =         1.35417775
  Ewald energy   TEWEN  =      2199.00021856
  -Hartree energ DENC   =     -2406.38898787
  -exchange      EXHF   =         0.00000000
  -V(xc)+E(xc)   XCENC  =        14.39733463
  PAW double counting   =       228.69403340     -218.18290438
  entropy T*S    EENTRO =        -0.00290863
  eigenvalues    EBANDS =      -102.92003296
  atomic energy  EATOM  =       294.30319316
  Solvation  Ediel_sol  =         0.00000000
  ---------------------------------------------------
  free energy    TOTEN  =        10.25412365 eV

  energy without entropy =       10.25703229  energy(sigma->0) =       10.25557797


--------------------------------------------------------------------------------------------------------




--------------------------------------- Iteration      1(   4)  ---------------------------------------


    EDDIAG:  cpu time    0.6279: real time    0.6436
  RMM-DIIS:  cpu time    1.2138: real time    1.2165
    ORTHCH:  cpu time    0.0310: real time    0.0310
       DOS:  cpu time    0.0000: real time    0.0007
    --------------------------------------------
      LOOP:  cpu time    1.8737: real time    1.8918

 eigenvalue-minimisations  :  1008
 total energy-change (2. order) :-0.2349206E+02  (-0.1449877E+02)
 number of electron       8.0000000 magnetization 
 augmentation part        8.0000000 magnetization 

 Free energy of the ion-electron system (eV)
  ---------------------------------------------------
  alpha Z        PSCENC =         1.35417775
  Ewald energy   TEWEN  =      2199.00021856
  -Hartree energ DENC   =     -2406.38898787
  -exchange      EXHF   =         0.00000000
  -V(xc)+E(xc)   XCENC  =        14.39733463
  PAW double counting   =       228.69403340     -218.18290438
  entropy T*S    EENTRO =        -0.00078360
  eigenvalues    EBANDS =      -126.41422057
  atomic energy  EATOM  =       294.30319316
  Solvation  Ediel_sol  =         0.00000000
  ---------------------------------------------------
  free energy    TOTEN  =       -13.23793892 eV

  energy without entropy =      -13.23715532  energy(sigma->0) =      -13.23754712


--------------------------------------------------------------------------------------------------------




--------------------------------------- Iteration      1(   5)  ---------------------------------------


    EDDIAG:  cpu time    0.6309: real time    0.6420
  RMM-DIIS:  cpu time    1.2148: real time    1.2177
    ORTHCH:  cpu time    0.0310: real time    0.0310
       DOS:  cpu time    0.0010: real time    0.0004
    --------------------------------------------
      LOOP:  cpu time    1.8767: real time    1.8911

 eigenvalue-minimisations  :  1008
 total energy-change (2. order) :-0.5007293E+01  (-0.3879735E+01)
 number of electron       8.0000000 magnetization 
 augmentation part        8.0000000 magnetization 

 Free energy of the ion-electron system (eV)
  ---------------------------------------------------
  alpha Z        PSCENC =         1.35417775
  Ewald energy   TEWEN  =      2199.00021856
  -Hartree energ DENC   =     -2406.38898787
  -exchange      EXHF   =         0.00000000
  -V(xc)+E(xc)   XCENC  =        14.39733463
  PAW double counting   =       228.69403340     -218.18290438
  entropy T*S    EENTRO =        -0.00000000
  eigenvalues    EBANDS =      -131.42229741
  atomic energy  EATOM  =       294.30319316
  Solvation  Ediel_sol  =         0.00000000
  ---------------------------------------------------
  free energy    TOTEN  =       -18.24523216 eV

  energy without entropy =      -18.24523216  energy(sigma->0) =      -18.24523216


--------------------------------------------------------------------------------------------------------




--------------------------------------- Iteration      1(   6)  ---------------------------------------


    EDDIAG:  cpu time    0.6279: real time    0.6416
  RMM-DIIS:  cpu time    1.1968: real time    1.1998
    ORTHCH:  cpu time    0.0310: real time    0.0310
       DOS:  cpu time    0.0000: real time    0.0004
    --------------------------------------------
      LOOP:  cpu time    1.8557: real time    1.8728

 eigenvalue-minimisations  :  1008
 total energy-change (2. order) :-0.1070602E+01  (-0.8763937E+00)
 number of electron       8.0000000 magnetization 
 augmentation part        8.0000000 magnetization 

 Free energy of the ion-electron system (eV)
  ---------------------------------------------------
  alpha Z        PSCENC =         1.35417775
  Ewald energy   TEWEN  =      2199.00021856
  -Hartree energ DENC   =     -2406.38898787
  -exchange      EXHF   =         0.00000000
  -V(xc)+E(xc)   XCENC  =        14.39733463
  PAW double counting   =       228.69403340     -218.18290438
  entropy T*S    EENTRO =        -0.00000000
  eigenvalues    EBANDS =      -132.49289936
  atomic energy  EATOM  =       294.30319316
  Solvation  Ediel_sol  =         0.00000000
  ---------------------------------------------------
  free energy    TOTEN  =       -19.31583411 eV

  energy without entropy =      -19.31583411  energy(sigma->0) =      -19.31583411


--------------------------------------------------------------------------------------------------------




--------------------------------------- Iteration      1(   7)  ---------------------------------------


    EDDIAG:  cpu time    0.6409: real time    0.6446
  RMM-DIIS:  cpu time    1.2148: real time    1.2210
    ORTHCH:  cpu time    0.0310: real time    0.0312
       DOS:  cpu time    0.0010: real time    0.0005
    --------------------------------------------
      LOOP:  cpu time    1.8877: real time    1.8972

 eigenvalue-minimisations  :  1008
 total energy-change (2. order) :-0.2382201E+00  (-0.1998490E+00)
 number of electron       8.0000000 magnetization 
 augmentation part        8.0000000 magnetization 

 Free energy of the ion-electron system (eV)
  ---------------------------------------------------
  alpha Z        PSCENC =         1.35417775
  Ewald energy   TEWEN  =      2199.00021856
  -Hartree energ DENC   =     -2406.38898787
  -exchange      EXHF   =         0.00000000
  -V(xc)+E(xc)   XCENC  =        14.39733463
  PAW double counting   =       228.69403340     -218.18290438
  entropy T*S    EENTRO =        -0.00000000
  eigenvalues    EBANDS =      -132.73111949
  atomic energy  EATOM  =       294.30319316
  Solvation  Ediel_sol  =         0.00000000
  ---------------------------------------------------
  free energy    TOTEN  =       -19.55405424 eV

  energy without entropy =      -19.55405424  energy(sigma->0) =      -19.55405424


--------------------------------------------------------------------------------------------------------




--------------------------------------- Iteration      1(   8)  ---------------------------------------


    EDDIAG:  cpu time    0.6379: real time    0.6412
  RMM-DIIS:  cpu time    1.2088: real time    1.2133
    ORTHCH:  cpu time    0.0300: real time    0.0309
       DOS:  cpu time    0.0000: real time    0.0004
    --------------------------------------------
      LOOP:  cpu time    1.8777: real time    1.8858

 eigenvalue-minimisations  :  1008
 total energy-change (2. order) :-0.6302630E-01  (-0.5171417E-01)
 number of electron       8.0000000 magnetization 
 augmentation part        8.0000000 magnetization 

 Free energy of the ion-electron system (eV)
  ---------------------------------------------------
  alpha Z        PSCENC =         1.35417775
  Ewald energy   TEWEN  =      2199.00021856
  -Hartree energ DENC   =     -2406.38898787
  -exchange      EXHF   =         0.00000000
  -V(xc)+E(xc)   XCENC  =        14.39733463
  PAW double counting   =       228.69403340     -218.18290438
  entropy T*S    EENTRO =        -0.00000000
  eigenvalues    EBANDS =      -132.79414578
  atomic energy  EATOM  =       294.30319316
  Solvation  Ediel_sol  =         0.00000000
  ---------------------------------------------------
  free energy    TOTEN  =       -19.61708054 eV

  energy without entropy =      -19.61708054  energy(sigma->0) =      -19.61708054


--------------------------------------------------------------------------------------------------------




--------------------------------------- Iteration      1(   9)  ---------------------------------------


    EDDIAG:  cpu time    0.6309: real time    0.6448
  RMM-DIIS:  cpu time    2.3376: real time    2.3797
    ORTHCH:  cpu time    0.0310: real time    0.0311
       DOS:  cpu time    0.0000: real time    0.0004
    --------------------------------------------
      LOOP:  cpu time    2.9995: real time    3.0560

 eigenvalue-minimisations  :  2029
 total energy-change (2. order) :-0.2332972E-01  (-0.2019620E-01)
 number of electron       8.0000000 magnetization 
 augmentation part        8.0000000 magnetization 

 Free energy of the ion-electron system (eV)
  ---------------------------------------------------
  alpha Z        PSCENC =         1.35417775
  Ewald energy   TEWEN  =      2199.00021856
  -Hartree energ DENC   =     -2406.38898787
  -exchange      EXHF   =         0.00000000
  -V(xc)+E(xc)   XCENC  =        14.39733463
  PAW double counting   =       228.69403340     -218.18290438
  entropy T*S    EENTRO =        -0.00000000
  eigenvalues    EBANDS =      -132.81747550
  atomic energy  EATOM  =       294.30319316
  Solvation  Ediel_sol  =         0.00000000
  ---------------------------------------------------
  free energy    TOTEN  =       -19.64041026 eV

  energy without entropy =      -19.64041026  energy(sigma->0) =      -19.64041026


--------------------------------------------------------------------------------------------------------




--------------------------------------- Iteration      1(  10)  ---------------------------------------


    EDDIAG:  cpu time    0.6269: real time    0.6406
  RMM-DIIS:  cpu time    2.5716: real time    2.5785
    ORTHCH:  cpu time    0.0320: real time    0.0311
       DOS:  cpu time    0.0000: real time    0.0004
    --------------------------------------------
      LOOP:  cpu time    3.2295: real time    3.2506

 eigenvalue-minimisations  :  2069
 total energy-change (2. order) :-0.3957721E-02  (-0.3349533E-02)
 number of electron       8.0000000 magnetization 
 augmentation part        8.0000000 magnetization 

 Free energy of the ion-electron system (eV)
  ---------------------------------------------------
  alpha Z        PSCENC =         1.35417775
  Ewald energy   TEWEN  =      2199.00021856
  -Hartree energ DENC   =     -2406.38898787
  -exchange      EXHF   =         0.00000000
  -V(xc)+E(xc)   XCENC  =        14.39733463
  PAW double counting   =       228.69403340     -218.18290438
  entropy T*S    EENTRO =        -0.00000000
  eigenvalues    EBANDS =      -132.82143322
  atomic energy  EATOM  =       294.30319316
  Solvation  Ediel_sol  =         0.00000000
  ---------------------------------------------------
  free energy    TOTEN  =       -19.64436798 eV

  energy without entropy =      -19.64436798  energy(sigma->0) =      -19.64436798


--------------------------------------------------------------------------------------------------------




--------------------------------------- Iteration      1(  11)  ---------------------------------------


    EDDIAG:  cpu time    0.6259: real time    0.6400
  RMM-DIIS:  cpu time    2.2937: real time    2.2990
    ORTHCH:  cpu time    0.0310: real time    0.0312
       DOS:  cpu time    0.0010: real time    0.0004
    --------------------------------------------
      LOOP:  cpu time    2.9516: real time    2.9706

 eigenvalue-minimisations  :  2032
 total energy-change (2. order) :-0.1603041E-03  (-0.1244551E-03)
 number of electron       8.0000000 magnetization 
 augmentation part        8.0000000 magnetization 

 Free energy of the ion-electron system (eV)
  ---------------------------------------------------
  alpha Z        PSCENC =         1.35417775
  Ewald energy   TEWEN  =      2199.00021856
  -Hartree energ DENC   =     -2406.38898787
  -exchange      EXHF   =         0.00000000
  -V(xc)+E(xc)   XCENC  =        14.39733463
  PAW double counting   =       228.69403340     -218.18290438
  entropy T*S    EENTRO =        -0.00000000
  eigenvalues    EBANDS =      -132.82159353
  atomic energy  EATOM  =       294.30319316
  Solvation  Ediel_sol  =         0.00000000
  ---------------------------------------------------
  free energy    TOTEN  =       -19.64452828 eV

  energy without entropy =      -19.64452828  energy(sigma->0) =      -19.64452828


--------------------------------------------------------------------------------------------------------




--------------------------------------- Iteration      1(  12)  ---------------------------------------


    EDDIAG:  cpu time    0.6359: real time    0.6395
  RMM-DIIS:  cpu time    2.5226: real time    2.5324
    ORTHCH:  cpu time    0.0310: real time    0.0311
       DOS:  cpu time    0.0000: real time    0.0005
    CHARGE:  cpu time    0.1720: real time    0.1942
    MIXING:  cpu time    0.0030: real time    0.0113
    --------------------------------------------
      LOOP:  cpu time    3.3645: real time    3.4089

 eigenvalue-minimisations  :  2058
 total energy-change (2. order) :-0.2756914E-04  (-0.2260116E-04)
 number of electron       8.0000000 magnetization 
 augmentation part       -0.0162209 magnetization 

 Broyden mixing:
  rms(total) = 0.88918E+00    rms(broyden)= 0.88911E+00
  rms(prec ) = 0.90223E+00
  weight for this iteration     100.00

 Free energy of the ion-electron system (eV)
  ---------------------------------------------------
  alpha Z        PSCENC =         1.35417775
  Ewald energy   TEWEN  =      2199.00021856
  -Hartree energ DENC   =     -2406.38898787
  -exchange      EXHF   =         0.00000000
  -V(xc)+E(xc)   XCENC  =        14.39733463
  PAW double counting   =       228.69403340     -218.18290438
  entropy T*S    EENTRO =        -0.00000000
  eigenvalues    EBANDS =      -132.82162110
  atomic energy  EATOM  =       294.30319316
  Solvation  Ediel_sol  =         0.00000000
  ---------------------------------------------------
  free energy    TOTEN  =       -19.64455585 eV

  energy without entropy =      -19.64455585  energy(sigma->0) =      -19.64455585


--------------------------------------------------------------------------------------------------------




--------------------------------------- Iteration      1(  13)  ---------------------------------------


    POTLOK:  cpu time    0.0210: real time    0.0293
    SETDIJ:  cpu time    0.0010: real time    0.0017
    EDDIAG:  cpu time    0.6209: real time    0.6228
  RMM-DIIS:  cpu time    2.2297: real time    2.2384
    ORTHCH:  cpu time    0.0310: real time    0.0318
       DOS:  cpu time    0.0010: real time    0.0005
    CHARGE:  cpu time    0.1650: real time    0.1655
    MIXING:  cpu time    0.0030: real time    0.0239
    --------------------------------------------
      LOOP:  cpu time    3.0725: real time    3.1138

 eigenvalue-minimisations  :  2016
 total energy-change (2. order) : 0.8310523E+00  (-0.4147248E-01)
 number of electron       8.0000001 magnetization 
 augmentation part       -0.0185092 magnetization 

 Broyden mixing:
  rms(total) = 0.57789E+00    rms(broyden)= 0.57789E+00
  rms(prec ) = 0.58401E+00
  weight for this iteration     100.00

 eigenvalues of (default mixing * dielectric matrix)
  average eigenvalue GAMMA=   2.6416
  2.6416

 Free energy of the ion-electron system (eV)
  ---------------------------------------------------
  alpha Z        PSCENC =         1.35417775
  Ewald energy   TEWEN  =      2199.00021856
  -Hartree energ DENC   =     -2417.31300514
  -exchange      EXHF   =         0.00000000
  -V(xc)+E(xc)   XCENC  =        14.83158232
  PAW double counting   =       972.43931610     -962.04522933
  entropy T*S    EENTRO =        -0.00000000
  eigenvalues    EBANDS =      -121.38375692
  atomic energy  EATOM  =       294.30319316
  Solvation  Ediel_sol  =         0.00000000
  ---------------------------------------------------
  free energy    TOTEN  =       -18.81350351 eV

  energy without entropy =      -18.81350351  energy(sigma->0) =      -18.81350351


--------------------------------------------------------------------------------------------------------




--------------------------------------- Iteration      1(  14)  ---------------------------------------


    POTLOK:  cpu time    0.0220: real time    0.0282
    SETDIJ:  cpu time    0.0010: real time    0.0017
    EDDIAG:  cpu time    0.6199: real time    0.6218
  RMM-DIIS:  cpu time    2.2327: real time    2.2448
    ORTHCH:  cpu time    0.0320: real time    0.0319
       DOS:  cpu time    0.0000: real time    0.0005
    CHARGE:  cpu time    0.1640: real time    0.1653
    MIXING:  cpu time    0.0030: real time    0.0051
    --------------------------------------------
      LOOP:  cpu time    3.0745: real time    3.0992

 eigenvalue-minimisations  :  2016
 total energy-change (2. order) : 0.3134320E+00  (-0.8754493E-01)
 number of electron       8.0000001 magnetization 
 augmentation part       -0.0214221 magnetization 

 Broyden mixing:
  rms(total) = 0.11125E+00    rms(broyden)= 0.11124E+00
  rms(prec ) = 0.11376E+00
  weight for this iteration     100.00

 eigenvalues of (default mixing * dielectric matrix)
  average eigenvalue GAMMA=   2.2347
  2.2347  2.2347

 Free energy of the ion-electron system (eV)
  ---------------------------------------------------
  alpha Z        PSCENC =         1.35417775
  Ewald energy   TEWEN  =      2199.00021856
  -Hartree energ DENC   =     -2435.22027074
  -exchange      EXHF   =         0.00000000
  -V(xc)+E(xc)   XCENC  =        15.55671571
  PAW double counting   =      3694.39369276    -3684.10266963
  entropy T*S    EENTRO =        -0.00000000
  eigenvalues    EBANDS =      -103.78512908
  atomic energy  EATOM  =       294.30319316
  Solvation  Ediel_sol  =         0.00000000
  ---------------------------------------------------
  free energy    TOTEN  =       -18.50007151 eV

  energy without entropy =      -18.50007151  energy(sigma->0) =      -18.50007151


--------------------------------------------------------------------------------------------------------




--------------------------------------- Iteration      1(  15)  ---------------------------------------


    POTLOK:  cpu time    0.0210: real time    0.0271
    SETDIJ:  cpu time    0.0010: real time    0.0017
    EDDIAG:  cpu time    0.6209: real time    0.6223
  RMM-DIIS:  cpu time    2.2997: real time    2.3050
    ORTHCH:  cpu time    0.0310: real time    0.0316
       DOS:  cpu time    0.0010: real time    0.0005
    CHARGE:  cpu time    0.1650: real time    0.1655
    MIXING:  cpu time    0.0010: real time    0.0042
    --------------------------------------------
      LOOP:  cpu time    3.1405: real time    3.1578

 eigenvalue-minimisations  :  2024
 total energy-change (2. order) : 0.1921023E-01  (-0.2316767E-02)
 number of electron       8.0000001 magnetization 
 augmentation part       -0.0209245 magnetization 

 Broyden mixing:
  rms(total) = 0.12013E-01    rms(broyden)= 0.12011E-01
  rms(prec ) = 0.15451E-01
  weight for this iteration     100.00

 eigenvalues of (default mixing * dielectric matrix)
  average eigenvalue GAMMA=   2.0057
  1.3507  2.3331  2.3331

 Free energy of the ion-electron system (eV)
  ---------------------------------------------------
  alpha Z        PSCENC =         1.35417775
  Ewald energy   TEWEN  =      2199.00021856
  -Hartree energ DENC   =     -2434.37315159
  -exchange      EXHF   =         0.00000000
  -V(xc)+E(xc)   XCENC  =        15.44727254
  PAW double counting   =      3904.43424605    -3894.08509513
  entropy T*S    EENTRO =        -0.00000000
  eigenvalues    EBANDS =      -104.56172263
  atomic energy  EATOM  =       294.30319316
  Solvation  Ediel_sol  =         0.00000000
  ---------------------------------------------------
  free energy    TOTEN  =       -18.48086128 eV

  energy without entropy =      -18.48086128  energy(sigma->0) =      -18.48086128


--------------------------------------------------------------------------------------------------------




--------------------------------------- Iteration      1(  16)  ---------------------------------------


    POTLOK:  cpu time    0.0220: real time    0.0335
    SETDIJ:  cpu time    0.0010: real time    0.0017
    EDDIAG:  cpu time    0.6209: real time    0.6217
  RMM-DIIS:  cpu time    2.3076: real time    2.3143
    ORTHCH:  cpu time    0.0320: real time    0.0319
       DOS:  cpu time    0.0000: real time    0.0005
    CHARGE:  cpu time    0.1660: real time    0.1655
    MIXING:  cpu time    0.0000: real time    0.0009
    --------------------------------------------
      LOOP:  cpu time    3.1495: real time    3.1701

 eigenvalue-minimisations  :  2024
 total energy-change (2. order) : 0.1443491E-02  (-0.4005778E-04)
 number of electron       8.0000001 magnetization 
 augmentation part       -0.0208683 magnetization 

 Broyden mixing:
  rms(total) = 0.79909E-02    rms(broyden)= 0.79906E-02
  rms(prec ) = 0.11103E-01
  weight for this iteration     100.00

 eigenvalues of (default mixing * dielectric matrix)
  average eigenvalue GAMMA=   2.0968
  0.9937  2.5421  2.5421  2.3093

 Free energy of the ion-electron system (eV)
  ---------------------------------------------------
  alpha Z        PSCENC =         1.35417775
  Ewald energy   TEWEN  =      2199.00021856
  -Hartree energ DENC   =     -2435.52630158
  -exchange      EXHF   =         0.00000000
  -V(xc)+E(xc)   XCENC  =        15.46147495
  PAW double counting   =      3953.11547462    -3942.76360343
  entropy T*S    EENTRO =        -0.00000000
  eigenvalues    EBANDS =      -103.42405182
  atomic energy  EATOM  =       294.30319316
  Solvation  Ediel_sol  =         0.00000000
  ---------------------------------------------------
  free energy    TOTEN  =       -18.47941779 eV

  energy without entropy =      -18.47941779  energy(sigma->0) =      -18.47941779


--------------------------------------------------------------------------------------------------------




--------------------------------------- Iteration      1(  17)  ---------------------------------------


    POTLOK:  cpu time    0.0210: real time    0.0309
    SETDIJ:  cpu time    0.0020: real time    0.0017
    EDDIAG:  cpu time    0.6199: real time    0.6209
  RMM-DIIS:  cpu time    2.2597: real time    2.2679
    ORTHCH:  cpu time    0.0320: real time    0.0319
       DOS:  cpu time    0.0000: real time    0.0005
    CHARGE:  cpu time    0.1660: real time    0.1654
    MIXING:  cpu time    0.0000: real time    0.0009
    --------------------------------------------
      LOOP:  cpu time    3.1015: real time    3.1200

 eigenvalue-minimisations  :  2017
 total energy-change (2. order) : 0.1203412E-02  (-0.5596236E-04)
 number of electron       8.0000001 magnetization 
 augmentation part       -0.0209179 magnetization 

 Broyden mixing:
  rms(total) = 0.59424E-02    rms(broyden)= 0.59423E-02
  rms(prec ) = 0.72944E-02
  weight for this iteration     100.00

 eigenvalues of (default mixing * dielectric matrix)
  average eigenvalue GAMMA=   2.1117
  3.7478  2.3688  1.0324  1.8168  1.5929

 Free energy of the ion-electron system (eV)
  ---------------------------------------------------
  alpha Z        PSCENC =         1.35417775
  Ewald energy   TEWEN  =      2199.00021856
  -Hartree energ DENC   =     -2437.80793117
  -exchange      EXHF   =         0.00000000
  -V(xc)+E(xc)   XCENC  =        15.48829088
  PAW double counting   =      3897.38627741    -3887.03610395
  entropy T*S    EENTRO =        -0.00000000
  eigenvalues    EBANDS =      -101.16633702
  atomic energy  EATOM  =       294.30319316
  Solvation  Ediel_sol  =         0.00000000
  ---------------------------------------------------
  free energy    TOTEN  =       -18.47821438 eV

  energy without entropy =      -18.47821438  energy(sigma->0) =      -18.47821438


--------------------------------------------------------------------------------------------------------




--------------------------------------- Iteration      1(  18)  ---------------------------------------


    POTLOK:  cpu time    0.0320: real time    0.0315
    SETDIJ:  cpu time    0.0010: real time    0.0017
    EDDIAG:  cpu time    0.6179: real time    0.6204
  RMM-DIIS:  cpu time    2.2777: real time    2.2867
    ORTHCH:  cpu time    0.0310: real time    0.0317
       DOS:  cpu time    0.0010: real time    0.0005
    CHARGE:  cpu time    0.1640: real time    0.1643
    MIXING:  cpu time    0.0010: real time    0.0023
    --------------------------------------------
      LOOP:  cpu time    3.1255: real time    3.1391

 eigenvalue-minimisations  :  2016
 total energy-change (2. order) : 0.2121779E-04  (-0.1580150E-04)
 number of electron       8.0000001 magnetization 
 augmentation part       -0.0209018 magnetization 

 Broyden mixing:
  rms(total) = 0.56768E-02    rms(broyden)= 0.56767E-02
  rms(prec ) = 0.62266E-02
  weight for this iteration     100.00

 eigenvalues of (default mixing * dielectric matrix)
  average eigenvalue GAMMA=   2.5737
  5.9666  2.9174  2.3829  2.2000  0.9875  0.9875

 Free energy of the ion-electron system (eV)
  ---------------------------------------------------
  alpha Z        PSCENC =         1.35417775
  Ewald energy   TEWEN  =      2199.00021856
  -Hartree energ DENC   =     -2438.95337831
  -exchange      EXHF   =         0.00000000
  -V(xc)+E(xc)   XCENC  =        15.49254581
  PAW double counting   =      3937.38816874    -3927.03342627
  entropy T*S    EENTRO =        -0.00000000
  eigenvalues    EBANDS =      -100.02969260
  atomic energy  EATOM  =       294.30319316
  Solvation  Ediel_sol  =         0.00000000
  ---------------------------------------------------
  free energy    TOTEN  =       -18.47819316 eV

  energy without entropy =      -18.47819316  energy(sigma->0) =      -18.47819316


--------------------------------------------------------------------------------------------------------




--------------------------------------- Iteration      1(  19)  ---------------------------------------


    POTLOK:  cpu time    0.0210: real time    0.0314
    SETDIJ:  cpu time    0.0020: real time    0.0017
    EDDIAG:  cpu time    0.6189: real time    0.6202
  RMM-DIIS:  cpu time    2.2727: real time    2.2781
    ORTHCH:  cpu time    0.0310: real time    0.0311
       DOS:  cpu time    0.0000: real time    0.0005
    CHARGE:  cpu time    0.1640: real time    0.1643
    MIXING:  cpu time    0.0010: real time    0.0010
    --------------------------------------------
      LOOP:  cpu time    3.1095: real time    3.1283

 eigenvalue-minimisations  :  2016
 total energy-change (2. order) :-0.4574166E-03  (-0.1468898E-04)
 number of electron       8.0000001 magnetization 
 augmentation part       -0.0209408 magnetization 

 Broyden mixing:
  rms(total) = 0.15647E-02    rms(broyden)= 0.15646E-02
  rms(prec ) = 0.18263E-02
  weight for this iteration     100.00

 eigenvalues of (default mixing * dielectric matrix)
  average eigenvalue GAMMA=   2.3934
  6.0936  2.9540  2.3073  2.1450  1.3962  0.9967  0.8612

 Free energy of the ion-electron system (eV)
  ---------------------------------------------------
  alpha Z        PSCENC =         1.35417775
  Ewald energy   TEWEN  =      2199.00021856
  -Hartree energ DENC   =     -2440.17282006
  -exchange      EXHF   =         0.00000000
  -V(xc)+E(xc)   XCENC  =        15.50011347
  PAW double counting   =      3909.39031240    -3899.03789938
  entropy T*S    EENTRO =        -0.00000000
  eigenvalues    EBANDS =       -98.81594647
  atomic energy  EATOM  =       294.30319316
  Solvation  Ediel_sol  =         0.00000000
  ---------------------------------------------------
  free energy    TOTEN  =       -18.47865058 eV

  energy without entropy =      -18.47865058  energy(sigma->0) =      -18.47865058


--------------------------------------------------------------------------------------------------------




--------------------------------------- Iteration      1(  20)  ---------------------------------------


    POTLOK:  cpu time    0.0210: real time    0.0343
    SETDIJ:  cpu time    0.0020: real time    0.0017
    EDDIAG:  cpu time    0.6179: real time    0.6203
  RMM-DIIS:  cpu time    2.3156: real time    2.3231
    ORTHCH:  cpu time    0.0310: real time    0.0311
       DOS:  cpu time    0.0010: real time    0.0005
    CHARGE:  cpu time    0.1630: real time    0.1643
    MIXING:  cpu time    0.0010: real time    0.0010
    --------------------------------------------
      LOOP:  cpu time    3.1525: real time    3.1763

 eigenvalue-minimisations  :  2022
 total energy-change (2. order) :-0.2780477E-03  (-0.5514988E-06)
 number of electron       8.0000001 magnetization 
 augmentation part       -0.0209411 magnetization 

 Broyden mixing:
  rms(total) = 0.18600E-02    rms(broyden)= 0.18600E-02
  rms(prec ) = 0.19909E-02
  weight for this iteration     100.00

 eigenvalues of (default mixing * dielectric matrix)
  average eigenvalue GAMMA=   2.7612
  7.6759  4.1710  2.7059  2.2993  2.2993  0.9896  0.9896  0.9586

 Free energy of the ion-electron system (eV)
  ---------------------------------------------------
  alpha Z        PSCENC =         1.35417775
  Ewald energy   TEWEN  =      2199.00021856
  -Hartree energ DENC   =     -2440.28408574
  -exchange      EXHF   =         0.00000000
  -V(xc)+E(xc)   XCENC  =        15.49967495
  PAW double counting   =      3905.45087158    -3895.09849558
  entropy T*S    EENTRO =        -0.00000000
  eigenvalues    EBANDS =       -98.70448330
  atomic energy  EATOM  =       294.30319316
  Solvation  Ediel_sol  =         0.00000000
  ---------------------------------------------------
  free energy    TOTEN  =       -18.47892862 eV

  energy without entropy =      -18.47892862  energy(sigma->0) =      -18.47892862


--------------------------------------------------------------------------------------------------------




--------------------------------------- Iteration      1(  21)  ---------------------------------------


    POTLOK:  cpu time    0.0210: real time    0.0335
    SETDIJ:  cpu time    0.0010: real time    0.0017
    EDDIAG:  cpu time    0.6199: real time    0.6203
  RMM-DIIS:  cpu time    2.2777: real time    2.2831
    ORTHCH:  cpu time    0.0310: real time    0.0310
       DOS:  cpu time    0.0000: real time    0.0005
    CHARGE:  cpu time    0.1650: real time    0.1646
    MIXING:  cpu time    0.0010: real time    0.0011
    --------------------------------------------
      LOOP:  cpu time    3.1165: real time    3.1358

 eigenvalue-minimisations  :  2016
 total energy-change (2. order) :-0.5449913E-03  (-0.4328486E-05)
 number of electron       8.0000001 magnetization 
 augmentation part       -0.0209340 magnetization 

 Broyden mixing:
  rms(total) = 0.59567E-03    rms(broyden)= 0.59565E-03
  rms(prec ) = 0.63143E-03
  weight for this iteration     100.00

 eigenvalues of (default mixing * dielectric matrix)
  average eigenvalue GAMMA=   2.9650
  8.3182  5.1023  3.2368  2.6088  2.2381  2.2381  1.0012  0.9706  0.9706

 Free energy of the ion-electron system (eV)
  ---------------------------------------------------
  alpha Z        PSCENC =         1.35417775
  Ewald energy   TEWEN  =      2199.00021856
  -Hartree energ DENC   =     -2440.46575583
  -exchange      EXHF   =         0.00000000
  -V(xc)+E(xc)   XCENC  =        15.49786886
  PAW double counting   =      3917.17255477    -3906.81956196
  entropy T*S    EENTRO =        -0.00000000
  eigenvalues    EBANDS =       -98.52216892
  atomic energy  EATOM  =       294.30319316
  Solvation  Ediel_sol  =         0.00000000
  ---------------------------------------------------
  free energy    TOTEN  =       -18.47947362 eV

  energy without entropy =      -18.47947362  energy(sigma->0) =      -18.47947362


--------------------------------------------------------------------------------------------------------




--------------------------------------- Iteration      1(  22)  ---------------------------------------


    POTLOK:  cpu time    0.0200: real time    0.0319
    SETDIJ:  cpu time    0.0020: real time    0.0017
    EDDIAG:  cpu time    0.6179: real time    0.6200
  RMM-DIIS:  cpu time    2.1977: real time    2.2027
    ORTHCH:  cpu time    0.0310: real time    0.0310
       DOS:  cpu time    0.0010: real time    0.0005
    CHARGE:  cpu time    0.1640: real time    0.1642
    MIXING:  cpu time    0.0010: real time    0.0011
    --------------------------------------------
      LOOP:  cpu time    3.0345: real time    3.0532

 eigenvalue-minimisations  :  1961
 total energy-change (2. order) :-0.9193161E-04  (-0.2747103E-06)
 number of electron       8.0000001 magnetization 
 augmentation part       -0.0209329 magnetization 

 Broyden mixing:
  rms(total) = 0.27412E-03    rms(broyden)= 0.27412E-03
  rms(prec ) = 0.29533E-03
  weight for this iteration     100.00

 eigenvalues of (default mixing * dielectric matrix)
  average eigenvalue GAMMA=   2.8010
  8.4259  5.2822  3.2178  2.6324  2.3003  2.3003  0.9959  0.9789  0.9789  0.8976

 Free energy of the ion-electron system (eV)
  ---------------------------------------------------
  alpha Z        PSCENC =         1.35417775
  Ewald energy   TEWEN  =      2199.00021856
  -Hartree energ DENC   =     -2440.49348335
  -exchange      EXHF   =         0.00000000
  -V(xc)+E(xc)   XCENC  =        15.49769346
  PAW double counting   =      3914.26857020    -3903.91555528
  entropy T*S    EENTRO =        -0.00000000
  eigenvalues    EBANDS =       -98.49438005
  atomic energy  EATOM  =       294.30319316
  Solvation  Ediel_sol  =         0.00000000
  ---------------------------------------------------
  free energy    TOTEN  =       -18.47956555 eV

  energy without entropy =      -18.47956555  energy(sigma->0) =      -18.47956555


--------------------------------------------------------------------------------------------------------




--------------------------------------- Iteration      1(  23)  ---------------------------------------


    POTLOK:  cpu time    0.0200: real time    0.0325
    SETDIJ:  cpu time    0.0010: real time    0.0017
    EDDIAG:  cpu time    0.6229: real time    0.6236
  RMM-DIIS:  cpu time    2.2827: real time    2.2915
    ORTHCH:  cpu time    0.0310: real time    0.0311
       DOS:  cpu time    0.0010: real time    0.0005
    CHARGE:  cpu time    0.1650: real time    0.1649
    MIXING:  cpu time    0.0030: real time    0.0148
    --------------------------------------------
      LOOP:  cpu time    3.1265: real time    3.1605

 eigenvalue-minimisations  :  2016
 total energy-change (2. order) :-0.1901026E-04  (-0.4730904E-07)
 number of electron       8.0000001 magnetization 
 augmentation part       -0.0209345 magnetization 

 Broyden mixing:
  rms(total) = 0.73668E-04    rms(broyden)= 0.73662E-04
  rms(prec ) = 0.93899E-04
  weight for this iteration     100.00

 eigenvalues of (default mixing * dielectric matrix)
  average eigenvalue GAMMA=   2.9889
  8.7909  5.9037  4.2182  2.9153  2.5634  2.2791  2.2791  0.9957  0.9688  0.9816
  0.9816

 Free energy of the ion-electron system (eV)
  ---------------------------------------------------
  alpha Z        PSCENC =         1.35417775
  Ewald energy   TEWEN  =      2199.00021856
  -Hartree energ DENC   =     -2440.52440308
  -exchange      EXHF   =         0.00000000
  -V(xc)+E(xc)   XCENC  =        15.49809203
  PAW double counting   =      3913.35666887    -3903.00377865
  entropy T*S    EENTRO =        -0.00000000
  eigenvalues    EBANDS =       -98.46375320
  atomic energy  EATOM  =       294.30319316
  Solvation  Ediel_sol  =         0.00000000
  ---------------------------------------------------
  free energy    TOTEN  =       -18.47958456 eV

  energy without entropy =      -18.47958456  energy(sigma->0) =      -18.47958456


--------------------------------------------------------------------------------------------------------




--------------------------------------- Iteration      1(  24)  ---------------------------------------


    POTLOK:  cpu time    0.0200: real time    0.0322
    SETDIJ:  cpu time    0.0020: real time    0.0017
    EDDIAG:  cpu time    0.6219: real time    0.6230
  RMM-DIIS:  cpu time    2.2217: real time    2.2283
    ORTHCH:  cpu time    0.0310: real time    0.0311
       DOS:  cpu time    0.0000: real time    0.0005
    CHARGE:  cpu time    0.1640: real time    0.1647
    MIXING:  cpu time    0.0010: real time    0.0012
    --------------------------------------------
      LOOP:  cpu time    3.0615: real time    3.0828

 eigenvalue-minimisations  :  1889
 total energy-change (2. order) :-0.1346524E-04  (-0.1295205E-07)
 number of electron       8.0000001 magnetization 
 augmentation part       -0.0209348 magnetization 

 Broyden mixing:
  rms(total) = 0.47544E-04    rms(broyden)= 0.47542E-04
  rms(prec ) = 0.54128E-04
  weight for this iteration     100.00

 eigenvalues of (default mixing * dielectric matrix)
  average eigenvalue GAMMA=   2.9618
  8.8207  6.0804  4.1547  3.0363  2.7482  2.5408  2.1347  2.0796  0.9756  0.9756
  0.9972  0.9972

 Free energy of the ion-electron system (eV)
  ---------------------------------------------------
  alpha Z        PSCENC =         1.35417775
  Ewald energy   TEWEN  =      2199.00021856
  -Hartree energ DENC   =     -2440.54109549
  -exchange      EXHF   =         0.00000000
  -V(xc)+E(xc)   XCENC  =        15.49815054
  PAW double counting   =      3913.56396314    -3903.21109953
  entropy T*S    EENTRO =        -0.00000000
  eigenvalues    EBANDS =       -98.44710616
  atomic energy  EATOM  =       294.30319316
  Solvation  Ediel_sol  =         0.00000000
  ---------------------------------------------------
  free energy    TOTEN  =       -18.47959802 eV

  energy without entropy =      -18.47959802  energy(sigma->0) =      -18.47959802


--------------------------------------------------------------------------------------------------------




--------------------------------------- Iteration      1(  25)  ---------------------------------------


    POTLOK:  cpu time    0.0210: real time    0.0320
    SETDIJ:  cpu time    0.0020: real time    0.0017
    EDDIAG:  cpu time    0.6229: real time    0.6237
  RMM-DIIS:  cpu time    2.2187: real time    2.2231
    ORTHCH:  cpu time    0.0300: real time    0.0310
       DOS:  cpu time    0.0000: real time    0.0005
    CHARGE:  cpu time    0.1650: real time    0.1645
    MIXING:  cpu time    0.0010: real time    0.0013
    --------------------------------------------
      LOOP:  cpu time    3.0605: real time    3.0778

 eigenvalue-minimisations  :  1820
 total energy-change (2. order) :-0.1877876E-05  (-0.4631808E-09)
 number of electron       8.0000001 magnetization 
 augmentation part       -0.0209347 magnetization 

 Broyden mixing:
  rms(total) = 0.20782E-04    rms(broyden)= 0.20781E-04
  rms(prec ) = 0.27288E-04
  weight for this iteration     100.00

 eigenvalues of (default mixing * dielectric matrix)
  average eigenvalue GAMMA=   2.9867
  8.9145  6.5190  4.8829  3.6994  2.7848  2.4936  2.3029  2.3029  0.9742  0.9742
  1.0018  0.9885  0.9885

 Free energy of the ion-electron system (eV)
  ---------------------------------------------------
  alpha Z        PSCENC =         1.35417775
  Ewald energy   TEWEN  =      2199.00021856
  -Hartree energ DENC   =     -2440.54381037
  -exchange      EXHF   =         0.00000000
  -V(xc)+E(xc)   XCENC  =        15.49811905
  PAW double counting   =      3913.67118775    -3903.31831071
  entropy T*S    EENTRO =        -0.00000000
  eigenvalues    EBANDS =       -98.44437509
  atomic energy  EATOM  =       294.30319316
  Solvation  Ediel_sol  =         0.00000000
  ---------------------------------------------------
  free energy    TOTEN  =       -18.47959990 eV

  energy without entropy =      -18.47959990  energy(sigma->0) =      -18.47959990


--------------------------------------------------------------------------------------------------------




--------------------------------------- Iteration      1(  26)  ---------------------------------------


    POTLOK:  cpu time    0.0200: real time    0.0321
    SETDIJ:  cpu time    0.0020: real time    0.0017
    EDDIAG:  cpu time    0.6219: real time    0.6235
  RMM-DIIS:  cpu time    2.2077: real time    2.2141
    ORTHCH:  cpu time    0.0300: real time    0.0310
       DOS:  cpu time    0.0000: real time    0.0005
    CHARGE:  cpu time    0.1650: real time    0.1646
    MIXING:  cpu time    0.0010: real time    0.0014
    --------------------------------------------
      LOOP:  cpu time    3.0475: real time    3.0689

 eigenvalue-minimisations  :  1829
 total energy-change (2. order) :-0.1981619E-05  (-0.1304999E-08)
 number of electron       8.0000001 magnetization 
 augmentation part       -0.0209346 magnetization 

 Broyden mixing:
  rms(total) = 0.41642E-04    rms(broyden)= 0.41641E-04
  rms(prec ) = 0.42350E-04
  weight for this iteration     100.00

 eigenvalues of (default mixing * dielectric matrix)
  average eigenvalue GAMMA=   3.1010
  8.9964  7.3551  5.3933  4.2277  3.1040  2.7079  2.2495  2.2495  2.1692  0.9745
  0.9745  0.9840  1.0144  1.0144

 Free energy of the ion-electron system (eV)
  ---------------------------------------------------
  alpha Z        PSCENC =         1.35417775
  Ewald energy   TEWEN  =      2199.00021856
  -Hartree energ DENC   =     -2440.54703442
  -exchange      EXHF   =         0.00000000
  -V(xc)+E(xc)   XCENC  =        15.49808014
  PAW double counting   =      3913.94022042    -3903.58732056
  entropy T*S    EENTRO =        -0.00000000
  eigenvalues    EBANDS =       -98.44113694
  atomic energy  EATOM  =       294.30319316
  Solvation  Ediel_sol  =         0.00000000
  ---------------------------------------------------
  free energy    TOTEN  =       -18.47960188 eV

  energy without entropy =      -18.47960188  energy(sigma->0) =      -18.47960188


--------------------------------------------------------------------------------------------------------




--------------------------------------- Iteration      1(  27)  ---------------------------------------


    POTLOK:  cpu time    0.0210: real time    0.0341
    SETDIJ:  cpu time    0.0020: real time    0.0017
    EDDIAG:  cpu time    0.6209: real time    0.6252
  RMM-DIIS:  cpu time    2.1967: real time    2.2042
    ORTHCH:  cpu time    0.0310: real time    0.0311
       DOS:  cpu time    0.0010: real time    0.0005
    CHARGE:  cpu time    0.1650: real time    0.1646
    MIXING:  cpu time    0.0010: real time    0.0014
    --------------------------------------------
      LOOP:  cpu time    3.0385: real time    3.0628

 eigenvalue-minimisations  :  1816
 total energy-change (2. order) :-0.8174356E-06  (-0.5667043E-09)
 number of electron       8.0000001 magnetization 
 augmentation part       -0.0209347 magnetization 

 Broyden mixing:
  rms(total) = 0.34372E-04    rms(broyden)= 0.34371E-04
  rms(prec ) = 0.34589E-04
  weight for this iteration     100.00

 eigenvalues of (default mixing * dielectric matrix)
  average eigenvalue GAMMA=   3.1498
  9.1768  8.2964  5.8473  4.3312  3.4956  2.8024  2.5883  2.3062  2.3062  0.9746
  0.9746  0.9738  1.0057  1.0843  1.0843

 Free energy of the ion-electron system (eV)
  ---------------------------------------------------
  alpha Z        PSCENC =         1.35417775
  Ewald energy   TEWEN  =      2199.00021856
  -Hartree energ DENC   =     -2440.54915141
  -exchange      EXHF   =         0.00000000
  -V(xc)+E(xc)   XCENC  =        15.49811853
[...]
     17       7.6775      0.00000
     18       8.9089      0.00000
     19       9.1443      0.00000
     20       9.6928      0.00000
     21      11.3639      0.00000
     22      12.0475      0.00000
     23      12.4319      0.00000
     24      13.7892      0.00000

 k-point    30 :      -0.2083    0.2083    0.0000
  band No.  band energies     occupation 
      1     -21.5772      2.00000
      2      -9.5781      2.00000
      3      -9.5171      2.00000
      4      -7.8468      2.00000
      5       1.4625      0.00000
      6       2.2380      0.00000
      7       2.4791      0.00000
      8       2.7848      0.00000
      9       2.9956      0.00000
     10       3.6322      0.00000
     11       3.9351      0.00000
     12       4.7562      0.00000
     13       4.8361      0.00000
     14       4.9835      0.00000
     15       5.2526      0.00000
     16       6.4707      0.00000
     17       6.9010      0.00000
     18       8.3949      0.00000
     19       8.5820      0.00000
     20       8.9141      0.00000
     21      10.6512      0.00000
     22      10.7517      0.00000
     23      11.2824      0.00000
     24      13.2326      0.00000

 k-point    31 :       0.2917    0.2917    0.0000
  band No.  band energies     occupation 
      1     -16.9893      2.00000
      2     -14.8517      2.00000
      3     -13.1094      2.00000
      4      -4.5128      2.00000
      5      -1.9728      0.00000
      6       7.4629      0.00000
      7       7.9635      0.00000
      8       9.3492      0.00000
      9       9.3672      0.00000
     10       9.4708      0.00000
     11       9.7052      0.00000
     12       9.7947      0.00000
     13       9.8850      0.00000
     14      10.6173      0.00000
     15      10.7315      0.00000
     16      11.8165      0.00000
     17      11.9371      0.00000
     18      12.8308      0.00000
     19      12.9611      0.00000
     20      13.0026      0.00000
     21      13.2238      0.00000
     22      13.4414      0.00000
     23      13.5492      0.00000
     24      13.5658      0.00000

 k-point    32 :       0.3750    0.2917    0.0000
  band No.  band energies     occupation 
      1     -16.3345      2.00000
      2     -15.3909      2.00000
      3     -13.3955      2.00000
      4      -3.8985      2.00000
      5      -2.5889      0.00000
      6       7.4165      0.00000
      7       8.9311      0.00000
      8       9.4239      0.00000
      9       9.9156      0.00000
     10      10.4630      0.00000
     11      10.5886      0.00000
     12      10.9284      0.00000
     13      11.0343      0.00000
     14      11.6614      0.00000
     15      11.7946      0.00000
     16      11.9111      0.00000
     17      11.9257      0.00000
     18      12.1610      0.00000
     19      12.2818      0.00000
     20      12.6506      0.00000
     21      12.7421      0.00000
     22      12.9245      0.00000
     23      13.0265      0.00000
     24      13.1263      0.00000

 k-point    33 :       0.4583    0.2917    0.0000
  band No.  band energies     occupation 
      1     -17.6767      2.00000
      2     -14.3955      2.00000
      3     -12.5452      2.00000
      4      -5.2125      2.00000
      5      -1.2642      0.00000
      6       6.9586      0.00000
      7       7.2974      0.00000
      8       8.2252      0.00000
      9       8.3826      0.00000
     10       8.6867      0.00000
     11       8.7914      0.00000
     12       8.9270      0.00000
     13       9.5910      0.00000
     14       9.6877      0.00000
     15       9.7884      0.00000
     16      10.8215      0.00000
     17      10.8910      0.00000
     18      12.3142      0.00000
     19      12.4805      0.00000
     20      13.1007      0.00000
     21      13.4555      0.00000
     22      13.6637      0.00000
     23      14.0055      0.00000
     24      14.1924      0.00000

 k-point    34 :      -0.4583    0.2917    0.0000
  band No.  band energies     occupation 
      1     -18.9248      2.00000
      2     -13.6351      2.00000
      3     -10.9820      2.00000
      4      -6.5370      2.00000
      5       0.1418      0.00000
      6       5.1603      0.00000
      7       5.9334      0.00000
      8       6.3101      0.00000
      9       6.5773      0.00000
     10       6.6200      0.00000
     11       6.8226      0.00000
     12       7.3852      0.00000
     13       7.7424      0.00000
     14       8.5441      0.00000
     15       9.0165      0.00000
     16       9.8830      0.00000
     17      10.2383      0.00000
     18      10.6762      0.00000
     19      11.0985      0.00000
     20      12.5396      0.00000
     21      12.6472      0.00000
     22      13.6771      0.00000
     23      14.2337      0.00000
     24      14.6686      0.00000

 k-point    35 :      -0.3750    0.2917    0.0000
  band No.  band energies     occupation 
      1     -19.9203      2.00000
      2     -12.7678      2.00000
      3      -9.4896      2.00000
      4      -7.6308      2.00000
      5       1.4817      0.00000
      6       3.7513      0.00000
      7       4.5678      0.00000
      8       4.8434      0.00000
      9       4.9550      0.00000
     10       5.1395      0.00000
     11       5.3604      0.00000
     12       5.9767      0.00000
     13       6.2928      0.00000
     14       7.2019      0.00000
     15       7.5792      0.00000
     16       8.7518      0.00000
     17       9.2261      0.00000
     18      10.5937      0.00000
     19      10.9350      0.00000
     20      11.2491      0.00000
     21      12.5244      0.00000
     22      13.5975      0.00000
     23      13.8044      0.00000
     24      15.4179      0.00000

 k-point    36 :      -0.2917    0.2917    0.0000
  band No.  band energies     occupation 
      1     -20.6244      2.00000
      2     -11.7338      2.00000
      3      -8.6553      2.00000
      4      -8.4206      2.00000
      5       2.6948      0.00000
      6       2.7719      0.00000
      7       3.6024      0.00000
      8       3.8312      0.00000
      9       4.1375      0.00000
     10       4.3209      0.00000
     11       4.4362      0.00000
     12       4.9806      0.00000
     13       5.2890      0.00000
     14       6.2168      0.00000
     15       6.5792      0.00000
     16       7.7898      0.00000
     17       8.2317      0.00000
     18       9.6917      0.00000
     19      10.2395      0.00000
     20      11.2605      0.00000
     21      11.8934      0.00000
     22      12.0761      0.00000
     23      12.6053      0.00000
     24      14.2137      0.00000

 k-point    37 :       0.3750    0.3750    0.0000
  band No.  band energies     occupation 
      1     -16.5076      2.00000
      2     -15.5996      2.00000
      3     -12.8659      2.00000
      4      -4.2396      2.00000
      5      -2.3033      0.00000
      6       7.6237      0.00000
      7       8.5998      0.00000
      8       8.9573      0.00000
      9       9.2948      0.00000
     10      10.3454      0.00000
     11      10.6870      0.00000
     12      10.7064      0.00000
     13      10.7670      0.00000
     14      10.9776      0.00000
     15      11.1036      0.00000
     16      11.1720      0.00000
     17      11.2331      0.00000
     18      11.8097      0.00000
     19      11.8401      0.00000
     20      12.0245      0.00000
     21      12.0950      0.00000
     22      12.7612      0.00000
     23      13.0427      0.00000
     24      13.1939      0.00000

 k-point    38 :       0.4583    0.3750    0.0000
  band No.  band energies     occupation 
      1     -17.4968      2.00000
      2     -15.4412      2.00000
      3     -11.3528      2.00000
      4      -5.2335      2.00000
      5      -1.4914      0.00000
      6       6.4438      0.00000
      7       7.2970      0.00000
      8       7.8234      0.00000
      9       8.5638      0.00000
     10       8.7469      0.00000
     11       9.0506      0.00000
     12       9.3132      0.00000
     13       9.6172      0.00000
     14       9.9623      0.00000
     15       9.9720      0.00000
     16      10.9155      0.00000
     17      11.2023      0.00000
     18      11.2635      0.00000
     19      11.3942      0.00000
     20      11.6929      0.00000
     21      11.7738      0.00000
     22      12.4316      0.00000
     23      12.6363      0.00000
     24      12.9532      0.00000

 k-point    39 :      -0.4583    0.3750    0.0000
  band No.  band energies     occupation 
      1     -18.5530      2.00000
      2     -14.8008      2.00000
      3      -9.9666      2.00000
      4      -6.2385      2.00000
      5      -0.5504      0.00000
      6       4.6970      0.00000
      7       5.7186      0.00000
      8       6.5249      0.00000
      9       6.8745      0.00000
     10       7.1483      0.00000
     11       7.3754      0.00000
     12       7.9650      0.00000
     13       8.2981      0.00000
     14       9.1452      0.00000
     15       9.5710      0.00000
     16      10.5187      0.00000
     17      10.5278      0.00000
     18      11.2083      0.00000
     19      11.3665      0.00000
     20      12.2752      0.00000
     21      12.3541      0.00000
     22      12.6207      0.00000
     23      12.6853      0.00000
     24      13.2043      0.00000

 k-point    40 :      -0.3750    0.3750    0.0000
  band No.  band energies     occupation 
      1     -19.3799      2.00000
      2     -13.8763      2.00000
      3      -9.2546      2.00000
      4      -7.0687      2.00000
      5       0.4888      0.00000
      6       4.0732      0.00000
      7       4.5498      0.00000
      8       5.3478      0.00000
      9       5.6351      0.00000
     10       5.9260      0.00000
     11       6.1423      0.00000
     12       6.7609      0.00000
     13       7.0730      0.00000
     14       7.9821      0.00000
     15       8.3561      0.00000
     16       9.5237      0.00000
     17       9.9996      0.00000
     18      11.3326      0.00000
     19      11.6574      0.00000
     20      12.0031      0.00000
     21      12.6931      0.00000
     22      13.6591      0.00000
     23      13.7487      0.00000
     24      14.0919      0.00000

 k-point    41 :       0.4583    0.4583    0.0000
  band No.  band energies     occupation 
      1     -17.3433      2.00000
      2     -16.2419      2.00000
      3     -10.1290      2.00000
      4      -5.4054      2.00000
      5      -1.6118      0.00000
      6       4.6160      0.00000
      7       7.9582      0.00000
      8       8.1233      0.00000
      9       8.6261      0.00000
     10       9.0106      0.00000
     11       9.3422      0.00000
     12       9.3609      0.00000
     13       9.5682      0.00000
     14       9.6287      0.00000
     15       9.8223      0.00000
     16       9.8520      0.00000
     17      10.2761      0.00000
     18      10.4644      0.00000
     19      10.7135      0.00000
     20      10.7565      0.00000
     21      11.2928      0.00000
     22      11.6976      0.00000
     23      11.9758      0.00000
     24      12.1123      0.00000

 k-point    42 :      -0.4583    0.4583    0.0000
  band No.  band energies     occupation 
      1     -17.9264      2.00000
      2     -15.8035      2.00000
      3      -9.5692      2.00000
      4      -5.7977      2.00000
      5      -1.2623      0.00000
      6       3.9264      0.00000
      7       6.6782      0.00000
      8       7.5207      0.00000
      9       7.8884      0.00000
     10       8.1582      0.00000
     11       8.3836      0.00000
     12       8.9672      0.00000
     13       9.1790      0.00000
     14       9.3063      0.00000
     15       9.9618      0.00000
     16      10.2456      0.00000
     17      10.5664      0.00000
     18      10.5919      0.00000
     19      10.8306      0.00000
     20      11.0651      0.00000
     21      11.5012      0.00000
     22      11.7644      0.00000
     23      11.9456      0.00000
     24      12.1979      0.00000


--------------------------------------------------------------------------------------------------------


 soft charge-density along one line, spin component           1
         0         1         2         3         4         5         6         7         8         9
 total charge-density along one line
 
 pseudopotential strength for first ion, spin component:           1
 12.718  21.402  -0.000  -0.000  -0.000  -0.000  -0.000  -0.000
 21.402  36.014  -0.000  -0.000  -0.000  -0.000  -0.000  -0.000
 -0.000  -0.000  -3.178  -0.000   0.000  -5.696  -0.000   0.000
 -0.000  -0.000  -0.000  -3.179   0.000  -0.000  -5.698   0.000
 -0.000  -0.000   0.000   0.000  -3.178   0.000   0.000  -5.696
 -0.000  -0.000  -5.696  -0.000   0.000 -10.189  -0.000   0.000
 -0.000  -0.000  -0.000  -5.698   0.000  -0.000 -10.191   0.000
 -0.000  -0.000   0.000   0.000  -5.696   0.000   0.000 -10.189
 total augmentation occupancy for first ion, spin component:           1
  7.611  -2.642  -0.000   0.000   0.000   0.000   0.000   0.000
 -2.642   0.955  -0.000   0.000   0.000   0.000   0.000   0.000
  0.000  -0.000   7.188   0.000   0.000  -2.439   0.000   0.000
  0.000   0.000   0.000   3.231   0.000   0.000  -0.862   0.000
  0.000   0.000   0.000   0.000   7.188   0.000   0.000  -2.439
  0.000   0.000  -2.439   0.000   0.000   0.841  -0.000   0.000
  0.000   0.000   0.000  -0.862  -0.000  -0.000   0.236   0.000
  0.000   0.000   0.000   0.000  -2.439   0.000   0.000   0.841


------------------------ aborting loop because EDIFF is reached ----------------------------------------


    CHARGE:  cpu time    0.1630: real time    0.1638
    FORLOC:  cpu time    0.0010: real time    0.0035
    FORNL :  cpu time    0.0860: real time    0.0980
    STRESS:  cpu time    1.1898: real time    1.2017
    FORCOR:  cpu time    0.0170: real time    0.0223
    FORHAR:  cpu time    0.0040: real time    0.0069
    MIXING:  cpu time    0.0030: real time    0.0327
    OFIELD:  cpu time    0.0010: real time    0.0026

  DFT-D2 method for vdW energy calculation
  -------------------------------------------------------------------

  Parameters of vdW forcefield:
         C6(Jnm^6/mol)     R0(A)
   -----------------------------
   C        1.750          1.452

  IVDW =   1
  VDW_RADIUS =    50.000 A
  VDW_S6 =     0.750
  VDW_SR =     1.000
  VDW_D =    20.000
  LVDW_EWALD = F

  Number of pair interactions contributing to vdW energy:   10015
  Edisp (eV):   -0.10827
    FORVDW:  cpu time    0.0110: real time    0.0213

  FORCE on cell =-STRESS in cart. coord.  units (eV):
  Direction    XX          YY          ZZ          XY          YZ          ZX
  --------------------------------------------------------------------------------------
  Alpha Z     1.35418     1.35418     1.35418
  Ewald    2465.83272  2465.82883 -2732.66145    -0.00000     0.00000     0.00000
  Hartree  2429.08860  2429.08861 -2417.62772     0.00000    -0.00000    -0.00000
  E(xc)     -32.26083   -32.26083   -33.22434    -0.00000     0.00000    -0.00000
  Local   -5010.47885 -5010.47725  5021.05631    -0.00000    -0.00000     0.00000
  n-local     8.36015     8.36013     6.91011     0.16433     0.00000     0.00000
  augment     0.14376     0.14375     0.12042    -0.00000     0.00000    -0.00000
  Kinetic   136.88824   136.91856   154.02569    -1.17712    -0.00000    -0.00000
  Fock        0.00000     0.00000     0.00000     0.00000     0.00000     0.00000
  vdW         0.00346     0.00346    -0.00007     0.00000     0.00000     0.00000
  -------------------------------------------------------------------------------------
  Total      -1.05457    -1.05458    -0.04687     0.00000     0.00000    -0.00000
  in kB     -10.43417   -10.43422    -0.46371     0.00000     0.00000    -0.00000
  external pressure =       -7.11 kB  Pullay stress =        0.00 kB


 VOLUME and BASIS-vectors are now :
 -----------------------------------------------------------------------------
  energy-cutoff  :      875.00
  volume of cell :      161.93
      direct lattice vectors                 reciprocal lattice vectors
     1.242434958 -2.151965887  0.000000000     0.402435554 -0.232345691  0.000000000
     1.242434958  2.151965887  0.000000000     0.402435554  0.232345691  0.000000000
     0.000000000  0.000000000 30.282393743     0.000000000  0.000000000  0.033022489

  length of vectors
     2.484874605  2.484874605 30.282393743     0.464692258  0.464692258  0.033022489


 FORCES acting on ions
    electron-ion (+dipol)            ewald-force                    non-local-force                 convergence-correction
 -----------------------------------------------------------------------------------------------
   -.246E-07 0.133E-02 0.934E-07   -.136E-13 0.197E-02 0.000E+00   0.745E-18 -.407E-19 0.000E+00   0.826E-15 -.171E-09 0.661E-11
   -.246E-07 -.471E-03 0.884E-07   0.126E-13 -.197E-02 0.000E+00   0.684E-18 0.630E-17 0.000E+00   0.563E-15 0.108E-09 0.662E-11
 -----------------------------------------------------------------------------------------------
   -.493E-07 0.860E-03 0.182E-06   -.988E-15 0.348E-14 0.000E+00   0.143E-17 0.625E-17 0.000E+00   0.139E-14 -.627E-10 0.132E-10
 
 
 POSITION                                       TOTAL-FORCE (eV/Angst)
 -----------------------------------------------------------------------------------
      1.24243      2.15195     15.14120         0.000000      0.000000      0.000000
      1.24243     -0.71733     15.14120        -0.000000     -0.000000      0.000000
 -----------------------------------------------------------------------------------
    total drift:                               -0.000000      0.000860      0.000000


--------------------------------------------------------------------------------------------------------



  FREE ENERGIE OF THE ION-ELECTRON SYSTEM (eV)
  ---------------------------------------------------
  free  energy   TOTEN  =       -18.58787402 eV

  energy  without entropy=      -18.58787402  energy(sigma->0) =      -18.58787402
 


--------------------------------------------------------------------------------------------------------


    POTLOK:  cpu time    0.0250: real time    0.0276


--------------------------------------------------------------------------------------------------------


 stress matrix after NEB project (eV)
     -1.05457      0.00000     -0.00000
      0.00000     -1.05458      0.00000
     -0.00000      0.00000     -0.04687
  FORCES: max atom, RMS     0.000000    0.000000
  FORCE total and by dimension    0.000000    0.000000
  Stress total and by dimension    1.492131    1.054578


--------------------------------------------------------------------------------------------------------


  
 reached required accuracy - stopping structural energy minimisation
     LOOP+:  cpu time   81.4936: real time   82.3937
    4ORBIT:  cpu time    0.0000: real time    0.0000

 total amount of memory used by VASP MPI-rank0    72669. kBytes
=======================================================================

   base      :      30000. kBytes
   nonl-proj :      26242. kBytes
   fftplans  :       1683. kBytes
   grid      :       8239. kBytes
   one-center:          6. kBytes
   wavefun   :       6499. kBytes
 
  
  
 General timing and accounting informations for this job:
 ========================================================
  
                  Total CPU time used (sec):       83.622
                            User time (sec):       82.451
                          System time (sec):        1.171
                         Elapsed time (sec):       85.443
  
                   Maximum memory used (kb):      177456.
                   Average memory used (kb):           0.
  
                          Minor page faults:       126434
                          Major page faults:          284
                 Voluntary context switches:         8841
