<?xml version="1.0" encoding="ISO-8859-1"?>
<modeling>
 <generator>
  <i name="program" type="string">vasp </i>
  <i name="version" type="string">5.4.4.18Apr17-6-g9f103f2a35  </i>
  <i name="subversion" type="string">(build Jan 14 2019 14:48:31) complex            parallel </i>
  <i name="platform" type="string">LinuxIFC </i>
  <i name="date" type="string">2019 09 10 </i>
  <i name="time" type="string">15:54:03 </i>
 </generator>
 <incar>
  <i type="int" name="ISTART">     1</i>
  <i type="string" name="PREC">high</i>
  <i type="string" name="ALGO">very</i>
  <i type="int" name="NELM">    40</i>
  <i type="int" name="IBRION">     2</i>
  <i name="EDIFF">      0.00000010</i>
  <i name="EDIFFG">     -0.01000000</i>
  <i type="int" name="NSW">   100</i>
  <i type="logical" name="LREAL"> F  </i>
  <i type="int" name="ISMEAR">     0</i>
  <i name="SIGMA">      0.05000000</i>
  <i type="logical" name="LWAVE"> F  </i>
  <i type="logical" name="LCHARG"> F  </i>
  <v type="int" name="KPOINT_BSE">    -1     0     0     0</v>
  <i type="int" name="NELM">    40</i>
 </incar>
 <structure name="primitive_cell" >
  <crystal>
   <varray name="basis" >
    <v>       1.24243496      -2.15196589       0.00000000 </v>
    <v>       1.24243496       2.15196589       0.00000000 </v>
    <v>       0.00000000       0.00000000      30.28239374 </v>
   </varray>
   <i name="volume">    161.93071842 </i>
   <varray name="rec_basis" >
    <v>       0.40243555      -0.23234569       0.00000000 </v>
    <v>       0.40243555       0.23234569       0.00000000 </v>
    <v>       0.00000000       0.00000000       0.03302249 </v>
   </varray>
  </crystal>
  <varray name="positions" >
   <v>       0.00000262      -0.00000262      -0.50000000 </v>
   <v>      -0.33333262       0.33333262      -0.50000000 </v>
  </varray>
 </structure>
 <varray name="primitive_index" >
  <v type="int" >        1 </v>
  <v type="int" >        2 </v>
 </varray>
 <kpoints>
  <generation param="Monkhorst-Pack">
   <v type="int" name="divisions">      12       12        1 </v>
   <v name="usershift">      0.00000000       0.00000000       0.00000000 </v>
   <v name="genvec1">      0.08333333       0.00000000       0.00000000 </v>
   <v name="genvec2">      0.00000000       0.08333333       0.00000000 </v>
   <v name="genvec3">      0.00000000       0.00000000       1.00000000 </v>
   <v name="shift">      0.50000000       0.50000000       0.00000000 </v>
  </generation>
  <varray name="kpointlist" >
   <v>       0.04166667       0.04166667       0.00000000 </v>
   <v>       0.12500000       0.04166667       0.00000000 </v>
   <v>       0.20833333       0.04166667       0.00000000 </v>
   <v>       0.29166667       0.04166667       0.00000000 </v>
   <v>       0.37500000       0.04166667       0.00000000 </v>
   <v>       0.45833333       0.04166667       0.00000000 </v>
   <v>      -0.45833333       0.04166667       0.00000000 </v>
   <v>      -0.37500000       0.04166667       0.00000000 </v>
   <v>      -0.29166667       0.04166667       0.00000000 </v>
   <v>      -0.20833333       0.04166667       0.00000000 </v>
   <v>      -0.12500000       0.04166667       0.00000000 </v>
   <v>      -0.04166667       0.04166667       0.00000000 </v>
   <v>       0.12500000       0.12500000       0.00000000 </v>
   <v>       0.20833333       0.12500000       0.00000000 </v>
   <v>       0.29166667       0.12500000       0.00000000 </v>
   <v>       0.37500000       0.12500000       0.00000000 </v>
   <v>       0.45833333       0.12500000       0.00000000 </v>
   <v>      -0.45833333       0.12500000       0.00000000 </v>
   <v>      -0.37500000       0.12500000       0.00000000 </v>
   <v>      -0.29166667       0.12500000       0.00000000 </v>
   <v>      -0.20833333       0.12500000       0.00000000 </v>
   <v>      -0.12500000       0.12500000       0.00000000 </v>
   <v>       0.20833333       0.20833333       0.00000000 </v>
   <v>       0.29166667       0.20833333       0.00000000 </v>
   <v>       0.37500000       0.20833333       0.00000000 </v>
   <v>       0.45833333       0.20833333       0.00000000 </v>
   <v>      -0.45833333       0.20833333       0.00000000 </v>
   <v>      -0.37500000       0.20833333       0.00000000 </v>
   <v>      -0.29166667       0.20833333       0.00000000 </v>
   <v>      -0.20833333       0.20833333       0.00000000 </v>
   <v>       0.29166667       0.29166667       0.00000000 </v>
   <v>       0.37500000       0.29166667       0.00000000 </v>
   <v>       0.45833333       0.29166667       0.00000000 </v>
   <v>      -0.45833333       0.29166667       0.00000000 </v>
   <v>      -0.37500000       0.29166667       0.00000000 </v>
   <v>      -0.29166667       0.29166667       0.00000000 </v>
   <v>       0.37500000       0.37500000       0.00000000 </v>
   <v>       0.45833333       0.37500000       0.00000000 </v>
   <v>      -0.45833333       0.37500000       0.00000000 </v>
   <v>      -0.37500000       0.37500000       0.00000000 </v>
   <v>       0.45833333       0.45833333       0.00000000 </v>
   <v>      -0.45833333       0.45833333       0.00000000 </v>
  </varray>
  <varray name="weights" >
   <v>       0.01388889 </v>
   <v>       0.02777778 </v>
   <v>       0.02777778 </v>
   <v>       0.02777778 </v>
   <v>       0.02777778 </v>
   <v>       0.02777778 </v>
   <v>       0.02777778 </v>
   <v>       0.02777778 </v>
   <v>       0.02777778 </v>
   <v>       0.02777778 </v>
   <v>       0.02777778 </v>
   <v>       0.01388889 </v>
   <v>       0.01388889 </v>
   <v>       0.02777778 </v>
   <v>       0.02777778 </v>
   <v>       0.02777778 </v>
   <v>       0.02777778 </v>
   <v>       0.02777778 </v>
   <v>       0.02777778 </v>
   <v>       0.02777778 </v>
   <v>       0.02777778 </v>
   <v>       0.01388889 </v>
   <v>       0.01388889 </v>
   <v>       0.02777778 </v>
   <v>       0.02777778 </v>
   <v>       0.02777778 </v>
   <v>       0.02777778 </v>
   <v>       0.02777778 </v>
   <v>       0.02777778 </v>
   <v>       0.01388889 </v>
   <v>       0.01388889 </v>
   <v>       0.02777778 </v>
   <v>       0.02777778 </v>
   <v>       0.02777778 </v>
   <v>       0.02777778 </v>
   <v>       0.01388889 </v>
   <v>       0.01388889 </v>
   <v>       0.02777778 </v>
   <v>       0.02777778 </v>
   <v>       0.01388889 </v>
   <v>       0.01388889 </v>
   <v>       0.01388889 </v>
  </varray>
 </kpoints>
 <parameters>
  <separator name="general" >
   <i type="string" name="SYSTEM">unknown system</i>
   <i type="logical" name="LCOMPAT"> F  </i>
  </separator>
  <separator name="electronic" >
   <i type="string" name="PREC">high</i>
   <i name="ENMAX">    875.00000000</i>
   <i name="ENAUG">    946.76800000</i>
   <i name="EDIFF">      0.00000010</i>
   <i type="int" name="IALGO">    48</i>
   <i type="int" name="IWAVPR">    11</i>
   <i type="int" name="NBANDS">    24</i>
   <i name="NELECT">      8.00000000</i>
   <i type="int" name="TURBO">     0</i>
   <i type="int" name="IRESTART">     0</i>
   <i type="int" name="NREBOOT">     0</i>
   <i type="int" name="NMIN">     0</i>
   <i name="EREF">      0.00000000</i>
   <separator name="electronic smearing" >
    <i type="int" name="ISMEAR">     0</i>
    <i name="SIGMA">      0.05000000</i>
    <i name="KSPACING">      0.50000000</i>
    <i type="logical" name="KGAMMA"> T  </i>
   </separator>
   <separator name="electronic projectors" >
    <i type="logical" name="LREAL"> F  </i>
    <v name="ROPT">      0.00000000</v>
    <i type="int" name="LMAXPAW">  -100</i>
    <i type="int" name="LMAXMIX">     2</i>
    <i type="logical" name="NLSPLINE"> F  </i>
   </separator>
   <separator name="electronic startup" >
    <i type="int" name="ISTART">     0</i>
    <i type="int" name="ICHARG">     2</i>
    <i type="int" name="INIWAV">     1</i>
   </separator>
   <separator name="electronic spin" >
    <i type="int" name="ISPIN">     1</i>
    <i type="logical" name="LNONCOLLINEAR"> F  </i>
    <v name="MAGMOM">      1.00000000      1.00000000</v>
    <i name="NUPDOWN">     -1.00000000</i>
    <i type="logical" name="LSORBIT"> F  </i>
    <v name="SAXIS">      0.00000000      0.00000000      1.00000000</v>
    <i type="logical" name="LSPIRAL"> F  </i>
    <v name="QSPIRAL">      0.00000000      0.00000000      0.00000000</v>
    <i type="logical" name="LZEROZ"> F  </i>
   </separator>
   <separator name="electronic exchange-correlation" >
    <i type="logical" name="LASPH"> F  </i>
    <i type="logical" name="LMETAGGA"> F  </i>
   </separator>
   <separator name="electronic convergence" >
    <i type="int" name="NELM">    40</i>
    <i type="int" name="NELMDL">     0</i>
    <i type="int" name="NELMIN">     2</i>
    <i name="ENINI">    875.00000000</i>
    <separator name="electronic convergence detail" >
     <i type="logical" name="LDIAG"> T  </i>
     <i type="logical" name="LSUBROT"> F  </i>
     <i name="WEIMIN">      0.00100000</i>
     <i name="EBREAK">      0.00000000</i>
     <i name="DEPER">      0.30000000</i>
     <i type="int" name="NRMM">     4</i>
     <i name="TIME">      0.40000000</i>
    </separator>
   </separator>
   <separator name="electronic mixer" >
    <i name="AMIX">      0.40000000</i>
    <i name="BMIX">      1.00000000</i>
    <i name="AMIN">      0.10000000</i>
    <i name="AMIX_MAG">      1.60000000</i>
    <i name="BMIX_MAG">      1.00000000</i>
    <separator name="electronic mixer details" >
     <i type="int" name="IMIX">     4</i>
     <i type="logical" name="MIXFIRST"> F  </i>
     <i type="int" name="MAXMIX">   -45</i>
     <i name="WC">    100.00000000</i>
     <i type="int" name="INIMIX">     1</i>
     <i type="int" name="MIXPRE">     1</i>
     <i type="int" name="MREMOVE">     5</i>
    </separator>
   </separator>
   <separator name="electronic dipolcorrection" >
    <i type="logical" name="LDIPOL"> F  </i>
    <i type="logical" name="LMONO"> F  </i>
    <i type="int" name="IDIPOL">     0</i>
    <i name="EPSILON">      1.00000000</i>
    <v name="DIPOL">   -100.00000000   -100.00000000   -100.00000000</v>
    <i name="EFIELD">      0.00000000</i>
   </separator>
  </separator>
  <separator name="grids" >
   <i type="int" name="NGX">    24</i>
   <i type="int" name="NGY">    24</i>
   <i type="int" name="NGZ">   294</i>
   <i type="int" name="NGXF">    36</i>
   <i type="int" name="NGYF">    36</i>
   <i type="int" name="NGZF">   420</i>
   <i type="logical" name="ADDGRID"> F  </i>
  </separator>
  <separator name="ionic" >
   <i type="int" name="NSW">   100</i>
   <i type="int" name="IBRION">     2</i>
   <i type="int" name="MDALGO">     0</i>
   <i type="int" name="ISIF">     2</i>
   <i name="PSTRESS">      0.00000000</i>
   <i name="EDIFFG">     -0.01000000</i>
   <i type="int" name="NFREE">     1</i>
   <i name="POTIM">      0.50000000</i>
   <i name="SMASS">     -3.00000000</i>
   <i name="SCALEE">      1.00000000</i>
  </separator>
  <separator name="ionic md" >
   <i name="TEBEG">      0.00010000</i>
   <i name="TEEND">      0.00010000</i>
   <i type="int" name="NBLOCK">     1</i>
   <i type="int" name="KBLOCK">   100</i>
   <i type="int" name="NPACO">   256</i>
   <i name="APACO">     16.00000000</i>
  </separator>
  <separator name="symmetry" >
   <i type="int" name="ISYM">     2</i>
   <i name="SYMPREC">      0.00001000</i>
  </separator>
  <separator name="dos" >
   <i type="int" name="LORBIT">     0</i>
   <v name="RWIGS">     -1.00000000</v>
   <i type="int" name="NEDOS">   301</i>
   <i name="EMIN">     10.00000000</i>
   <i name="EMAX">    -10.00000000</i>
   <i name="EFERMI">      0.00000000</i>
  </separator>
  <separator name="writing" >
   <i type="int" name="NWRITE">     2</i>
   <i type="logical" name="LWAVE"> F  </i>
   <i type="logical" name="LDOWNSAMPLE"> F  </i>
   <i type="logical" name="LCHARG"> F  </i>
   <i type="logical" name="LPARD"> F  </i>
   <i type="logical" name="LVTOT"> F  </i>
   <i type="logical" name="LVHAR"> F  </i>
   <i type="logical" name="LELF"> F  </i>
   <i type="logical" name="LOPTICS"> F  </i>
   <v name="STM">      0.00000000      0.00000000      0.00000000      0.00000000      0.00000000      0.00000000      0.00000000</v>
  </separator>
  <separator name="performance" >
   <i type="int" name="NPAR">    24</i>
   <i type="int" name="NSIM">     4</i>
   <i type="int" name="NBLK">    -1</i>
   <i type="logical" name="LPLANE"> T  </i>
   <i type="logical" name="LSCALAPACK"> T  </i>
   <i type="logical" name="LSCAAWARE"> F  </i>
   <i type="logical" name="LSCALU"> F  </i>
   <i type="logical" name="LASYNC"> F  </i>
   <i type="logical" name="LORBITALREAL"> F  </i>
  </separator>
  <separator name="miscellaneous" >
   <i type="int" name="IDIOT">     3</i>
   <i type="int" name="ISPECIAL">     0</i>
   <i type="logical" name="LMUSIC"> F  </i>
   <v name="POMASS">     12.01100000</v>
   <v name="DARWINR">      0.00000000</v>
   <v name="DARWINV">      1.00000000</v>
   <i type="logical" name="LCORR"> T  </i>
  </separator>
  <i type="logical" name="GGA_COMPAT"> T  </i>
  <i type="logical" name="LBERRY"> F  </i>
  <i type="int" name="ICORELEVEL">     0</i>
  <i type="logical" name="LDAU"> F  </i>
  <i type="int" name="I_CONSTRAINED_M">     0</i>
  <separator name="electronic exchange-correlation" >
   <i type="string" name="GGA">--</i>
   <i type="int" name="VOSKOWN">     0</i>
   <i type="logical" name="LHFCALC"> F  </i>
   <i type="string" name="PRECFOCK"></i>
   <i type="logical" name="LSYMGRAD"> F  </i>
   <i type="logical" name="LHFONE"> F  </i>
   <i type="logical" name="LRHFCALC"> F  </i>
   <i type="logical" name="LTHOMAS"> F  </i>
   <i type="logical" name="LMODELHF"> F  </i>
   <i name="ENCUT4O">     -1.00000000</i>
   <i type="int" name="EXXOEP">     0</i>
   <i type="int" name="FOURORBIT">     0</i>
   <i name="AEXX">      0.00000000</i>
   <i name="HFALPHA">      0.00000000</i>
   <i name="MCALPHA">      0.00000000</i>
   <i name="ALDAX">      1.00000000</i>
   <i name="AGGAX">      1.00000000</i>
   <i name="ALDAC">      1.00000000</i>
   <i name="AGGAC">      1.00000000</i>
   <i type="int" name="NKREDX">     1</i>
   <i type="int" name="NKREDY">     1</i>
   <i type="int" name="NKREDZ">     1</i>
   <i type="logical" name="SHIFTRED"> F  </i>
   <i type="logical" name="ODDONLY"> F  </i>
   <i type="logical" name="EVENONLY"> F  </i>
   <i type="int" name="LMAXFOCK">     0</i>
   <i type="int" name="NMAXFOCKAE">     0</i>
   <i type="logical" name="LFOCKAEDFT"> F  </i>
   <i name="HFSCREEN">      0.00000000</i>
   <i name="HFSCREENC">      0.00000000</i>
   <i type="int" name="NBANDSGWLOW">     0</i>
  </separator>
  <separator name="vdW DFT" >
   <i type="logical" name="LUSE_VDW"> F  </i>
   <i name="Zab_VDW">     -0.84910000</i>
   <i name="PARAM1">      0.12340000</i>
   <i name="PARAM2">      1.00000000</i>
   <i name="PARAM3">      0.00000000</i>
  </separator>
  <separator name="model GW" >
   <i type="int" name="MODEL_GW">     0</i>
   <i name="MODEL_EPS0">     48.57921553</i>
   <i name="MODEL_ALPHA">      1.00000000</i>
  </separator>
  <separator name="linear response parameters" >
   <i type="logical" name="LEPSILON"> F  </i>
   <i type="logical" name="LRPA"> F  </i>
   <i type="logical" name="LNABLA"> F  </i>
   <i type="logical" name="LVEL"> F  </i>
   <i type="int" name="KINTER">     0</i>
   <i name="CSHIFT">      0.10000000</i>
   <i name="OMEGAMAX">     -1.00000000</i>
   <i name="DEG_THRESHOLD">      0.00200000</i>
   <i name="RTIME">     -0.10000000</i>
   <i name="WPLASMAI">      0.00000000</i>
   <v name="DFIELD">      0.00000000      0.00000000      0.00000000</v>
   <v name="WPLASMA">      0.00000000      0.00000000      0.00000000      0.00000000      0.00000000      0.00000000      0.00000000      0.00000000      0.00000000</v>
  </separator>
  <separator name="orbital magnetization" >
   <i type="logical" name="NUCIND"> F  </i>
   <v name="MAGPOS">      0.00000000      0.00000000      0.00000000</v>
   <i type="logical" name="LNICSALL"> T  </i>
   <i type="logical" name="ORBITALMAG"> F  </i>
   <i type="logical" name="LMAGBLOCH"> F  </i>
   <i type="logical" name="LCHIMAG"> F  </i>
   <i type="logical" name="LGAUGE"> T  </i>
   <i type="int" name="MAGATOM">     0</i>
   <v name="MAGDIPOL">      0.00000000      0.00000000      0.00000000</v>
   <v name="AVECCONST">      0.00000000      0.00000000      0.00000000</v>
  </separator>
  <separator name="response functions" >
   <i type="logical" name="LADDER"> F  </i>
   <i type="logical" name="LRPAFORCE"> F  </i>
   <i type="logical" name="LFXC"> F  </i>
   <i type="logical" name="LHARTREE"> T  </i>
   <i type="int" name="IBSE">     0</i>
   <v type="int" name="KPOINT">    -1     0     0     0</v>
   <i type="logical" name="LTCTE"> F  </i>
   <i type="logical" name="LTETE"> F  </i>
   <i type="logical" name="LTRIPLET"> F  </i>
   <i type="logical" name="LFXCEPS"> F  </i>
   <i type="logical" name="LFXHEG"> F  </i>
   <i type="int" name="NATURALO">     2</i>
   <i type="logical" name="L2ORDER"> F  </i>
   <i type="logical" name="LMP2LT"> F  </i>
   <i type="logical" name="LUSEW"> F  </i>
   <i name="ENCUTGW">     -2.00000000</i>
   <i name="ENCUTGWSOFT">     -2.00000000</i>
   <i name="ENCUTLF">     -1.00000000</i>
   <i type="int" name="LMAXMP2">    -1</i>
   <i name="SCISSOR">      0.00000000</i>
   <i type="int" name="NOMEGA">     0</i>
   <i type="int" name="NOMEGAR">     0</i>
   <i type="int" name="NBANDSGW">    -1</i>
   <i type="int" name="NBANDSO">    -1</i>
   <i type="int" name="NBANDSV">    -1</i>
   <i type="int" name="NELM">    40</i>
   <i type="int" name="NELMHF">     1</i>
   <i type="int" name="DIM">     3</i>
   <i type="int" name="ANTIRES">     0</i>
   <i name="OMEGAMAX">    -30.00000000</i>
   <i name="OMEGAMIN">    -30.00000000</i>
   <i name="OMEGATL">   -200.00000000</i>
   <i type="int" name="OMEGAGRID">   140</i>
   <i name="CSHIFT">     -0.10000000</i>
   <i type="logical" name="SELFENERGY"> F  </i>
   <i type="logical" name="LSPECTRAL"> F  </i>
   <i type="logical" name="LSPECTRALGW"> F  </i>
   <i type="logical" name="LSINGLES"> F  </i>
   <i type="logical" name="LFERMIGW"> F  </i>
   <i type="logical" name="ODDONLYGW"> F  </i>
   <i type="logical" name="EVENONLYGW"> F  </i>
   <i type="int" name="NKREDLFX">     1</i>
   <i type="int" name="NKREDLFY">     1</i>
   <i type="int" name="NKREDLFZ">     1</i>
   <i type="int" name="MAXMEM">  2800</i>
   <i type="int" name="TELESCOPE">     0</i>
   <i type="int" name="TAUPAR">     1</i>
   <i type="int" name="OMEGAPAR">    -1</i>
   <i name="LAMBDA">      1.00000000</i>
  </separator>
  <separator name="External order field" >
   <i name="OFIELD_KAPPA">      0.00000000</i>
   <v name="OFIELD_K">      0.00000000      0.00000000      0.00000000</v>
   <i name="OFIELD_Q6_NEAR">      0.00000000</i>
   <i name="OFIELD_Q6_FAR">      0.00000000</i>
   <i name="OFIELD_A">      0.00000000</i>
  </separator>
 </parameters>
 <atominfo>
  <atoms>       2 </atoms>
  <types>       1 </types>
  <array name="atoms" >
   <dimension dim="1">ion</dimension>
   <field type="string">element</field>
   <field type="int">atomtype</field>
   <set>
    <rc><c>C </c><c>   1</c></rc>
    <rc><c>C </c><c>   1</c></rc>
   </set>
  </array>
  <array name="atomtypes" >
   <dimension dim="1">type</dimension>
   <field type="int">atomspertype</field>
   <field type="string">element</field>
   <field>mass</field>
   <field>valence</field>
   <field type="string">pseudopotential</field>
   <set>
    <rc><c>   2</c><c>C </c><c>     12.01100000</c><c>      4.00000000</c><c>  PAW_PBE C_h 06Feb2004                 </c></rc>
   </set>
  </array>
 </atominfo>
 <structure name="initialpos" >
  <crystal>
   <varray name="basis" >
    <v>       1.24243496      -2.15196589       0.00000000 </v>
    <v>       1.24243496       2.15196589       0.00000000 </v>
    <v>       0.00000000       0.00000000      30.28239374 </v>
   </varray>
   <i name="volume">    161.93071842 </i>
   <varray name="rec_basis" >
    <v>       0.40243555      -0.23234569       0.00000000 </v>
    <v>       0.40243555       0.23234569       0.00000000 </v>
    <v>       0.00000000       0.00000000       0.03302249 </v>
   </varray>
  </crystal>
  <varray name="positions" >
   <v>       0.00000262       0.99999738       0.50000000 </v>
   <v>       0.66666738       0.33333262       0.50000000 </v>
  </varray>
 </structure>
 <calculation>
  <scstep>
   <time name="diag">    0.65    0.75</time>
   <time name="diis">    1.23    1.26</time>
   <time name="orth">    0.03    0.03</time>
   <time name="total">    1.96    2.13</time>
   <energy>
    <i name="alphaZ">      1.35417775 </i>
    <i name="ewald">   2199.00021856 </i>
    <i name="hartreedc">  -2406.38898787 </i>
    <i name="XCdc">     14.39733463 </i>
    <i name="pawpsdc">    228.69403340 </i>
    <i name="pawaedc">   -218.18290438 </i>
    <i name="eentropy">     -0.00083941 </i>
    <i name="bandstr">    -13.51137012 </i>
    <i name="atom">    294.30319316 </i>
    <i name="e_fr_energy">     99.66485571 </i>
    <i name="e_wo_entrp">     99.66569512 </i>
    <i name="e_0_energy">     99.66527542 </i>
   </energy>
  </scstep>
  <scstep>
   <time name="diag">    0.63    0.64</time>
   <time name="diis">    1.21    1.21</time>
   <time name="orth">    0.03    0.03</time>
   <time name="total">    1.87    1.89</time>
   <energy>
    <i name="e_fr_energy">     49.03966477 </i>
    <i name="e_wo_entrp">     49.04287010 </i>
    <i name="e_0_energy">     49.04126743 </i>
   </energy>
  </scstep>
  <scstep>
   <time name="diag">    0.63    0.65</time>
   <time name="diis">    1.22    1.22</time>
   <time name="orth">    0.03    0.03</time>
   <time name="total">    1.88    1.90</time>
   <energy>
    <i name="e_fr_energy">     10.25412365 </i>
    <i name="e_wo_entrp">     10.25703229 </i>
    <i name="e_0_energy">     10.25557797 </i>
   </energy>
  </scstep>
  <scstep>
   <time name="diag">    0.63    0.64</time>
   <time name="diis">    1.21    1.22</time>
   <time name="orth">    0.03    0.03</time>
   <time name="total">    1.87    1.89</time>
   <energy>
    <i name="e_fr_energy">    -13.23793892 </i>
    <i name="e_wo_entrp">    -13.23715532 </i>
    <i name="e_0_energy">    -13.23754712 </i>
   </energy>
  </scstep>
  <scstep>
   <time name="diag">    0.63    0.64</time>
   <time name="diis">    1.21    1.22</time>
   <time name="orth">    0.03    0.03</time>
   <time name="total">    1.88    1.89</time>
   <energy>
    <i name="e_fr_energy">    -18.24523216 </i>
    <i name="e_wo_entrp">    -18.24523216 </i>
    <i name="e_0_energy">    -18.24523216 </i>
   </energy>
  </scstep>
  <scstep>
   <time name="diag">    0.63    0.64</time>
   <time name="diis">    1.20    1.20</time>
   <time name="orth">    0.03    0.03</time>
   <time name="total">    1.86    1.87</time>
   <energy>
    <i name="e_fr_energy">    -19.31583411 </i>
    <i name="e_wo_entrp">    -19.31583411 </i>
    <i name="e_0_energy">    -19.31583411 </i>
   </energy>
  </scstep>
  <scstep>
   <time name="diag">    0.64    0.64</time>
   <time name="diis">    1.21    1.22</time>
   <time name="orth">    0.03    0.03</time>
   <time name="total">    1.89    1.90</time>
   <energy>
    <i name="e_fr_energy">    -19.55405424 </i>
    <i name="e_wo_entrp">    -19.55405424 </i>
    <i name="e_0_energy">    -19.55405424 </i>
   </energy>
  </scstep>
  <scstep>
   <time name="diag">    0.64    0.64</time>
   <time name="diis">    1.21    1.21</time>
   <time name="orth">    0.03    0.03</time>
   <time name="total">    1.88    1.89</time>
   <energy>
    <i name="e_fr_energy">    -19.61708054 </i>
    <i name="e_wo_entrp">    -19.61708054 </i>
    <i name="e_0_energy">    -19.61708054 </i>
   </energy>
  </scstep>
  <scstep>
   <time name="diag">    0.63    0.64</time>
   <time name="diis">    2.34    2.38</time>
   <time name="orth">    0.03    0.03</time>
   <time name="total">    3.00    3.06</time>
   <energy>
    <i name="e_fr_energy">    -19.64041026 </i>
    <i name="e_wo_entrp">    -19.64041026 </i>
    <i name="e_0_energy">    -19.64041026 </i>
   </energy>
  </scstep>
  <scstep>
   <time name="diag">    0.63    0.64</time>
   <time name="diis">    2.57    2.58</time>
   <time name="orth">    0.03    0.03</time>
   <time name="total">    3.23    3.25</time>
   <energy>
    <i name="e_fr_energy">    -19.64436798 </i>
    <i name="e_wo_entrp">    -19.64436798 </i>
    <i name="e_0_energy">    -19.64436798 </i>
   </energy>
  </scstep>
  <scstep>
   <time name="diag">    0.63    0.64</time>
   <time name="diis">    2.29    2.30</time>
   <time name="orth">    0.03    0.03</time>
   <time name="total">    2.95    2.97</time>
   <energy>
    <i name="e_fr_energy">    -19.64452828 </i>
    <i name="e_wo_entrp">    -19.64452828 </i>
    <i name="e_0_energy">    -19.64452828 </i>
   </energy>
  </scstep>
  <scstep>
   <time name="diag">    0.64    0.64</time>
   <time name="diis">    2.52    2.53</time>
   <time name="orth">    0.03    0.03</time>
   <time name="total">    3.36    3.41</time>
   <energy>
    <i name="e_fr_energy">    -19.64455585 </i>
    <i name="e_wo_entrp">    -19.64455585 </i>
    <i name="e_0_energy">    -19.64455585 </i>
   </energy>
  </scstep>
  <scstep>
   <time name="diag">    0.62    0.62</time>
   <time name="diis">    2.23    2.24</time>
   <time name="orth">    0.03    0.03</time>
   <time name="total">    3.07    3.11</time>
   <energy>
    <i name="e_fr_energy">    -18.81350351 </i>
    <i name="e_wo_entrp">    -18.81350351 </i>
    <i name="e_0_energy">    -18.81350351 </i>
   </energy>
  </scstep>
  <scstep>
   <time name="diag">    0.62    0.62</time>
   <time name="diis">    2.23    2.24</time>
   <time name="orth">    0.03    0.03</time>
   <time name="total">    3.07    3.10</time>
   <energy>
    <i name="e_fr_energy">    -18.50007151 </i>
    <i name="e_wo_entrp">    -18.50007151 </i>
    <i name="e_0_energy">    -18.50007151 </i>
   </energy>
  </scstep>
  <scstep>
   <time name="diag">    0.62    0.62</time>
   <time name="diis">    2.30    2.31</time>
   <time name="orth">    0.03    0.03</time>
   <time name="total">    3.14    3.16</time>
   <energy>
    <i name="e_fr_energy">    -18.48086128 </i>
    <i name="e_wo_entrp">    -18.48086128 </i>
    <i name="e_0_energy">    -18.48086128 </i>
   </energy>
  </scstep>
  <scstep>
   <time name="diag">    0.62    0.62</time>
   <time name="diis">    2.31    2.31</time>
   <time name="orth">    0.03    0.03</time>
   <time name="total">    3.15    3.17</time>
   <energy>
    <i name="e_fr_energy">    -18.47941779 </i>
    <i name="e_wo_entrp">    -18.47941779 </i>
    <i name="e_0_energy">    -18.47941779 </i>
   </energy>
  </scstep>
  <scstep>
   <time name="diag">    0.62    0.62</time>
   <time name="diis">    2.26    2.27</time>
   <time name="orth">    0.03    0.03</time>
   <time name="total">    3.10    3.12</time>
   <energy>
    <i name="e_fr_energy">    -18.47821438 </i>
    <i name="e_wo_entrp">    -18.47821438 </i>
    <i name="e_0_energy">    -18.47821438 </i>
   </energy>
  </scstep>
  <scstep>
   <time name="diag">    0.62    0.62</time>
   <time name="diis">    2.28    2.29</time>
   <time name="orth">    0.03    0.03</time>
   <time name="total">    3.13    3.14</time>
   <energy>
    <i name="e_fr_energy">    -18.47819316 </i>
    <i name="e_wo_entrp">    -18.47819316 </i>
    <i name="e_0_energy">    -18.47819316 </i>
   </energy>
  </scstep>
  <scstep>
   <time name="diag">    0.62    0.62</time>
   <time name="diis">    2.27    2.28</time>
   <time name="orth">    0.03    0.03</time>
   <time name="total">    3.11    3.13</time>
   <energy>
    <i name="e_fr_energy">    -18.47865058 </i>
    <i name="e_wo_entrp">    -18.47865058 </i>
    <i name="e_0_energy">    -18.47865058 </i>
   </energy>
  </scstep>
  <scstep>
   <time name="diag">    0.62    0.62</time>
   <time name="diis">    2.32    2.32</time>
   <time name="orth">    0.03    0.03</time>
   <time name="total">    3.15    3.18</time>
   <energy>
    <i name="e_fr_energy">    -18.47892862 </i>
    <i name="e_wo_entrp">    -18.47892862 </i>
    <i name="e_0_energy">    -18.47892862 </i>
   </energy>
  </scstep>
  <scstep>
   <time name="diag">    0.62    0.62</time>
   <time name="diis">    2.28    2.28</time>
   <time name="orth">    0.03    0.03</time>
   <time name="total">    3.12    3.14</time>
   <energy>
    <i name="e_fr_energy">    -18.47947362 </i>
    <i name="e_wo_entrp">    -18.47947362 </i>
    <i name="e_0_energy">    -18.47947362 </i>
   </energy>
  </scstep>
  <scstep>
   <time name="diag">    0.62    0.62</time>
   <time name="diis">    2.20    2.20</time>
   <time name="orth">    0.03    0.03</time>
   <time name="total">    3.03    3.05</time>
   <energy>
    <i name="e_fr_energy">    -18.47956555 </i>
    <i name="e_wo_entrp">    -18.47956555 </i>
    <i name="e_0_energy">    -18.47956555 </i>
   </energy>
  </scstep>
  <scstep>
   <time name="diag">    0.62    0.62</time>
   <time name="diis">    2.28    2.29</time>
   <time name="orth">    0.03    0.03</time>
   <time name="total">    3.13    3.16</time>
   <energy>
    <i name="e_fr_energy">    -18.47958456 </i>
    <i name="e_wo_entrp">    -18.47958456 </i>
    <i name="e_0_energy">    -18.47958456 </i>
   </energy>
  </scstep>
  <scstep>
   <time name="diag">    0.62    0.62</time>
   <time name="diis">    2.22    2.23</time>
   <time name="orth">    0.03    0.03</time>
   <time name="total">    3.06    3.08</time>
   <energy>
    <i name="e_fr_energy">    -18.47959802 </i>
    <i name="e_wo_entrp">    -18.47959802 </i>
    <i name="e_0_energy">    -18.47959802 </i>
   </energy>
  </scstep>
  <scstep>
   <time name="diag">    0.62    0.62</time>
   <time name="diis">    2.22    2.22</time>
   <time name="orth">    0.03    0.03</time>
   <time name="total">    3.06    3.08</time>
   <energy>
    <i name="e_fr_energy">    -18.47959990 </i>
    <i name="e_wo_entrp">    -18.47959990 </i>
    <i name="e_0_energy">    -18.47959990 </i>
   </energy>
  </scstep>
  <scstep>
   <time name="diag">    0.62    0.62</time>
   <time name="diis">    2.21    2.21</time>
   <time name="orth">    0.03    0.03</time>
   <time name="total">    3.05    3.07</time>
   <energy>
    <i name="e_fr_energy">    -18.47960188 </i>
    <i name="e_wo_entrp">    -18.47960188 </i>
    <i name="e_0_energy">    -18.47960188 </i>
   </energy>
  </scstep>
  <scstep>
   <time name="diag">    0.62    0.63</time>
   <time name="diis">    2.20    2.20</time>
   <time name="orth">    0.03    0.03</time>
   <time name="total">    3.04    3.06</time>
   <energy>
    <i name="e_fr_energy">    -18.47960270 </i>
    <i name="e_wo_entrp">    -18.47960270 </i>
    <i name="e_0_energy">    -18.47960270 </i>
   </energy>
  </scstep>
  <scstep>
   <time name="diag">    0.62    0.62</time>
   <time name="diis">    2.20    2.20</time>
   <time name="orth">    0.03    0.03</time>
   <time name="total">    3.03    3.05</time>
   <energy>
    <i name="e_fr_energy">    -18.47960291 </i>
    <i name="e_wo_entrp">    -18.47960291 </i>
    <i name="e_0_energy">    -18.47960291 </i>
   </energy>
  </scstep>
  <scstep>
   <time name="diag">    0.62    0.62</time>
   <time name="diis">    2.19    2.19</time>
   <time name="orth">    0.03    0.03</time>
   <time name="total">    2.86    2.88</time>
   <energy>
    <i name="alphaZ">      1.35417775 </i>
    <i name="ewald">   2199.00021856 </i>
    <i name="hartreedc">  -2440.54937706 </i>
    <i name="XCdc">     15.49810291 </i>
    <i name="pawpsdc">   3913.77133929 </i>
    <i name="pawaedc">  -3903.41845244 </i>
    <i name="eentropy">     -0.00000000 </i>
    <i name="bandstr">    -98.43880512 </i>
    <i name="atom">    294.30319316 </i>
    <i name="e_fr_energy">    -18.47960295 </i>
    <i name="e_wo_entrp">    -18.47960295 </i>
    <i name="e_0_energy">    -18.47960295 </i>
   </energy>
  </scstep>
  <structure>
   <crystal>
    <varray name="basis" >
     <v>       1.24243496      -2.15196589       0.00000000 </v>
     <v>       1.24243496       2.15196589       0.00000000 </v>
     <v>       0.00000000       0.00000000      30.28239374 </v>
    </varray>
    <i name="volume">    161.93071842 </i>
    <varray name="rec_basis" >
     <v>       0.40243555      -0.23234569       0.00000000 </v>
     <v>       0.40243555       0.23234569       0.00000000 </v>
     <v>       0.00000000       0.00000000       0.03302249 </v>
    </varray>
   </crystal>
   <varray name="positions" >
    <v>       0.00000262       0.99999738       0.50000000 </v>
    <v>       0.66666738       0.33333262       0.50000000 </v>
   </varray>
  </structure>
  <varray name="forces" >
   <v>       0.00000000       0.00000000       0.00000000 </v>
   <v>      -0.00000000      -0.00000000       0.00000000 </v>
  </varray>
  <varray name="stress" >
   <v>     -10.43417171       0.00000000      -0.00000000 </v>
   <v>       0.00000000     -10.43422421       0.00000000 </v>
   <v>      -0.00000000       0.00000000      -0.46370524 </v>
  </varray>
  <energy>
   <i name="e_fr_energy">    -18.58787402 </i>
   <i name="e_wo_entrp">    -18.58787402 </i>
   <i name="e_0_energy">     -0.00000000 </i>
  </energy>
  <time name="totalsc">   81.49   82.39</time>
  <eigenvalues>
   <array>
    <dimension dim="1">band</dimension>
    <dimension dim="2">kpoint</dimension>
    <dimension dim="3">spin</dimension>
    <field>eigene</field>
    <field>occ</field>
    <set>
     <set comment="spin 1">
      <set comment="kpoint 1">
       <r>  -22.4616    1.0000 </r>
       <r>  -10.5595    1.0000 </r>
       <r>   -6.7878    1.0000 </r>
       <r>   -6.5673    1.0000 </r>
       <r>    0.2569    0.0000 </r>
       <r>    1.0181    0.0000 </r>
       <r>    1.2394    0.0000 </r>
       <r>    1.5521    0.0000 </r>
       <r>    1.7602    0.0000 </r>
       <r>    2.4050    0.0000 </r>
       <r>    2.7076    0.0000 </r>
       <r>    3.6557    0.0000 </r>
       <r>    4.0079    0.0000 </r>
       <r>    4.9996    0.0000 </r>
       <r>    5.2513    0.0000 </r>
       <r>    5.4047    0.0000 </r>
       <r>    5.6754    0.0000 </r>
       <r>    7.1901    0.0000 </r>
       <r>    7.5056    0.0000 </r>
       <r>    7.6921    0.0000 </r>
       <r>    8.9776    0.0000 </r>
       <r>    9.4691    0.0000 </r>
       <r>   10.0601    0.0000 </r>
       <r>   12.0813    0.0000 </r>
      </set>
      <set comment="kpoint 2">
       <r>  -22.0585    1.0000 </r>
       <r>  -10.0820    1.0000 </r>
       <r>   -8.1570    1.0000 </r>
       <r>   -7.2951    1.0000 </r>
       <r>    0.8053    0.0000 </r>
       <r>    1.5739    0.0000 </r>
       <r>    1.8029    0.0000 </r>
       <r>    2.1129    0.0000 </r>
       <r>    2.3219    0.0000 </r>
       <r>    2.9640    0.0000 </r>
       <r>    3.2665    0.0000 </r>
       <r>    4.2122    0.0000 </r>
       <r>    4.5581    0.0000 </r>
       <r>    5.0868    0.0000 </r>
       <r>    5.8029    0.0000 </r>
       <r>    6.2350    0.0000 </r>
       <r>    6.2599    0.0000 </r>
       <r>    6.7903    0.0000 </r>
       <r>    7.7386    0.0000 </r>
       <r>    8.2495    0.0000 </r>
       <r>    9.8706    0.0000 </r>
       <r>   10.0089    0.0000 </r>
       <r>   10.6157    0.0000 </r>
       <r>   12.6041    0.0000 </r>
      </set>
      <set comment="kpoint 3">
       <r>  -21.3378    1.0000 </r>
       <r>  -10.1167    1.0000 </r>
       <r>   -9.2381    1.0000 </r>
       <r>   -8.1822    1.0000 </r>
       <r>    1.7910    0.0000 </r>
       <r>    2.5679    0.0000 </r>
       <r>    2.8172    0.0000 </r>
       <r>    3.1197    0.0000 </r>
       <r>    3.3324    0.0000 </r>
       <r>    3.9588    0.0000 </r>
       <r>    4.2684    0.0000 </r>
       <r>    4.3647    0.0000 </r>
       <r>    4.8536    0.0000 </r>
       <r>    5.2196    0.0000 </r>
       <r>    5.5828    0.0000 </r>
       <r>    6.7997    0.0000 </r>
       <r>    7.2340    0.0000 </r>
       <r>    8.7193    0.0000 </r>
       <r>    8.9447    0.0000 </r>
       <r>    9.2497    0.0000 </r>
       <r>   10.9649    0.0000 </r>
       <r>   11.3827    0.0000 </r>
       <r>   11.6176    0.0000 </r>
       <r>   13.4999    0.0000 </r>
      </set>
      <set comment="kpoint 4">
       <r>  -20.3101    1.0000 </r>
       <r>  -12.2680    1.0000 </r>
       <r>   -8.9593    1.0000 </r>
       <r>   -8.0666    1.0000 </r>
       <r>    2.1141    0.0000 </r>
       <r>    3.2068    0.0000 </r>
       <r>    4.0288    0.0000 </r>
       <r>    4.2812    0.0000 </r>
       <r>    4.5065    0.0000 </r>
       <r>    4.5829    0.0000 </r>
       <r>    4.8015    0.0000 </r>
       <r>    5.4246    0.0000 </r>
       <r>    5.7346    0.0000 </r>
       <r>    6.6575    0.0000 </r>
       <r>    7.0238    0.0000 </r>
       <r>    8.2237    0.0000 </r>
       <r>    8.6744    0.0000 </r>
       <r>   10.1101    0.0000 </r>
       <r>   10.6769    0.0000 </r>
       <r>   11.3009    0.0000 </r>
       <r>   12.2584    0.0000 </r>
       <r>   12.9421    0.0000 </r>
       <r>   13.0446    0.0000 </r>
       <r>   14.4697    0.0000 </r>
      </set>
      <set comment="kpoint 5">
       <r>  -19.0002    1.0000 </r>
       <r>  -14.3690    1.0000 </r>
       <r>   -9.4963    1.0000 </r>
       <r>   -6.6826    1.0000 </r>
       <r>   -0.0383    0.0000 </r>
       <r>    4.2141    0.0000 </r>
       <r>    5.0770    0.0000 </r>
       <r>    5.8907    0.0000 </r>
       <r>    6.1985    0.0000 </r>
       <r>    6.4837    0.0000 </r>
       <r>    6.7031    0.0000 </r>
       <r>    7.3132    0.0000 </r>
       <r>    7.6305    0.0000 </r>
       <r>    8.5242    0.0000 </r>
       <r>    8.9098    0.0000 </r>
       <r>   10.0377    0.0000 </r>
       <r>   10.5474    0.0000 </r>
       <r>   11.0998    0.0000 </r>
       <r>   11.6289    0.0000 </r>
       <r>   12.3153    0.0000 </r>
       <r>   12.5415    0.0000 </r>
       <r>   12.9531    0.0000 </r>
       <r>   13.1507    0.0000 </r>
       <r>   13.5945    0.0000 </r>
      </set>
      <set comment="kpoint 6">
       <r>  -17.5759    1.0000 </r>
       <r>  -16.1479    1.0000 </r>
       <r>   -9.7349    1.0000 </r>
       <r>   -5.5808    1.0000 </r>
       <r>   -1.4988    0.0000 </r>
       <r>    4.0945    0.0000 </r>
       <r>    7.3105    0.0000 </r>
       <r>    8.1425    0.0000 </r>
       <r>    8.5585    0.0000 </r>
       <r>    8.5760    0.0000 </r>
       <r>    8.8181    0.0000 </r>
       <r>    9.0564    0.0000 </r>
       <r>    9.3769    0.0000 </r>
       <r>    9.6635    0.0000 </r>
       <r>    9.9160    0.0000 </r>
       <r>    9.9655    0.0000 </r>
       <r>   10.1579    0.0000 </r>
       <r>   10.3963    0.0000 </r>
       <r>   10.7499    0.0000 </r>
       <r>   10.9942    0.0000 </r>
       <r>   11.2208    0.0000 </r>
       <r>   11.2904    0.0000 </r>
       <r>   11.9487    0.0000 </r>
       <r>   12.4756    0.0000 </r>
      </set>
      <set comment="kpoint 7">
       <r>  -18.2655    1.0000 </r>
       <r>  -15.3391    1.0000 </r>
       <r>   -9.6548    1.0000 </r>
       <r>   -6.0261    1.0000 </r>
       <r>   -0.9320    0.0000 </r>
       <r>    4.1366    0.0000 </r>
       <r>    6.1448    0.0000 </r>
       <r>    6.9754    0.0000 </r>
       <r>    7.3252    0.0000 </r>
       <r>    7.5994    0.0000 </r>
       <r>    7.8239    0.0000 </r>
       <r>    8.4162    0.0000 </r>
       <r>    8.7435    0.0000 </r>
       <r>    9.5930    0.0000 </r>
       <r>    9.8597    0.0000 </r>
       <r>   10.0222    0.0000 </r>
       <r>   10.6381    0.0000 </r>
       <r>   11.1945    0.0000 </r>
       <r>   11.3789    0.0000 </r>
       <r>   11.6150    0.0000 </r>
       <r>   11.6448    0.0000 </r>
       <r>   11.8387    0.0000 </r>
       <r>   12.3189    0.0000 </r>
       <r>   12.7585    0.0000 </r>
      </set>
      <set comment="kpoint 8">
       <r>  -19.6876    1.0000 </r>
       <r>  -13.3360    1.0000 </r>
       <r>   -9.2626    1.0000 </r>
       <r>   -7.3869    1.0000 </r>
       <r>    1.0077    0.0000 </r>
       <r>    4.0471    0.0000 </r>
       <r>    4.3903    0.0000 </r>
       <r>    4.9057    0.0000 </r>
       <r>    5.1845    0.0000 </r>
       <r>    5.4776    0.0000 </r>
       <r>    5.6939    0.0000 </r>
       <r>    6.3146    0.0000 </r>
       <r>    6.6268    0.0000 </r>
       <r>    7.5394    0.0000 </r>
       <r>    7.9123    0.0000 </r>
       <r>    9.0888    0.0000 </r>
       <r>    9.5583    0.0000 </r>
       <r>   10.9295    0.0000 </r>
       <r>   11.5470    0.0000 </r>
       <r>   11.8324    0.0000 </r>
       <r>   12.7754    0.0000 </r>
       <r>   13.4677    0.0000 </r>
       <r>   13.7472    0.0000 </r>
       <r>   13.9058    0.0000 </r>
      </set>
      <set comment="kpoint 9">
       <r>  -20.8613    1.0000 </r>
       <r>  -11.1864    1.0000 </r>
       <r>   -8.6891    1.0000 </r>
       <r>   -8.5950    1.0000 </r>
       <r>    2.4462    0.0000 </r>
       <r>    3.1044    0.0000 </r>
       <r>    3.3769    0.0000 </r>
       <r>    3.4934    0.0000 </r>
       <r>    3.8061    0.0000 </r>
       <r>    4.0047    0.0000 </r>
       <r>    4.6460    0.0000 </r>
       <r>    4.6681    0.0000 </r>
       <r>    4.9647    0.0000 </r>
       <r>    5.8829    0.0000 </r>
       <r>    6.2463    0.0000 </r>
       <r>    7.4588    0.0000 </r>
       <r>    7.8992    0.0000 </r>
       <r>    9.3664    0.0000 </r>
       <r>    9.9035    0.0000 </r>
       <r>   10.1663    0.0000 </r>
       <r>   11.5830    0.0000 </r>
       <r>   12.1799    0.0000 </r>
       <r>   12.2950    0.0000 </r>
       <r>   13.9922    0.0000 </r>
      </set>
      <set comment="kpoint 10">
       <r>  -21.7373    1.0000 </r>
       <r>   -9.7043    1.0000 </r>
       <r>   -9.0921    1.0000 </r>
       <r>   -7.7398    1.0000 </r>
       <r>    1.2437    0.0000 </r>
       <r>    2.0173    0.0000 </r>
       <r>    2.2537    0.0000 </r>
       <r>    2.5611    0.0000 </r>
       <r>    2.7711    0.0000 </r>
       <r>    3.4104    0.0000 </r>
       <r>    3.7132    0.0000 </r>
       <r>    4.6543    0.0000 </r>
       <r>    4.9251    0.0000 </r>
       <r>    5.0886    0.0000 </r>
       <r>    5.3685    0.0000 </r>
       <r>    6.2491    0.0000 </r>
       <r>    6.6793    0.0000 </r>
       <r>    7.7997    0.0000 </r>
       <r>    8.1756    0.0000 </r>
       <r>    8.6937    0.0000 </r>
       <r>   10.4367    0.0000 </r>
       <r>   10.5807    0.0000 </r>
       <r>   11.0599    0.0000 </r>
       <r>   13.0135    0.0000 </r>
      </set>
      <set comment="kpoint 11">
       <r>  -22.3001    1.0000 </r>
       <r>  -10.3679    1.0000 </r>
       <r>   -7.3675    1.0000 </r>
       <r>   -6.8873    1.0000 </r>
       <r>    0.4763    0.0000 </r>
       <r>    1.2406    0.0000 </r>
       <r>    1.4648    0.0000 </r>
       <r>    1.7765    0.0000 </r>
       <r>    1.9849    0.0000 </r>
       <r>    2.6287    0.0000 </r>
       <r>    2.9312    0.0000 </r>
       <r>    3.8784    0.0000 </r>
       <r>    4.2290    0.0000 </r>
       <r>    5.0738    0.0000 </r>
       <r>    5.4726    0.0000 </r>
       <r>    5.9003    0.0000 </r>
       <r>    5.9772    0.0000 </r>
       <r>    6.9859    0.0000 </r>
       <r>    7.4098    0.0000 </r>
       <r>    7.9155    0.0000 </r>
       <r>    9.3243    0.0000 </r>
       <r>    9.6856    0.0000 </r>
       <r>   10.2825    0.0000 </r>
       <r>   12.2916    0.0000 </r>
      </set>
      <set comment="kpoint 12">
       <r>  -22.5424    1.0000 </r>
       <r>  -10.6556    1.0000 </r>
       <r>   -6.4741    1.0000 </r>
       <r>   -6.3937    1.0000 </r>
       <r>    0.1472    0.0000 </r>
       <r>    0.9068    0.0000 </r>
       <r>    1.1267    0.0000 </r>
       <r>    1.4399    0.0000 </r>
       <r>    1.6479    0.0000 </r>
       <r>    2.2931    0.0000 </r>
       <r>    2.5958    0.0000 </r>
       <r>    3.5442    0.0000 </r>
       <r>    3.8973    0.0000 </r>
       <r>    4.9426    0.0000 </r>
       <r>    5.0957    0.0000 </r>
       <r>    5.1404    0.0000 </r>
       <r>    5.5618    0.0000 </r>
       <r>    7.0802    0.0000 </r>
       <r>    7.5802    0.0000 </r>
       <r>    7.7776    0.0000 </r>
       <r>    8.8185    0.0000 </r>
       <r>    9.3606    0.0000 </r>
       <r>    9.9487    0.0000 </r>
       <r>   12.2671    0.0000 </r>
      </set>
      <set comment="kpoint 13">
       <r>  -21.4975    1.0000 </r>
       <r>   -9.4629    1.0000 </r>
       <r>   -9.4230    1.0000 </r>
       <r>   -8.3622    1.0000 </r>
       <r>    1.5730    0.0000 </r>
       <r>    2.3500    0.0000 </r>
       <r>    2.5919    0.0000 </r>
       <r>    2.8975    0.0000 </r>
       <r>    3.1083    0.0000 </r>
       <r>    3.7457    0.0000 </r>
       <r>    4.0496    0.0000 </r>
       <r>    4.7932    0.0000 </r>
       <r>    4.9895    0.0000 </r>
       <r>    5.3319    0.0000 </r>
       <r>    5.8056    0.0000 </r>
       <r>    6.5745    0.0000 </r>
       <r>    7.0173    0.0000 </r>
       <r>    7.3089    0.0000 </r>
       <r>    8.4970    0.0000 </r>
       <r>    9.0274    0.0000 </r>
       <r>   10.7460    0.0000 </r>
       <r>   11.3892    0.0000 </r>
       <r>   11.5135    0.0000 </r>
       <r>   13.2872    0.0000 </r>
      </set>
      <set comment="kpoint 14">
       <r>  -20.6249    1.0000 </r>
       <r>  -11.2232    1.0000 </r>
       <r>   -9.4338    1.0000 </r>
       <r>   -8.4147    1.0000 </r>
       <r>    2.7759    0.0000 </r>
       <r>    2.8844    0.0000 </r>
       <r>    3.5713    0.0000 </r>
       <r>    3.8316    0.0000 </r>
       <r>    4.1300    0.0000 </r>
       <r>    4.3435    0.0000 </r>
       <r>    4.9717    0.0000 </r>
       <r>    5.2761    0.0000 </r>
       <r>    5.9447    0.0000 </r>
       <r>    6.2053    0.0000 </r>
       <r>    6.5875    0.0000 </r>
       <r>    7.7724    0.0000 </r>
       <r>    8.2292    0.0000 </r>
       <r>    8.7278    0.0000 </r>
       <r>    9.6591    0.0000 </r>
       <r>   10.2444    0.0000 </r>
       <r>   11.8040    0.0000 </r>
       <r>   12.5988    0.0000 </r>
       <r>   13.7583    0.0000 </r>
       <r>   15.1996    0.0000 </r>
      </set>
      <set comment="kpoint 15">
       <r>  -19.4573    1.0000 </r>
       <r>  -13.2240    1.0000 </r>
       <r>  -10.1876    1.0000 </r>
       <r>   -7.1184    1.0000 </r>
       <r>    0.8211    0.0000 </r>
       <r>    4.4038    0.0000 </r>
       <r>    5.2083    0.0000 </r>
       <r>    5.5206    0.0000 </r>
       <r>    5.6842    0.0000 </r>
       <r>    5.8054    0.0000 </r>
       <r>    6.0341    0.0000 </r>
       <r>    6.6336    0.0000 </r>
       <r>    6.9624    0.0000 </r>
       <r>    7.8414    0.0000 </r>
       <r>    8.2443    0.0000 </r>
       <r>    9.3470    0.0000 </r>
       <r>    9.8821    0.0000 </r>
       <r>   10.5916    0.0000 </r>
       <r>   11.0163    0.0000 </r>
       <r>   11.8929    0.0000 </r>
       <r>   12.3587    0.0000 </r>
       <r>   13.9300    0.0000 </r>
       <r>   14.0486    0.0000 </r>
       <r>   14.4487    0.0000 </r>
      </set>
      <set comment="kpoint 16">
       <r>  -18.0464    1.0000 </r>
       <r>  -15.1624    1.0000 </r>
       <r>  -10.6082    1.0000 </r>
       <r>   -5.7493    1.0000 </r>
       <r>   -1.0362    0.0000 </r>
       <r>    5.4669    0.0000 </r>
       <r>    6.4621    0.0000 </r>
       <r>    7.2187    0.0000 </r>
       <r>    7.6631    0.0000 </r>
       <r>    7.9134    0.0000 </r>
       <r>    8.1589    0.0000 </r>
       <r>    8.6896    0.0000 </r>
       <r>    9.0738    0.0000 </r>
       <r>    9.7155    0.0000 </r>
       <r>   10.0237    0.0000 </r>
       <r>   10.3472    0.0000 </r>
       <r>   10.5359    0.0000 </r>
       <r>   11.5083    0.0000 </r>
       <r>   11.7122    0.0000 </r>
       <r>   11.9188    0.0000 </r>
       <r>   11.9561    0.0000 </r>
       <r>   12.1389    0.0000 </r>
       <r>   12.4103    0.0000 </r>
       <r>   12.9598    0.0000 </r>
      </set>
      <set comment="kpoint 17">
       <r>  -17.3645    1.0000 </r>
       <r>  -15.9545    1.0000 </r>
       <r>  -10.6926    1.0000 </r>
       <r>   -5.2902    1.0000 </r>
       <r>   -1.5984    0.0000 </r>
       <r>    5.4272    0.0000 </r>
       <r>    7.6100    0.0000 </r>
       <r>    8.2484    0.0000 </r>
       <r>    8.8372    0.0000 </r>
       <r>    8.9034    0.0000 </r>
       <r>    9.0837    0.0000 </r>
       <r>    9.3894    0.0000 </r>
       <r>    9.4694    0.0000 </r>
       <r>    9.9942    0.0000 </r>
       <r>   10.2526    0.0000 </r>
       <r>   10.2909    0.0000 </r>
       <r>   10.4477    0.0000 </r>
       <r>   10.7232    0.0000 </r>
       <r>   10.8950    0.0000 </r>
       <r>   11.3216    0.0000 </r>
       <r>   11.5270    0.0000 </r>
       <r>   11.6026    0.0000 </r>
       <r>   11.9525    0.0000 </r>
       <r>   12.7528    0.0000 </r>
      </set>
      <set comment="kpoint 18">
       <r>  -18.7747    1.0000 </r>
       <r>  -14.2182    1.0000 </r>
       <r>  -10.4397    1.0000 </r>
       <r>   -6.4134    1.0000 </r>
       <r>   -0.1713    0.0000 </r>
       <r>    5.3401    0.0000 </r>
       <r>    5.6045    0.0000 </r>
       <r>    6.1756    0.0000 </r>
       <r>    6.5366    0.0000 </r>
       <r>    6.8071    0.0000 </r>
       <r>    7.0394    0.0000 </r>
       <r>    7.6201    0.0000 </r>
       <r>    7.9639    0.0000 </r>
       <r>    8.7917    0.0000 </r>
       <r>    9.2388    0.0000 </r>
       <r>   10.1638    0.0000 </r>
       <r>   10.7808    0.0000 </r>
       <r>   10.9294    0.0000 </r>
       <r>   11.3297    0.0000 </r>
       <r>   12.5796    0.0000 </r>
       <r>   12.8453    0.0000 </r>
       <r>   13.1846    0.0000 </r>
       <r>   13.3737    0.0000 </r>
       <r>   13.5417    0.0000 </r>
      </set>
      <set comment="kpoint 19">
       <r>  -20.0763    1.0000 </r>
       <r>  -12.2145    1.0000 </r>
       <r>   -9.8525    1.0000 </r>
       <r>   -7.7957    1.0000 </r>
       <r>    1.8571    0.0000 </r>
       <r>    3.5381    0.0000 </r>
       <r>    4.3367    0.0000 </r>
       <r>    4.6204    0.0000 </r>
       <r>    4.9124    0.0000 </r>
       <r>    5.1280    0.0000 </r>
       <r>    5.7490    0.0000 </r>
       <r>    5.8090    0.0000 </r>
       <r>    6.0830    0.0000 </r>
       <r>    6.9733    0.0000 </r>
       <r>    7.3584    0.0000 </r>
       <r>    8.5209    0.0000 </r>
       <r>    9.0021    0.0000 </r>
       <r>    9.7122    0.0000 </r>
       <r>   10.3547    0.0000 </r>
       <r>   11.0161    0.0000 </r>
       <r>   12.2534    0.0000 </r>
       <r>   13.3613    0.0000 </r>
       <r>   13.6638    0.0000 </r>
       <r>   14.3223    0.0000 </r>
      </set>
      <set comment="kpoint 20">
       <r>  -21.0994    1.0000 </r>
       <r>  -10.2914    1.0000 </r>
       <r>   -8.9601    1.0000 </r>
       <r>   -8.9324    1.0000 </r>
       <r>    2.1204    0.0000 </r>
       <r>    2.9013    0.0000 </r>
       <r>    3.1554    0.0000 </r>
       <r>    3.4565    0.0000 </r>
       <r>    3.6699    0.0000 </r>
       <r>    3.8823    0.0000 </r>
       <r>    4.3041    0.0000 </r>
       <r>    4.6084    0.0000 </r>
       <r>    5.5431    0.0000 </r>
       <r>    5.8456    0.0000 </r>
       <r>    6.0443    0.0000 </r>
       <r>    7.1212    0.0000 </r>
       <r>    7.5681    0.0000 </r>
       <r>    7.8639    0.0000 </r>
       <r>    9.0313    0.0000 </r>
       <r>    9.5811    0.0000 </r>
       <r>   11.2507    0.0000 </r>
       <r>   11.9396    0.0000 </r>
       <r>   12.5809    0.0000 </r>
       <r>   13.8177    0.0000 </r>
      </set>
      <set comment="kpoint 21">
       <r>  -21.8175    1.0000 </r>
       <r>   -9.7982    1.0000 </r>
       <r>   -8.7546    1.0000 </r>
       <r>   -7.7823    1.0000 </r>
       <r>    1.1344    0.0000 </r>
       <r>    1.9068    0.0000 </r>
       <r>    2.1410    0.0000 </r>
       <r>    2.4492    0.0000 </r>
       <r>    2.6589    0.0000 </r>
       <r>    3.2992    0.0000 </r>
       <r>    3.6021    0.0000 </r>
       <r>    4.5455    0.0000 </r>
       <r>    4.8901    0.0000 </r>
       <r>    5.4124    0.0000 </r>
       <r>    5.5971    0.0000 </r>
       <r>    6.1358    0.0000 </r>
       <r>    6.5704    0.0000 </r>
       <r>    7.0489    0.0000 </r>
       <r>    8.0648    0.0000 </r>
       <r>    8.5834    0.0000 </r>
       <r>   10.3279    0.0000 </r>
       <r>   10.5748    0.0000 </r>
       <r>   10.9477    0.0000 </r>
       <r>   12.9309    0.0000 </r>
      </set>
      <set comment="kpoint 22">
       <r>  -22.2195    1.0000 </r>
       <r>  -10.2724    1.0000 </r>
       <r>   -7.6746    1.0000 </r>
       <r>   -6.9919    1.0000 </r>
       <r>    0.5859    0.0000 </r>
       <r>    1.3517    0.0000 </r>
       <r>    1.5775    0.0000 </r>
       <r>    1.8886    0.0000 </r>
       <r>    2.0972    0.0000 </r>
       <r>    2.7405    0.0000 </r>
       <r>    3.0429    0.0000 </r>
       <r>    3.9897    0.0000 </r>
       <r>    4.3383    0.0000 </r>
       <r>    4.9805    0.0000 </r>
       <r>    5.5830    0.0000 </r>
       <r>    6.0117    0.0000 </r>
       <r>    6.3864    0.0000 </r>
       <r>    6.7347    0.0000 </r>
       <r>    7.5200    0.0000 </r>
       <r>    8.0267    0.0000 </r>
       <r>    9.4747    0.0000 </r>
       <r>    9.7938    0.0000 </r>
       <r>   10.3938    0.0000 </r>
       <r>   12.4048    0.0000 </r>
      </set>
      <set comment="kpoint 23">
       <r>  -19.6116    1.0000 </r>
       <r>  -12.4334    1.0000 </r>
       <r>  -10.8847    1.0000 </r>
       <r>   -7.2698    1.0000 </r>
       <r>    1.2072    0.0000 </r>
       <r>    4.1908    0.0000 </r>
       <r>    4.9693    0.0000 </r>
       <r>    5.2967    0.0000 </r>
       <r>    5.5764    0.0000 </r>
       <r>    5.8029    0.0000 </r>
       <r>    6.4018    0.0000 </r>
       <r>    6.7288    0.0000 </r>
       <r>    7.5814    0.0000 </r>
       <r>    7.6043    0.0000 </r>
       <r>    8.0459    0.0000 </r>
       <r>    8.5211    0.0000 </r>
       <r>    9.0952    0.0000 </r>
       <r>    9.6745    0.0000 </r>
       <r>   10.7176    0.0000 </r>
       <r>   11.6710    0.0000 </r>
       <r>   12.0901    0.0000 </r>
       <r>   13.8312    0.0000 </r>
       <r>   14.0075    0.0000 </r>
       <r>   15.3245    0.0000 </r>
      </set>
      <set comment="kpoint 24">
       <r>  -18.3281    1.0000 </r>
       <r>  -14.0135    1.0000 </r>
       <r>  -11.7970    1.0000 </r>
       <r>   -5.8965    1.0000 </r>
       <r>   -0.5543    0.0000 </r>
       <r>    6.0154    0.0000 </r>
       <r>    6.6928    0.0000 </r>
       <r>    7.2117    0.0000 </r>
       <r>    7.4463    0.0000 </r>
       <r>    7.6582    0.0000 </r>
       <r>    7.7447    0.0000 </r>
       <r>    8.1924    0.0000 </r>
       <r>    8.6307    0.0000 </r>
       <r>    9.1651    0.0000 </r>
       <r>    9.8446    0.0000 </r>
       <r>   10.0249    0.0000 </r>
       <r>   10.1653    0.0000 </r>
       <r>   11.4807    0.0000 </r>
       <r>   11.5336    0.0000 </r>
       <r>   13.2054    0.0000 </r>
       <r>   13.3250    0.0000 </r>
       <r>   13.5384    0.0000 </r>
       <r>   13.9180    0.0000 </r>
       <r>   14.4712    0.0000 </r>
      </set>
      <set comment="kpoint 25">
       <r>  -16.9446    1.0000 </r>
       <r>  -15.6123    1.0000 </r>
       <r>  -12.1319    1.0000 </r>
       <r>   -4.7162    1.0000 </r>
       <r>   -1.9167    0.0000 </r>
       <r>    7.5346    0.0000 </r>
       <r>    7.9060    0.0000 </r>
       <r>    8.1969    0.0000 </r>
       <r>    9.3201    0.0000 </r>
       <r>    9.5595    0.0000 </r>
       <r>    9.5776    0.0000 </r>
       <r>    9.9584    0.0000 </r>
       <r>   10.0532    0.0000 </r>
       <r>   10.6611    0.0000 </r>
       <r>   10.9184    0.0000 </r>
       <r>   10.9362    0.0000 </r>
       <r>   11.0243    0.0000 </r>
       <r>   11.3596    0.0000 </r>
       <r>   11.3743    0.0000 </r>
       <r>   11.9860    0.0000 </r>
       <r>   12.0639    0.0000 </r>
       <r>   12.2099    0.0000 </r>
       <r>   12.3519    0.0000 </r>
       <r>   13.1208    0.0000 </r>
      </set>
      <set comment="kpoint 26">
       <r>  -17.6133    1.0000 </r>
       <r>  -14.8663    1.0000 </r>
       <r>  -12.0238    1.0000 </r>
       <r>   -5.2149    1.0000 </r>
       <r>   -1.3560    0.0000 </r>
       <r>    7.0558    0.0000 </r>
       <r>    7.4877    0.0000 </r>
       <r>    7.6152    0.0000 </r>
       <r>    8.3387    0.0000 </r>
       <r>    8.5061    0.0000 </r>
       <r>    8.8279    0.0000 </r>
       <r>    9.0646    0.0000 </r>
       <r>    9.7242    0.0000 </r>
       <r>    9.8039    0.0000 </r>
       <r>   10.1147    0.0000 </r>
       <r>   10.9002    0.0000 </r>
       <r>   10.9937    0.0000 </r>
       <r>   12.1584    0.0000 </r>
       <r>   12.3289    0.0000 </r>
       <r>   12.4899    0.0000 </r>
       <r>   12.5370    0.0000 </r>
       <r>   12.6553    0.0000 </r>
       <r>   12.8652    0.0000 </r>
       <r>   13.1265    0.0000 </r>
      </set>
      <set comment="kpoint 27">
       <r>  -19.0004    1.0000 </r>
       <r>  -13.1793    1.0000 </r>
       <r>  -11.4272    1.0000 </r>
       <r>   -6.6008    1.0000 </r>
       <r>    0.3218    0.0000 </r>
       <r>    5.0543    0.0000 </r>
       <r>    5.8077    0.0000 </r>
       <r>    6.1980    0.0000 </r>
       <r>    6.4615    0.0000 </r>
       <r>    6.6995    0.0000 </r>
       <r>    7.2654    0.0000 </r>
       <r>    7.5993    0.0000 </r>
       <r>    7.8100    0.0000 </r>
       <r>    8.4148    0.0000 </r>
       <r>    8.9018    0.0000 </r>
       <r>    9.1878    0.0000 </r>
       <r>    9.7281    0.0000 </r>
       <r>   10.5541    0.0000 </r>
       <r>   10.9496    0.0000 </r>
       <r>   12.4608    0.0000 </r>
       <r>   12.5395    0.0000 </r>
       <r>   14.5170    0.0000 </r>
       <r>   14.6292    0.0000 </r>
       <r>   14.9120    0.0000 </r>
      </set>
      <set comment="kpoint 28">
       <r>  -20.1545    1.0000 </r>
       <r>  -11.7957    1.0000 </r>
       <r>  -10.1887    1.0000 </r>
       <r>   -7.8788    1.0000 </r>
       <r>    2.0701    0.0000 </r>
       <r>    3.4304    0.0000 </r>
       <r>    4.2176    0.0000 </r>
       <r>    4.5078    0.0000 </r>
       <r>    4.7981    0.0000 </r>
       <r>    5.0173    0.0000 </r>
       <r>    5.6340    0.0000 </r>
       <r>    5.9479    0.0000 </r>
       <r>    6.7891    0.0000 </r>
       <r>    6.8574    0.0000 </r>
       <r>    7.2618    0.0000 </r>
       <r>    8.4028    0.0000 </r>
       <r>    8.5238    0.0000 </r>
       <r>    8.9054    0.0000 </r>
       <r>   10.2292    0.0000 </r>
       <r>   10.9044    0.0000 </r>
       <r>   12.1004    0.0000 </r>
       <r>   13.2520    0.0000 </r>
       <r>   13.5400    0.0000 </r>
       <r>   14.7409    0.0000 </r>
      </set>
      <set comment="kpoint 29">
       <r>  -21.0199    1.0000 </r>
       <r>  -10.6684    1.0000 </r>
       <r>   -8.8695    1.0000 </r>
       <r>   -8.7335    1.0000 </r>
       <r>    2.2291    0.0000 </r>
       <r>    3.0016    0.0000 </r>
       <r>    3.2680    0.0000 </r>
       <r>    3.5483    0.0000 </r>
       <r>    3.6902    0.0000 </r>
       <r>    3.7818    0.0000 </r>
       <r>    4.4205    0.0000 </r>
       <r>    4.7154    0.0000 </r>
       <r>    5.2681    0.0000 </r>
       <r>    5.6575    0.0000 </r>
       <r>    6.0284    0.0000 </r>
       <r>    7.2348    0.0000 </r>
       <r>    7.6775    0.0000 </r>
       <r>    8.9089    0.0000 </r>
       <r>    9.1443    0.0000 </r>
       <r>    9.6928    0.0000 </r>
       <r>   11.3639    0.0000 </r>
       <r>   12.0475    0.0000 </r>
       <r>   12.4319    0.0000 </r>
       <r>   13.7892    0.0000 </r>
      </set>
      <set comment="kpoint 30">
       <r>  -21.5772    1.0000 </r>
       <r>   -9.5781    1.0000 </r>
       <r>   -9.5171    1.0000 </r>
       <r>   -7.8468    1.0000 </r>
       <r>    1.4625    0.0000 </r>
       <r>    2.2380    0.0000 </r>
       <r>    2.4791    0.0000 </r>
       <r>    2.7848    0.0000 </r>
       <r>    2.9956    0.0000 </r>
       <r>    3.6322    0.0000 </r>
       <r>    3.9351    0.0000 </r>
       <r>    4.7562    0.0000 </r>
       <r>    4.8361    0.0000 </r>
       <r>    4.9835    0.0000 </r>
       <r>    5.2526    0.0000 </r>
       <r>    6.4707    0.0000 </r>
       <r>    6.9010    0.0000 </r>
       <r>    8.3949    0.0000 </r>
       <r>    8.5820    0.0000 </r>
       <r>    8.9141    0.0000 </r>
       <r>   10.6512    0.0000 </r>
       <r>   10.7517    0.0000 </r>
       <r>   11.2824    0.0000 </r>
       <r>   13.2326    0.0000 </r>
      </set>
      <set comment="kpoint 31">
       <r>  -16.9893    1.0000 </r>
       <r>  -14.8517    1.0000 </r>
       <r>  -13.1094    1.0000 </r>
       <r>   -4.5128    1.0000 </r>
       <r>   -1.9728    0.0000 </r>
       <r>    7.4629    0.0000 </r>
       <r>    7.9635    0.0000 </r>
       <r>    9.3492    0.0000 </r>
       <r>    9.3672    0.0000 </r>
       <r>    9.4708    0.0000 </r>
       <r>    9.7052    0.0000 </r>
       <r>    9.7947    0.0000 </r>
       <r>    9.8850    0.0000 </r>
       <r>   10.6173    0.0000 </r>
       <r>   10.7315    0.0000 </r>
       <r>   11.8165    0.0000 </r>
       <r>   11.9371    0.0000 </r>
       <r>   12.8308    0.0000 </r>
       <r>   12.9611    0.0000 </r>
       <r>   13.0026    0.0000 </r>
       <r>   13.2238    0.0000 </r>
       <r>   13.4414    0.0000 </r>
       <r>   13.5492    0.0000 </r>
       <r>   13.5658    0.0000 </r>
      </set>
      <set comment="kpoint 32">
       <r>  -16.3345    1.0000 </r>
       <r>  -15.3909    1.0000 </r>
       <r>  -13.3955    1.0000 </r>
       <r>   -3.8985    1.0000 </r>
       <r>   -2.5889    0.0000 </r>
       <r>    7.4165    0.0000 </r>
       <r>    8.9311    0.0000 </r>
       <r>    9.4239    0.0000 </r>
       <r>    9.9156    0.0000 </r>
       <r>   10.4630    0.0000 </r>
       <r>   10.5886    0.0000 </r>
       <r>   10.9284    0.0000 </r>
       <r>   11.0343    0.0000 </r>
       <r>   11.6614    0.0000 </r>
       <r>   11.7946    0.0000 </r>
       <r>   11.9111    0.0000 </r>
       <r>   11.9257    0.0000 </r>
       <r>   12.1610    0.0000 </r>
       <r>   12.2818    0.0000 </r>
       <r>   12.6506    0.0000 </r>
       <r>   12.7421    0.0000 </r>
       <r>   12.9245    0.0000 </r>
       <r>   13.0265    0.0000 </r>
       <r>   13.1263    0.0000 </r>
      </set>
      <set comment="kpoint 33">
       <r>  -17.6767    1.0000 </r>
       <r>  -14.3955    1.0000 </r>
       <r>  -12.5452    1.0000 </r>
       <r>   -5.2125    1.0000 </r>
       <r>   -1.2642    0.0000 </r>
       <r>    6.9586    0.0000 </r>
       <r>    7.2974    0.0000 </r>
       <r>    8.2252    0.0000 </r>
       <r>    8.3826    0.0000 </r>
       <r>    8.6867    0.0000 </r>
       <r>    8.7914    0.0000 </r>
       <r>    8.9270    0.0000 </r>
       <r>    9.5910    0.0000 </r>
       <r>    9.6877    0.0000 </r>
       <r>    9.7884    0.0000 </r>
       <r>   10.8215    0.0000 </r>
       <r>   10.8910    0.0000 </r>
       <r>   12.3142    0.0000 </r>
       <r>   12.4805    0.0000 </r>
       <r>   13.1007    0.0000 </r>
       <r>   13.4555    0.0000 </r>
       <r>   13.6637    0.0000 </r>
       <r>   14.0055    0.0000 </r>
       <r>   14.1924    0.0000 </r>
      </set>
      <set comment="kpoint 34">
       <r>  -18.9248    1.0000 </r>
       <r>  -13.6351    1.0000 </r>
       <r>  -10.9820    1.0000 </r>
       <r>   -6.5370    1.0000 </r>
       <r>    0.1418    0.0000 </r>
       <r>    5.1603    0.0000 </r>
       <r>    5.9334    0.0000 </r>
       <r>    6.3101    0.0000 </r>
       <r>    6.5773    0.0000 </r>
       <r>    6.6200    0.0000 </r>
       <r>    6.8226    0.0000 </r>
       <r>    7.3852    0.0000 </r>
       <r>    7.7424    0.0000 </r>
       <r>    8.5441    0.0000 </r>
       <r>    9.0165    0.0000 </r>
       <r>    9.8830    0.0000 </r>
       <r>   10.2383    0.0000 </r>
       <r>   10.6762    0.0000 </r>
       <r>   11.0985    0.0000 </r>
       <r>   12.5396    0.0000 </r>
       <r>   12.6472    0.0000 </r>
       <r>   13.6771    0.0000 </r>
       <r>   14.2337    0.0000 </r>
       <r>   14.6686    0.0000 </r>
      </set>
      <set comment="kpoint 35">
       <r>  -19.9203    1.0000 </r>
       <r>  -12.7678    1.0000 </r>
       <r>   -9.4896    1.0000 </r>
       <r>   -7.6308    1.0000 </r>
       <r>    1.4817    0.0000 </r>
       <r>    3.7513    0.0000 </r>
       <r>    4.5678    0.0000 </r>
       <r>    4.8434    0.0000 </r>
       <r>    4.9550    0.0000 </r>
       <r>    5.1395    0.0000 </r>
       <r>    5.3604    0.0000 </r>
       <r>    5.9767    0.0000 </r>
       <r>    6.2928    0.0000 </r>
       <r>    7.2019    0.0000 </r>
       <r>    7.5792    0.0000 </r>
       <r>    8.7518    0.0000 </r>
       <r>    9.2261    0.0000 </r>
       <r>   10.5937    0.0000 </r>
       <r>   10.9350    0.0000 </r>
       <r>   11.2491    0.0000 </r>
       <r>   12.5244    0.0000 </r>
       <r>   13.5975    0.0000 </r>
       <r>   13.8044    0.0000 </r>
       <r>   15.4179    0.0000 </r>
      </set>
      <set comment="kpoint 36">
       <r>  -20.6244    1.0000 </r>
       <r>  -11.7338    1.0000 </r>
       <r>   -8.6553    1.0000 </r>
       <r>   -8.4206    1.0000 </r>
       <r>    2.6948    0.0000 </r>
       <r>    2.7719    0.0000 </r>
       <r>    3.6024    0.0000 </r>
       <r>    3.8312    0.0000 </r>
       <r>    4.1375    0.0000 </r>
       <r>    4.3209    0.0000 </r>
       <r>    4.4362    0.0000 </r>
       <r>    4.9806    0.0000 </r>
       <r>    5.2890    0.0000 </r>
       <r>    6.2168    0.0000 </r>
       <r>    6.5792    0.0000 </r>
       <r>    7.7898    0.0000 </r>
       <r>    8.2317    0.0000 </r>
       <r>    9.6917    0.0000 </r>
       <r>   10.2395    0.0000 </r>
       <r>   11.2605    0.0000 </r>
       <r>   11.8934    0.0000 </r>
       <r>   12.0761    0.0000 </r>
       <r>   12.6053    0.0000 </r>
       <r>   14.2137    0.0000 </r>
      </set>
      <set comment="kpoint 37">
       <r>  -16.5076    1.0000 </r>
       <r>  -15.5996    1.0000 </r>
       <r>  -12.8659    1.0000 </r>
       <r>   -4.2396    1.0000 </r>
       <r>   -2.3033    0.0000 </r>
       <r>    7.6237    0.0000 </r>
       <r>    8.5998    0.0000 </r>
       <r>    8.9573    0.0000 </r>
       <r>    9.2948    0.0000 </r>
       <r>   10.3454    0.0000 </r>
       <r>   10.6870    0.0000 </r>
       <r>   10.7064    0.0000 </r>
       <r>   10.7670    0.0000 </r>
       <r>   10.9776    0.0000 </r>
       <r>   11.1036    0.0000 </r>
       <r>   11.1720    0.0000 </r>
       <r>   11.2331    0.0000 </r>
       <r>   11.8097    0.0000 </r>
       <r>   11.8401    0.0000 </r>
       <r>   12.0245    0.0000 </r>
       <r>   12.0950    0.0000 </r>
       <r>   12.7612    0.0000 </r>
       <r>   13.0427    0.0000 </r>
       <r>   13.1939    0.0000 </r>
      </set>
      <set comment="kpoint 38">
       <r>  -17.4968    1.0000 </r>
       <r>  -15.4412    1.0000 </r>
       <r>  -11.3528    1.0000 </r>
       <r>   -5.2335    1.0000 </r>
       <r>   -1.4914    0.0000 </r>
       <r>    6.4438    0.0000 </r>
       <r>    7.2970    0.0000 </r>
       <r>    7.8234    0.0000 </r>
       <r>    8.5638    0.0000 </r>
       <r>    8.7469    0.0000 </r>
       <r>    9.0506    0.0000 </r>
       <r>    9.3132    0.0000 </r>
       <r>    9.6172    0.0000 </r>
       <r>    9.9623    0.0000 </r>
       <r>    9.9720    0.0000 </r>
       <r>   10.9155    0.0000 </r>
       <r>   11.2023    0.0000 </r>
       <r>   11.2635    0.0000 </r>
       <r>   11.3942    0.0000 </r>
       <r>   11.6929    0.0000 </r>
       <r>   11.7738    0.0000 </r>
       <r>   12.4316    0.0000 </r>
       <r>   12.6363    0.0000 </r>
       <r>   12.9532    0.0000 </r>
      </set>
      <set comment="kpoint 39">
       <r>  -18.5530    1.0000 </r>
       <r>  -14.8008    1.0000 </r>
       <r>   -9.9666    1.0000 </r>
       <r>   -6.2385    1.0000 </r>
       <r>   -0.5504    0.0000 </r>
       <r>    4.6970    0.0000 </r>
       <r>    5.7186    0.0000 </r>
       <r>    6.5249    0.0000 </r>
       <r>    6.8745    0.0000 </r>
       <r>    7.1483    0.0000 </r>
       <r>    7.3754    0.0000 </r>
       <r>    7.9650    0.0000 </r>
       <r>    8.2981    0.0000 </r>
       <r>    9.1452    0.0000 </r>
       <r>    9.5710    0.0000 </r>
       <r>   10.5187    0.0000 </r>
       <r>   10.5278    0.0000 </r>
       <r>   11.2083    0.0000 </r>
       <r>   11.3665    0.0000 </r>
       <r>   12.2752    0.0000 </r>
       <r>   12.3541    0.0000 </r>
       <r>   12.6207    0.0000 </r>
       <r>   12.6853    0.0000 </r>
       <r>   13.2043    0.0000 </r>
      </set>
      <set comment="kpoint 40">
       <r>  -19.3799    1.0000 </r>
       <r>  -13.8763    1.0000 </r>
       <r>   -9.2546    1.0000 </r>
       <r>   -7.0687    1.0000 </r>
       <r>    0.4888    0.0000 </r>
       <r>    4.0732    0.0000 </r>
       <r>    4.5498    0.0000 </r>
       <r>    5.3478    0.0000 </r>
       <r>    5.6351    0.0000 </r>
       <r>    5.9260    0.0000 </r>
       <r>    6.1423    0.0000 </r>
       <r>    6.7609    0.0000 </r>
       <r>    7.0730    0.0000 </r>
       <r>    7.9821    0.0000 </r>
       <r>    8.3561    0.0000 </r>
       <r>    9.5237    0.0000 </r>
       <r>    9.9996    0.0000 </r>
       <r>   11.3326    0.0000 </r>
       <r>   11.6574    0.0000 </r>
       <r>   12.0031    0.0000 </r>
       <r>   12.6931    0.0000 </r>
       <r>   13.6591    0.0000 </r>
       <r>   13.7487    0.0000 </r>
       <r>   14.0919    0.0000 </r>
      </set>
      <set comment="kpoint 41">
       <r>  -17.3433    1.0000 </r>
       <r>  -16.2419    1.0000 </r>
       <r>  -10.1290    1.0000 </r>
       <r>   -5.4054    1.0000 </r>
       <r>   -1.6118    0.0000 </r>
       <r>    4.6160    0.0000 </r>
       <r>    7.9582    0.0000 </r>
       <r>    8.1233    0.0000 </r>
       <r>    8.6261    0.0000 </r>
       <r>    9.0106    0.0000 </r>
       <r>    9.3422    0.0000 </r>
       <r>    9.3609    0.0000 </r>
       <r>    9.5682    0.0000 </r>
       <r>    9.6287    0.0000 </r>
       <r>    9.8223    0.0000 </r>
       <r>    9.8520    0.0000 </r>
       <r>   10.2761    0.0000 </r>
       <r>   10.4644    0.0000 </r>
       <r>   10.7135    0.0000 </r>
       <r>   10.7565    0.0000 </r>
       <r>   11.2928    0.0000 </r>
       <r>   11.6976    0.0000 </r>
       <r>   11.9758    0.0000 </r>
       <r>   12.1123    0.0000 </r>
      </set>
      <set comment="kpoint 42">
       <r>  -17.9264    1.0000 </r>
       <r>  -15.8035    1.0000 </r>
       <r>   -9.5692    1.0000 </r>
       <r>   -5.7977    1.0000 </r>
       <r>   -1.2623    0.0000 </r>
       <r>    3.9264    0.0000 </r>
       <r>    6.6782    0.0000 </r>
       <r>    7.5207    0.0000 </r>
       <r>    7.8884    0.0000 </r>
       <r>    8.1582    0.0000 </r>
       <r>    8.3836    0.0000 </r>
       <r>    8.9672    0.0000 </r>
       <r>    9.1790    0.0000 </r>
       <r>    9.3063    0.0000 </r>
       <r>    9.9618    0.0000 </r>
       <r>   10.2456    0.0000 </r>
       <r>   10.5664    0.0000 </r>
       <r>   10.5919    0.0000 </r>
       <r>   10.8306    0.0000 </r>
       <r>   11.0651    0.0000 </r>
       <r>   11.5012    0.0000 </r>
       <r>   11.7644    0.0000 </r>
       <r>   11.9456    0.0000 </r>
       <r>   12.1979    0.0000 </r>
      </set>
     </set>
    </set>
   </array>
  </eigenvalues>
  <separator name="orbital magnetization" >
   <v name="MAGDIPOLOUT">      0.00000000      0.00000000      0.00000000</v>
  </separator>
  <dos>
   <i name="efermi">     -3.68407302 </i>
   <total>
    <array>
     <dimension dim="1">gridpoints</dimension>
     <dimension dim="2">spin</dimension>
     <field>energy</field>
     <field>total</field>
     <field>integrated</field>
     <set>
      <set comment="spin 1">
       <r>   -24.4405     0.0000     0.0000 </r>
       <r>   -24.3013     0.0000     0.0000 </r>
       <r>   -24.1621     0.0000     0.0000 </r>
       <r>   -24.0229     0.0000     0.0000 </r>
       <r>   -23.8837     0.0000     0.0000 </r>
       <r>   -23.7445     0.0000     0.0000 </r>
       <r>   -23.6053     0.0000     0.0000 </r>
       <r>   -23.4661     0.0000     0.0000 </r>
       <r>   -23.3269     0.0000     0.0000 </r>
       <r>   -23.1878     0.0000     0.0000 </r>
       <r>   -23.0486     0.0000     0.0000 </r>
       <r>   -22.9094     0.0000     0.0000 </r>
       <r>   -22.7702     0.0000     0.0000 </r>
       <r>   -22.6310     0.0012     0.0002 </r>
       <r>   -22.4918     0.2223     0.0311 </r>
       <r>   -22.3526     0.2028     0.0593 </r>
       <r>   -22.2134     0.4824     0.1265 </r>
       <r>   -22.0743     0.2198     0.1571 </r>
       <r>   -21.9351     0.2685     0.1945 </r>
       <r>   -21.7959     0.3107     0.2377 </r>
       <r>   -21.6567     0.4854     0.3053 </r>
       <r>   -21.5175     0.2495     0.3400 </r>
       <r>   -21.3783     0.2019     0.3681 </r>
       <r>   -21.2391     0.3479     0.4165 </r>
       <r>   -21.0999     0.2027     0.4447 </r>
       <r>   -20.9608     0.5787     0.5253 </r>
       <r>   -20.8216     0.3650     0.5761 </r>
       <r>   -20.6824     0.0828     0.5876 </r>
       <r>   -20.5432     0.5616     0.6658 </r>
       <r>   -20.4040     0.0079     0.6669 </r>
       <r>   -20.2648     0.3580     0.7167 </r>
       <r>   -20.1256     0.3887     0.7708 </r>
       <r>   -19.9864     0.4592     0.8347 </r>
       <r>   -19.8473     0.3814     0.8878 </r>
       <r>   -19.7081     0.1205     0.9046 </r>
       <r>   -19.5689     0.4635     0.9691 </r>
       <r>   -19.4297     0.3506     1.0179 </r>
       <r>   -19.2905     0.2694     1.0554 </r>
       <r>   -19.1513     0.0011     1.0556 </r>
       <r>   -19.0121     0.2970     1.0969 </r>
       <r>   -18.8729     0.8729     1.2184 </r>
       <r>   -18.7338     0.3774     1.2709 </r>
       <r>   -18.5946     0.0971     1.2844 </r>
       <r>   -18.4554     0.3502     1.3332 </r>
       <r>   -18.3162     0.2837     1.3727 </r>
       <r>   -18.1770     0.5132     1.4441 </r>
       <r>   -18.0378     0.2404     1.4776 </r>
       <r>   -17.8986     0.3175     1.5218 </r>
       <r>   -17.7594     0.0470     1.5283 </r>
       <r>   -17.6202     0.5839     1.6096 </r>
       <r>   -17.4811     0.8766     1.7316 </r>
       <r>   -17.3419     0.5300     1.8054 </r>
       <r>   -17.2027     0.2010     1.8333 </r>
       <r>   -17.0635     0.0037     1.8339 </r>
       <r>   -16.9243     0.4755     1.9000 </r>
       <r>   -16.7851     0.1195     1.9167 </r>
       <r>   -16.6459     0.0000     1.9167 </r>
       <r>   -16.5067     0.1018     1.9308 </r>
       <r>   -16.3676     0.1676     1.9542 </r>
       <r>   -16.2284     0.4628     2.0186 </r>
       <r>   -16.0892     0.4458     2.0806 </r>
       <r>   -15.9500     0.2390     2.1139 </r>
       <r>   -15.8108     0.2630     2.1505 </r>
       <r>   -15.6716     0.1388     2.1698 </r>
       <r>   -15.5324     0.5674     2.2488 </r>
       <r>   -15.3932     0.5868     2.3305 </r>
       <r>   -15.2541     0.6178     2.4165 </r>
       <r>   -15.1149     0.3647     2.4672 </r>
       <r>   -14.9757     0.0362     2.4723 </r>
       <r>   -14.8365     0.5145     2.5439 </r>
       <r>   -14.6973     0.4823     2.6110 </r>
       <r>   -14.5581     0.0007     2.6111 </r>
       <r>   -14.4189     0.1327     2.6296 </r>
       <r>   -14.2797     0.6793     2.7241 </r>
       <r>   -14.1406     0.3798     2.7770 </r>
       <r>   -14.0014     0.2588     2.8130 </r>
       <r>   -13.8622     0.2767     2.8515 </r>
       <r>   -13.7230     0.0713     2.8615 </r>
       <r>   -13.5838     0.3672     2.9126 </r>
       <r>   -13.4446     0.0626     2.9213 </r>
       <r>   -13.3054     0.6899     3.0173 </r>
       <r>   -13.1662     0.7218     3.1178 </r>
       <r>   -13.0271     0.3492     3.1664 </r>
       <r>   -12.8879     0.0555     3.1741 </r>
       <r>   -12.7487     0.4277     3.2337 </r>
       <r>   -12.6095     0.1312     3.2519 </r>
       <r>   -12.4703     0.4081     3.3087 </r>
       <r>   -12.3311     0.1914     3.3354 </r>
       <r>   -12.1919     0.6907     3.4315 </r>
       <r>   -12.0527     0.5695     3.5108 </r>
       <r>   -11.9136     0.3218     3.5556 </r>
       <r>   -11.7744     0.6101     3.6405 </r>
       <r>   -11.6352     0.3872     3.6944 </r>
       <r>   -11.4960     0.0109     3.6959 </r>
       <r>   -11.3568     0.5613     3.7740 </r>
       <r>   -11.2176     0.5262     3.8473 </r>
       <r>   -11.0784     0.4995     3.9168 </r>
       <r>   -10.9392     0.3653     3.9676 </r>
       <r>   -10.8000     0.2315     3.9998 </r>
       <r>   -10.6609     0.6757     4.0939 </r>
       <r>   -10.5217     0.8948     4.2184 </r>
       <r>   -10.3825     0.5430     4.2940 </r>
       <r>   -10.2433     0.8531     4.4128 </r>
       <r>   -10.1041     1.3324     4.5982 </r>
       <r>    -9.9649     0.6992     4.6955 </r>
       <r>    -9.8257     0.5906     4.7777 </r>
       <r>    -9.6865     1.1142     4.9328 </r>
       <r>    -9.5474     0.8807     5.0554 </r>
       <r>    -9.4082     1.6174     5.2805 </r>
       <r>    -9.2690     0.4955     5.3495 </r>
       <r>    -9.1298     0.7390     5.4523 </r>
       <r>    -8.9906     0.5140     5.5239 </r>
       <r>    -8.8514     1.2996     5.7048 </r>
       <r>    -8.7122     0.8817     5.8275 </r>
       <r>    -8.5730     0.9307     5.9570 </r>
       <r>    -8.4339     0.3013     5.9990 </r>
       <r>    -8.2947     0.6006     6.0826 </r>
       <r>    -8.1555     0.5237     6.1555 </r>
       <r>    -8.0163     0.6482     6.2457 </r>
       <r>    -7.8771     0.2830     6.2851 </r>
       <r>    -7.7379     1.2986     6.4658 </r>
       <r>    -7.5987     0.7684     6.5728 </r>
       <r>    -7.4595     0.0857     6.5847 </r>
       <r>    -7.3204     0.8501     6.7030 </r>
       <r>    -7.1812     0.5509     6.7797 </r>
       <r>    -7.0420     0.5494     6.8562 </r>
       <r>    -6.9028     0.3657     6.9071 </r>
       <r>    -6.7636     0.4230     6.9660 </r>
       <r>    -6.6244     0.5379     7.0408 </r>
       <r>    -6.4852     0.9579     7.1742 </r>
       <r>    -6.3460     0.7159     7.2738 </r>
       <r>    -6.2069     0.3538     7.3230 </r>
       <r>    -6.0677     0.1219     7.3400 </r>
       <r>    -5.9285     0.4232     7.3989 </r>
       <r>    -5.7893     0.4967     7.4681 </r>
       <r>    -5.6501     0.4381     7.5290 </r>
       <r>    -5.5109     0.3809     7.5820 </r>
       <r>    -5.3717     0.1791     7.6070 </r>
       <r>    -5.2325     0.8494     7.7252 </r>
       <r>    -5.0933     0.7767     7.8333 </r>
       <r>    -4.9542     0.0003     7.8333 </r>
       <r>    -4.8150     0.0010     7.8335 </r>
       <r>    -4.6758     0.3476     7.8819 </r>
       <r>    -4.5366     0.1004     7.8958 </r>
       <r>    -4.3974     0.1495     7.9167 </r>
       <r>    -4.2582     0.0598     7.9250 </r>
       <r>    -4.1190     0.1398     7.9444 </r>
       <r>    -3.9798     0.0043     7.9450 </r>
       <r>    -3.8407     0.3745     7.9972 </r>
       <r>    -3.7015     0.0203     8.0000 </r>
       <r>    -3.5623     0.0000     8.0000 </r>
       <r>    -3.4231     0.0000     8.0000 </r>
       <r>    -3.2839     0.0000     8.0000 </r>
       <r>    -3.1447     0.0000     8.0000 </r>
       <r>    -3.0055     0.0000     8.0000 </r>
       <r>    -2.8663     0.0000     8.0000 </r>
       <r>    -2.7272     0.0000     8.0000 </r>
       <r>    -2.5880     0.2039     8.0284 </r>
       <r>    -2.4488     0.1952     8.0556 </r>
       <r>    -2.3096     0.0856     8.0675 </r>
       <r>    -2.1704     0.1140     8.0833 </r>
       <r>    -2.0312     0.0101     8.0847 </r>
       <r>    -1.8920     0.4897     8.1529 </r>
       <r>    -1.7528     0.0990     8.1667 </r>
       <r>    -1.6137     0.2287     8.1985 </r>
       <r>    -1.4745     0.9441     8.3299 </r>
       <r>    -1.3353     0.5249     8.4030 </r>
       <r>    -1.1961     0.6802     8.4976 </r>
       <r>    -1.0569     0.1284     8.5155 </r>
       <r>    -0.9177     0.5499     8.5920 </r>
       <r>    -0.7785     0.1369     8.6111 </r>
       <r>    -0.6393     0.0056     8.6119 </r>
       <r>    -0.5002     0.7367     8.7144 </r>
       <r>    -0.3610     0.0560     8.7222 </r>
       <r>    -0.2218     0.0306     8.7265 </r>
       <r>    -0.0826     0.4081     8.7833 </r>
       <r>     0.0566     0.3623     8.8337 </r>
       <r>     0.1958     0.5621     8.9120 </r>
       <r>     0.3350     0.4881     8.9799 </r>
       <r>     0.4742     0.4023     9.0359 </r>
       <r>     0.6133     0.4967     9.1050 </r>
       <r>     0.7525     0.0812     9.1163 </r>
       <r>     0.8917     0.8158     9.2299 </r>
       <r>     1.0309     0.5708     9.3093 </r>
       <r>     1.1701     0.7379     9.4120 </r>
       <r>     1.3093     1.2255     9.5826 </r>
       <r>     1.4485     0.5906     9.6648 </r>
       <r>     1.5877     1.5023     9.8739 </r>
       <r>     1.7269     0.5909     9.9562 </r>
       <r>     1.8660     1.6302    10.1831 </r>
       <r>     2.0052     1.1272    10.3399 </r>
       <r>     2.1444     2.0901    10.6309 </r>
       <r>     2.2836     1.4715    10.8357 </r>
       <r>     2.4228     1.1180    10.9913 </r>
       <r>     2.5620     1.3214    11.1752 </r>
       <r>     2.7012     1.7292    11.4159 </r>
       <r>     2.8404     1.9298    11.6845 </r>
       <r>     2.9795     1.8713    11.9450 </r>
       <r>     3.1187     1.4340    12.1446 </r>
       <r>     3.2579     1.4976    12.3530 </r>
       <r>     3.3971     1.7569    12.5976 </r>
       <r>     3.5363     1.9480    12.8687 </r>
       <r>     3.6755     2.2779    13.1857 </r>
       <r>     3.8147     2.2232    13.4952 </r>
       <r>     3.9539     2.1611    13.7960 </r>
       <r>     4.0930     2.4453    14.1363 </r>
       <r>     4.2322     2.5343    14.4891 </r>
       <r>     4.3714     3.1161    14.9228 </r>
       <r>     4.5106     2.1346    15.2199 </r>
       <r>     4.6498     3.3946    15.6924 </r>
       <r>     4.7890     2.2172    16.0010 </r>
       <r>     4.9282     3.0368    16.4237 </r>
       <r>     5.0674     3.9790    16.9775 </r>
       <r>     5.2065     3.3900    17.4494 </r>
       <r>     5.3457     2.8358    17.8441 </r>
       <r>     5.4849     3.1208    18.2784 </r>
       <r>     5.6241     3.0245    18.6994 </r>
       <r>     5.7633     3.1126    19.1327 </r>
       <r>     5.9025     3.3840    19.6037 </r>
       <r>     6.0417     3.6165    20.1070 </r>
       <r>     6.1809     2.5486    20.4618 </r>
       <r>     6.3200     3.6180    20.9654 </r>
       <r>     6.4592     1.6675    21.1975 </r>
       <r>     6.5984     3.1774    21.6397 </r>
       <r>     6.7376     3.7509    22.1618 </r>
       <r>     6.8768     2.9360    22.5704 </r>
       <r>     7.0160     2.7693    22.9559 </r>
       <r>     7.1552     2.5851    23.3157 </r>
       <r>     7.2944     3.7051    23.8314 </r>
       <r>     7.4336     3.6311    24.3368 </r>
       <r>     7.5727     3.5603    24.8324 </r>
       <r>     7.7119     4.6737    25.4829 </r>
       <r>     7.8511     3.7656    26.0070 </r>
       <r>     7.9903     3.8173    26.5383 </r>
       <r>     8.1295     1.5535    26.7546 </r>
       <r>     8.2687     4.1381    27.3305 </r>
       <r>     8.4079     2.5318    27.6829 </r>
       <r>     8.5471     3.1523    28.1217 </r>
       <r>     8.6862     3.6526    28.6301 </r>
       <r>     8.8254     4.0120    29.1885 </r>
       <r>     8.9646     4.2928    29.7860 </r>
       <r>     9.1038     4.3139    30.3865 </r>
       <r>     9.2430     2.8785    30.7871 </r>
       <r>     9.3822     3.8864    31.3281 </r>
       <r>     9.5214     2.4761    31.6727 </r>
       <r>     9.6606     4.2884    32.2696 </r>
       <r>     9.7997     4.2275    32.8580 </r>
       <r>     9.9389     4.4304    33.4747 </r>
       <r>    10.0781     4.8196    34.1455 </r>
       <r>    10.2173     2.9784    34.5600 </r>
       <r>    10.3565     3.5154    35.0493 </r>
       <r>    10.4957     2.5677    35.4067 </r>
       <r>    10.6349     4.9341    36.0935 </r>
       <r>    10.7741     4.1124    36.6659 </r>
       <r>    10.9132     3.4074    37.1402 </r>
       <r>    11.0524     5.9289    37.9654 </r>
       <r>    11.1916     2.4099    38.3008 </r>
       <r>    11.3308     4.5117    38.9288 </r>
       <r>    11.4700     3.5982    39.4296 </r>
       <r>    11.6092     3.1827    39.8726 </r>
       <r>    11.7484     3.2436    40.3241 </r>
       <r>    11.8876     3.1645    40.7646 </r>
       <r>    12.0267     4.2673    41.3585 </r>
       <r>    12.1659     3.1651    41.7991 </r>
       <r>    12.3051     3.9173    42.3443 </r>
       <r>    12.4443     4.0371    42.9062 </r>
       <r>    12.5835     4.3237    43.5080 </r>
       <r>    12.7227     3.9179    44.0533 </r>
       <r>    12.8619     2.2614    44.3681 </r>
       <r>    13.0011     3.1686    44.8091 </r>
       <r>    13.1403     2.7575    45.1929 </r>
       <r>    13.2794     2.7980    45.5824 </r>
       <r>    13.4186     1.4892    45.7897 </r>
       <r>    13.5578     2.4317    46.1281 </r>
       <r>    13.6970     2.4532    46.4696 </r>
       <r>    13.8362     2.3011    46.7899 </r>
       <r>    13.9754     1.6885    47.0249 </r>
       <r>    14.1146     1.3589    47.2140 </r>
       <r>    14.2538     0.9112    47.3408 </r>
       <r>    14.3929     0.5700    47.4202 </r>
       <r>    14.5321     1.4033    47.6155 </r>
       <r>    14.6713     0.7420    47.7188 </r>
       <r>    14.8105     0.6144    47.8043 </r>
       <r>    14.9497     0.3509    47.8531 </r>
       <r>    15.0889     0.0576    47.8612 </r>
       <r>    15.2281     0.3154    47.9051 </r>
       <r>    15.3673     0.2908    47.9455 </r>
       <r>    15.5064     0.3889    47.9997 </r>
       <r>    15.6456     0.0024    48.0000 </r>
       <r>    15.7848     0.0000    48.0000 </r>
       <r>    15.9240     0.0000    48.0000 </r>
       <r>    16.0632     0.0000    48.0000 </r>
       <r>    16.2024     0.0000    48.0000 </r>
       <r>    16.3416     0.0000    48.0000 </r>
       <r>    16.4808     0.0000    48.0000 </r>
       <r>    16.6199     0.0000    48.0000 </r>
       <r>    16.7591     0.0000    48.0000 </r>
       <r>    16.8983     0.0000    48.0000 </r>
       <r>    17.0375     0.0000    48.0000 </r>
       <r>    17.1767     0.0000    48.0000 </r>
       <r>    17.3159     0.0000    48.0000 </r>
      </set>
     </set>
    </array>
   </total>
  </dos>
 </calculation>
 <structure name="finalpos" >
  <crystal>
   <varray name="basis" >
    <v>       1.24243496      -2.15196589       0.00000000 </v>
    <v>       1.24243496       2.15196589       0.00000000 </v>
    <v>       0.00000000       0.00000000      30.28239374 </v>
   </varray>
   <i name="volume">    161.93071842 </i>
   <varray name="rec_basis" >
    <v>       0.40243555      -0.23234569       0.00000000 </v>
    <v>       0.40243555       0.23234569       0.00000000 </v>
    <v>       0.00000000       0.00000000       0.03302249 </v>
   </varray>
  </crystal>
  <varray name="positions" >
   <v>       0.00000262       0.99999738       0.50000000 </v>
   <v>       0.66666738       0.33333262       0.50000000 </v>
  </varray>
 </structure>
</modeling>
