   8   8   0   0
  0.5666691E+01  0.3561693E-09  0.3561693E-09  0.3573605E-09  0.5000000E-15
  1.000000000000000E-004
  CAR 
 unknown system                          
     24.52343134    -12.16302771  301     11.20166090      1.00000000
    -12.163  0.0000E+00  0.0000E+00
    -12.041  0.0000E+00  0.0000E+00
    -11.918  0.0000E+00  0.0000E+00
    -11.796  0.0000E+00  0.0000E+00
    -11.674  0.0000E+00  0.0000E+00
    -11.552  0.0000E+00  0.0000E+00
    -11.429  0.0000E+00  0.0000E+00
    -11.307  0.0000E+00  0.0000E+00
    -11.185  0.0000E+00  0.0000E+00
    -11.062  0.0000E+00  0.0000E+00
    -10.940  0.0000E+00  0.0000E+00
    -10.818  0.0000E+00  0.0000E+00
    -10.696  0.3611E-11  0.4416E-12
    -10.573  0.6612E-05  0.8086E-06
    -10.451  0.5347E-03  0.6619E-04
    -10.329  0.1726E-02  0.2772E-03
    -10.206  0.2182E-02  0.5441E-03
    -10.084  0.3263E-02  0.9432E-03
     -9.962  0.2330E-02  0.1228E-02
     -9.840  0.4406E-02  0.1767E-02
     -9.717  0.3450E-02  0.2189E-02
     -9.595  0.3983E-02  0.2676E-02
     -9.473  0.4984E-02  0.3285E-02
     -9.350  0.4915E-02  0.3886E-02
     -9.228  0.5385E-02  0.4545E-02
     -9.106  0.3848E-02  0.5015E-02
     -8.984  0.6741E-02  0.5840E-02
     -8.861  0.6474E-02  0.6632E-02
     -8.739  0.5220E-02  0.7270E-02
     -8.617  0.4973E-02  0.7878E-02
     -8.494  0.7335E-02  0.8775E-02
     -8.372  0.8104E-02  0.9766E-02
     -8.250  0.5800E-02  0.1048E-01
     -8.128  0.7513E-02  0.1139E-01
     -8.005  0.6272E-02  0.1216E-01
     -7.883  0.8620E-02  0.1322E-01
     -7.761  0.5613E-02  0.1390E-01
     -7.638  0.9362E-02  0.1505E-01
     -7.516  0.1052E-01  0.1633E-01
     -7.394  0.5399E-02  0.1699E-01
     -7.271  0.8185E-02  0.1799E-01
     -7.149  0.7184E-02  0.1887E-01
     -7.027  0.1244E-01  0.2039E-01
     -6.905  0.8563E-02  0.2144E-01
     -6.782  0.9435E-02  0.2259E-01
     -6.660  0.7403E-02  0.2350E-01
     -6.538  0.1069E-01  0.2481E-01
     -6.415  0.8804E-02  0.2588E-01
     -6.293  0.1074E-01  0.2720E-01
     -6.171  0.9909E-02  0.2841E-01
     -6.049  0.1084E-01  0.2974E-01
     -5.926  0.1107E-01  0.3109E-01
     -5.804  0.1093E-01  0.3242E-01
     -5.682  0.1346E-01  0.3407E-01
     -5.559  0.6473E-02  0.3486E-01
     -5.437  0.9704E-02  0.3605E-01
     -5.315  0.1657E-01  0.3808E-01
     -5.193  0.1325E-01  0.3970E-01
     -5.070  0.1154E-01  0.4111E-01
     -4.948  0.1472E-01  0.4291E-01
     -4.826  0.1060E-01  0.4420E-01
     -4.703  0.1453E-01  0.4598E-01
     -4.581  0.1591E-01  0.4792E-01
     -4.459  0.1559E-01  0.4983E-01
     -4.337  0.1411E-01  0.5156E-01
     -4.214  0.1415E-01  0.5329E-01
     -4.092  0.1214E-01  0.5477E-01
     -3.970  0.2088E-01  0.5732E-01
     -3.847  0.8981E-02  0.5842E-01
     -3.725  0.1254E-01  0.5995E-01
     -3.603  0.9825E-02  0.6116E-01
     -3.481  0.9744E-02  0.6235E-01
     -3.358  0.1583E-01  0.6428E-01
     -3.236  0.1549E-01  0.6618E-01
     -3.114  0.6034E-02  0.6692E-01
     -2.991  0.1105E-01  0.6827E-01
     -2.869  0.1120E-01  0.6964E-01
     -2.747  0.1205E-01  0.7111E-01
     -2.625  0.9300E-02  0.7225E-01
     -2.502  0.5206E-02  0.7288E-01
     -2.380  0.7614E-02  0.7382E-01
     -2.258  0.1014E-01  0.7505E-01
     -2.135  0.1270E-01  0.7661E-01
     -2.013  0.1267E-01  0.7816E-01
     -1.891  0.1465E-01  0.7995E-01
     -1.769  0.1262E-01  0.8149E-01
     -1.646  0.5624E-02  0.8218E-01
     -1.524  0.8291E-02  0.8319E-01
     -1.402  0.1181E-01  0.8464E-01
     -1.279  0.8125E-02  0.8563E-01
     -1.157  0.9126E-02  0.8675E-01
     -1.035  0.1826E-01  0.8898E-01
     -0.913  0.1621E-01  0.9096E-01
     -0.790  0.1774E-01  0.9313E-01
     -0.668  0.2444E-01  0.9612E-01
     -0.546  0.2107E-01  0.9870E-01
     -0.423  0.2256E-01  0.1015E+00
     -0.301  0.1283E-01  0.1030E+00
     -0.179  0.2166E-01  0.1057E+00
     -0.056  0.2126E-01  0.1083E+00
      0.066  0.2711E-01  0.1116E+00
      0.188  0.1522E-01  0.1135E+00
      0.310  0.1528E-01  0.1153E+00
      0.433  0.7900E-02  0.1163E+00
      0.555  0.1074E-01  0.1176E+00
      0.677  0.1540E-01  0.1195E+00
      0.800  0.8757E-02  0.1206E+00
      0.922  0.1324E-01  0.1222E+00
      1.044  0.1329E-01  0.1238E+00
      1.166  0.1613E-01  0.1258E+00
      1.289  0.8608E-02  0.1268E+00
      1.411  0.8243E-02  0.1278E+00
      1.533  0.1372E-01  0.1295E+00
      1.656  0.1211E-01  0.1310E+00
      1.778  0.1010E-01  0.1322E+00
      1.900  0.1425E-01  0.1340E+00
      2.022  0.1647E-01  0.1360E+00
      2.145  0.2221E-01  0.1387E+00
      2.267  0.1817E-01  0.1409E+00
      2.389  0.2403E-01  0.1439E+00
      2.512  0.1962E-01  0.1463E+00
      2.634  0.2558E-01  0.1494E+00
      2.756  0.1775E-01  0.1516E+00
      2.878  0.1721E-01  0.1537E+00
      3.001  0.1295E-01  0.1552E+00
      3.123  0.2143E-01  0.1579E+00
      3.245  0.2853E-01  0.1614E+00
      3.368  0.3071E-01  0.1651E+00
      3.490  0.1041E-01  0.1664E+00
      3.612  0.1871E-01  0.1687E+00
      3.734  0.2214E-01  0.1714E+00
      3.857  0.2436E-01  0.1744E+00
      3.979  0.2748E-01  0.1777E+00
      4.101  0.2384E-01  0.1806E+00
      4.224  0.2310E-01  0.1835E+00
      4.346  0.1708E-01  0.1855E+00
      4.468  0.2985E-01  0.1892E+00
      4.590  0.3488E-01  0.1935E+00
      4.713  0.3246E-01  0.1974E+00
      4.835  0.2827E-01  0.2009E+00
      4.957  0.2919E-01  0.2045E+00
      5.080  0.2629E-01  0.2077E+00
      5.202  0.2798E-01  0.2111E+00
      5.324  0.4315E-01  0.2164E+00
      5.446  0.4005E-01  0.2213E+00
      5.569  0.2037E-01  0.2238E+00
      5.691  0.1741E-01  0.2259E+00
      5.813  0.3283E-01  0.2299E+00
      5.936  0.3249E-01  0.2339E+00
      6.058  0.4079E-01  0.2389E+00
      6.180  0.2155E-01  0.2415E+00
      6.302  0.2395E-01  0.2444E+00
      6.425  0.3229E-01  0.2484E+00
      6.547  0.2583E-01  0.2515E+00
      6.669  0.2602E-01  0.2547E+00
      6.792  0.3262E-01  0.2587E+00
      6.914  0.2557E-01  0.2618E+00
      7.036  0.2101E-01  0.2644E+00
      7.159  0.3043E-01  0.2681E+00
      7.281  0.3501E-01  0.2724E+00
      7.403  0.2132E-01  0.2750E+00
      7.525  0.2028E-01  0.2775E+00
      7.648  0.2794E-01  0.2809E+00
      7.770  0.1919E-01  0.2833E+00
      7.892  0.3897E-01  0.2880E+00
      8.015  0.2713E-01  0.2913E+00
      8.137  0.1510E-01  0.2932E+00
      8.259  0.1607E-01  0.2951E+00
      8.381  0.2622E-01  0.2984E+00
      8.504  0.1993E-01  0.3008E+00
      8.626  0.1939E-01  0.3032E+00
      8.748  0.1051E-01  0.3044E+00
      8.871  0.7508E-02  0.3054E+00
      8.993  0.1383E-01  0.3071E+00
      9.115  0.1671E-01  0.3091E+00
      9.237  0.1221E-01  0.3106E+00
      9.360  0.7587E-02  0.3115E+00
      9.482  0.7877E-02  0.3125E+00
      9.604  0.6125E-02  0.3132E+00
      9.727  0.1221E-01  0.3147E+00
      9.849  0.8009E-02  0.3157E+00
      9.971  0.4507E-02  0.3163E+00
     10.093  0.6061E-02  0.3170E+00
     10.216  0.4338E-02  0.3175E+00
     10.338  0.6474E-02  0.3183E+00
     10.460  0.3289E-02  0.3187E+00
     10.583  0.4963E-02  0.3193E+00
     10.705  0.1535E-02  0.3195E+00
     10.827  0.2754E-02  0.3199E+00
     10.949  0.1113E-02  0.3200E+00
     11.072  0.6550E-04  0.3200E+00
     11.194  0.8183E-09  0.3200E+00
     11.316  0.0000E+00  0.3200E+00
     11.439  0.0000E+00  0.3200E+00
     11.561  0.0000E+00  0.3200E+00
     11.683  0.0000E+00  0.3200E+00
     11.805  0.0000E+00  0.3200E+00
     11.928  0.0000E+00  0.3200E+00
     12.050  0.0000E+00  0.3200E+00
     12.172  0.0000E+00  0.3200E+00
     12.295  0.0000E+00  0.3200E+00
     12.417  0.0000E+00  0.3200E+00
     12.539  0.0000E+00  0.3200E+00
     12.661  0.0000E+00  0.3200E+00
     12.784  0.0000E+00  0.3200E+00
     12.906  0.0000E+00  0.3200E+00
     13.028  0.0000E+00  0.3200E+00
     13.151  0.0000E+00  0.3200E+00
     13.273  0.0000E+00  0.3200E+00
     13.395  0.0000E+00  0.3200E+00
     13.517  0.0000E+00  0.3200E+00
     13.640  0.0000E+00  0.3200E+00
     13.762  0.0000E+00  0.3200E+00
     13.884  0.0000E+00  0.3200E+00
     14.007  0.0000E+00  0.3200E+00
     14.129  0.0000E+00  0.3200E+00
     14.251  0.0000E+00  0.3200E+00
     14.374  0.0000E+00  0.3200E+00
     14.496  0.0000E+00  0.3200E+00
     14.618  0.0000E+00  0.3200E+00
     14.740  0.0000E+00  0.3200E+00
     14.863  0.0000E+00  0.3200E+00
     14.985  0.8035E-10  0.3200E+00
     15.107  0.4857E-04  0.3200E+00
     15.230  0.2520E-02  0.3203E+00
     15.352  0.3167E-02  0.3207E+00
     15.474  0.2454E-02  0.3210E+00
     15.596  0.5712E-02  0.3217E+00
     15.719  0.8969E-02  0.3228E+00
     15.841  0.9715E-02  0.3240E+00
     15.963  0.8331E-02  0.3250E+00
     16.086  0.6266E-02  0.3258E+00
     16.208  0.9353E-02  0.3269E+00
     16.330  0.1848E-01  0.3292E+00
     16.452  0.1660E-01  0.3312E+00
     16.575  0.1709E-01  0.3333E+00
     16.697  0.1613E-01  0.3353E+00
     16.819  0.1340E-01  0.3369E+00
     16.942  0.1872E-01  0.3392E+00
     17.064  0.1380E-01  0.3409E+00
     17.186  0.1940E-01  0.3433E+00
     17.308  0.2955E-01  0.3469E+00
     17.431  0.2298E-01  0.3497E+00
     17.553  0.2096E-01  0.3522E+00
     17.675  0.1462E-01  0.3540E+00
     17.798  0.2148E-01  0.3567E+00
     17.920  0.3185E-01  0.3605E+00
     18.042  0.2342E-01  0.3634E+00
     18.164  0.2227E-01  0.3661E+00
     18.287  0.1810E-01  0.3683E+00
     18.409  0.3023E-01  0.3720E+00
     18.531  0.3278E-01  0.3761E+00
     18.654  0.3411E-01  0.3802E+00
     18.776  0.3821E-01  0.3849E+00
     18.898  0.3330E-01  0.3890E+00
     19.020  0.3269E-01  0.3930E+00
     19.143  0.3158E-01  0.3968E+00
     19.265  0.3705E-01  0.4014E+00
     19.387  0.3800E-01  0.4060E+00
     19.510  0.3934E-01  0.4108E+00
     19.632  0.4531E-01  0.4164E+00
     19.754  0.5849E-01  0.4235E+00
     19.876  0.3315E-01  0.4276E+00
     19.999  0.2876E-01  0.4311E+00
     20.121  0.3574E-01  0.4355E+00
     20.243  0.2438E-01  0.4384E+00
     20.366  0.2540E-01  0.4415E+00
     20.488  0.2016E-01  0.4440E+00
     20.610  0.2745E-01  0.4474E+00
     20.732  0.4169E-01  0.4525E+00
     20.855  0.2867E-01  0.4560E+00
     20.977  0.3258E-01  0.4599E+00
     21.099  0.1968E-01  0.4624E+00
     21.222  0.2568E-01  0.4655E+00
     21.344  0.2439E-01  0.4685E+00
     21.466  0.1163E-01  0.4699E+00
     21.589  0.1113E-01  0.4713E+00
     21.711  0.1993E-01  0.4737E+00
     21.833  0.1477E-01  0.4755E+00
     21.955  0.1301E-01  0.4771E+00
     22.078  0.1083E-01  0.4784E+00
     22.200  0.4819E-02  0.4790E+00
     22.322  0.4247E-02  0.4795E+00
     22.445  0.9179E-03  0.4796E+00
     22.567  0.7285E-04  0.4797E+00
     22.689  0.5191E-05  0.4797E+00
     22.811  0.1192E-02  0.4798E+00
     22.934  0.1649E-02  0.4800E+00
     23.056  0.1440E-04  0.4800E+00
     23.178  0.7263E-11  0.4800E+00
     23.301  0.0000E+00  0.4800E+00
     23.423  0.0000E+00  0.4800E+00
     23.545  0.0000E+00  0.4800E+00
     23.667  0.0000E+00  0.4800E+00
     23.790  0.0000E+00  0.4800E+00
     23.912  0.0000E+00  0.4800E+00
     24.034  0.0000E+00  0.4800E+00
     24.157  0.0000E+00  0.4800E+00
     24.279  0.0000E+00  0.4800E+00
     24.401  0.0000E+00  0.4800E+00
     24.523  0.0000E+00  0.4800E+00
