 vasp.5.4.4.18Apr17-6-g9f103f2a35 (build Jan 14 2019 14:48:31) complex          
  
 executed on             LinuxIFC date 2019.08.26  21:11:35
 running on   24 total cores
 distrk:  each k-point on   24 cores,    1 groups
 distr:  one band on NCORES_PER_BAND=   1 cores,   24 groups


--------------------------------------------------------------------------------------------------------


 INCAR:
 POTCAR:    PAW_PBE C_h 06Feb2004                 

 ----------------------------------------------------------------------------- 
|                                                                             |
|           W    W    AA    RRRRR   N    N  II  N    N   GGGG   !!!           |
|           W    W   A  A   R    R  NN   N  II  NN   N  G    G  !!!           |
|           W    W  A    A  R    R  N N  N  II  N N  N  G       !!!           |
|           W WW W  AAAAAA  RRRRR   N  N N  II  N  N N  G  GGG   !            |
|           WW  WW  A    A  R   R   N   NN  II  N   NN  G    G                |
|           W    W  A    A  R    R  N    N  II  N    N   GGGG   !!!           |
|                                                                             |
|      For optimal performance we recommend to set                            |
|        NCORE= 4 - approx SQRT( number of cores)                             |
|      NCORE specifies how many cores store one orbital (NPAR=cpu/NCORE).     |
|      This setting can  greatly improve the performance of VASP for DFT.     |
|      The default,   NCORE=1            might be grossly inefficient         |
|      on modern multi-core architectures or massively parallel machines.     |
|      Do your own testing !!!!                                               |
|      Unfortunately you need to use the default for GW and RPA calculations. |
|      (for HF NCORE is supported but not extensively tested yet)             |
|                                                                             |
 ----------------------------------------------------------------------------- 

 POTCAR:    PAW_PBE C_h 06Feb2004                 
   VRHFIN =C: s2p2                                                              
   LEXCH  = PE                                                                  
   EATOM  =   147.1560 eV,   10.8157 Ry                                         
                                                                                
   TITEL  = PAW_PBE C_h 06Feb2004                                               
   LULTRA =        F    use ultrasoft PP ?                                      
   IUNSCR =        1    unscreen: 0-lin 1-nonlin 2-no                           
   RPACOR =    0.800    partial core radius                                     
   POMASS =   12.011; ZVAL   =    4.000    mass and valenz                      
   RCORE  =    1.100    outmost cutoff radius                                   
   RWIGS  =    1.630; RWIGS  =    0.863    wigner-seitz radius (au A)           
   ENMAX  =  700.000; ENMIN  =  500.000 eV                                      
   ICORE  =        2    local potential                                         
   LCOR   =        T    correct aug charges                                     
   LPAW   =        T    paw PP                                                  
   EAUG   =  946.768                                                            
   DEXC   =    0.000                                                            
   RMAX   =    1.128    core radius for proj-oper                               
   RAUG   =    1.300    factor for augmentation sphere                          
   RDEP   =    1.162    radius for radial grids                                 
   RDEPT  =    1.088    core radius for aug-charge                              
                                                                                
   Atomic configuration                                                         
    4 entries                                                                   
     n  l   j            E        occ.                                          
     1  0  0.50      -273.3789   2.0000                                         
     2  0  0.50       -13.7508   2.0000                                         
     2  1  0.50        -5.2854   2.0000                                         
     3  2  1.50        -5.4423   0.0000                                         
   Description                                                                  
     l       E           TYP  RCUT    TYP  RCUT                                 
     0    -13.7508458     23  1.100                                             
     0     -8.2022199     23  1.100                                             
     1     -5.2854383     23  1.100                                             
     1      1.1560700     23  1.100                                             
     2     -5.4423304      7  1.100                                             
  local pseudopotential read in
  partial core-charges read in
  partial kinetic energy density read in
  atomic valenz-charges read in
  non local Contribution for L=           0  read in
    real space projection operators read in
  non local Contribution for L=           0  read in
    real space projection operators read in
  non local Contribution for L=           1  read in
    real space projection operators read in
  non local Contribution for L=           1  read in
    real space projection operators read in
    PAW grid and wavefunctions read in
 
   number of l-projection  operators is LMAX  =           4
   number of lm-projection operators is LMMAX =           8
 
  PAW_PBE C_h 06Feb2004                 :
 energy of atom  1       EATOM= -147.1560
 kinetic energy error for atom=    0.0044 (will be added to EATOM!!)
 
 
 POSCAR: C8                                      
  positions in direct lattice
  velocities in cartesian coordinates
 exchange correlation table for  LEXCH =        8
   RHO(1)=    0.500       N(1)  =     2000
   RHO(2)=  100.500       N(2)  =     4000

 VTST: version 3.1, (03/28/14)

 CHAIN: initializing optimizer
 
 OPT: Using VASP Conjugate-Gradient optimizer
 CHAIN: Read ICHAIN            0
 
 POSCAR: C8                                      
  positions in direct lattice
  velocities in cartesian coordinates
 


--------------------------------------------------------------------------------------------------------


 ion  position               nearest neighbor table
   1  0.250  0.250  0.250-   2 1.54   4 1.54   6 1.54   8 1.54
   2  0.000  0.000  0.000-   1 1.54   3 1.54   5 1.54   7 1.54
   3  0.250  0.750  0.750-   2 1.54   4 1.54   6 1.54   8 1.54
   4  0.000  0.500  0.500-   1 1.54   3 1.54   5 1.54   7 1.54
   5  0.750  0.250  0.750-   2 1.54   4 1.54   6 1.54   8 1.54
   6  0.500  0.000  0.500-   1 1.54   3 1.54   5 1.54   7 1.54
   7  0.750  0.750  0.250-   2 1.54   4 1.54   6 1.54   8 1.54
   8  0.500  0.500  0.000-   1 1.54   3 1.54   5 1.54   7 1.54
 
  LATTYP: Found a simple tetragonal cell.
 ALAT       =     3.5616930541
 C/A-ratio  =     1.0033444816
  
  Lattice vectors:
  
 A1 = (   3.5616930541,   0.0000000000,   0.0000000000)
 A2 = (   0.0000000000,   3.5616930541,   0.0000000000)
 A3 = (   0.0000000000,   0.0000000000,   3.5736050710)


Analysis of symmetry for initial positions (statically):
=====================================================================
 Subroutine PRICEL returns following result:
 
  LATTYP: Found a body centered tetragonal cell.
 ALAT       =     2.5184973110
 C/A-ratio  =     1.4189433736
  
  Lattice vectors:
  
 A1 = (   0.0000000000,  -1.7808465270,   1.7868025355)
 A2 = (   0.0000000000,   1.7808465270,   1.7868025355)
 A3 = (  -1.7808465270,   0.0000000000,  -1.7868025355)
 
   4 primitive cells build up your supercell.
 

 Routine SETGRP: Setting up the symmetry group for a 
 simple tetragonal supercell.


 Subroutine GETGRP returns: Found 16 space group operations
 (whereof  8 operations were pure point group operations)
 out of a pool of 16 trial point group operations.


The static configuration has the point symmetry D_2d.
 The point group associated with its full space group is D_4h.


Analysis of symmetry for dynamics (positions and initial velocities):
=====================================================================
 Subroutine PRICEL returns following result:
 
  LATTYP: Found a body centered tetragonal cell.
 ALAT       =     2.5184973110
 C/A-ratio  =     1.4189433736
  
  Lattice vectors:
  
 A1 = (   0.0000000000,  -1.7808465270,   1.7868025355)
 A2 = (   0.0000000000,   1.7808465270,   1.7868025355)
 A3 = (  -1.7808465270,   0.0000000000,  -1.7868025355)
 
   4 primitive cells build up your supercell.
 

 Routine SETGRP: Setting up the symmetry group for a 
 simple tetragonal supercell.


 Subroutine GETGRP returns: Found 16 space group operations
 (whereof  8 operations were pure point group operations)
 out of a pool of 16 trial point group operations.


The dynamic configuration has the point symmetry D_2d.
 The point group associated with its full space group is D_4h.


 Subroutine INISYM returns: Found 16 space group operations
 (whereof  8 operations are pure point group operations),
 and found     4 'primitive' translations

 
 
 KPOINTS: K-Mesh Generated with KP-Resolved Value 

Automatic generation of k-mesh.
Space group operators:
 irot       det(A)        alpha          n_x          n_y          n_z        tau_x        tau_y        tau_z
    1     1.000000     0.000000     1.000000     0.000000     0.000000     0.000000     0.000000     0.000000
    2    -1.000000    90.000000     0.000000     0.000000    -1.000000     0.000000     0.000000     0.000000
    3     1.000000   180.000000     0.000000     0.000000     1.000000     0.000000     0.000000     0.000000
    4    -1.000000    90.000000     0.000000     0.000000     1.000000     0.000000     0.000000     0.000000
    5     1.000000   180.000000     0.000000     1.000000     0.000000     0.000000     0.000000     0.000000
    6    -1.000000   180.000000     0.707107     0.707107     0.000000     0.000000     0.000000     0.000000
    7     1.000000   180.000000     1.000000     0.000000     0.000000     0.000000     0.000000     0.000000
    8    -1.000000   180.000000     0.707107    -0.707107     0.000000     0.000000     0.000000     0.000000
    9    -1.000000     0.000000     1.000000     0.000000     0.000000    -0.250000    -0.250000     0.250000
   10     1.000000    90.000000     0.000000     0.000000    -1.000000    -0.250000    -0.250000     0.250000
   11    -1.000000   180.000000     0.000000     0.000000     1.000000    -0.250000    -0.250000     0.250000
   12     1.000000    90.000000     0.000000     0.000000     1.000000    -0.250000    -0.250000     0.250000
   13    -1.000000   180.000000     0.000000     1.000000     0.000000    -0.250000    -0.250000     0.250000
   14     1.000000   180.000000     0.707107     0.707107     0.000000    -0.250000    -0.250000     0.250000
   15    -1.000000   180.000000     1.000000     0.000000     0.000000    -0.250000    -0.250000     0.250000
   16     1.000000   180.000000     0.707107    -0.707107     0.000000    -0.250000    -0.250000     0.250000
 
 Subroutine IBZKPT returns following result:
 ===========================================
 
 Found    196 irreducible k-points:
 
 Following reciprocal coordinates:
            Coordinates               Weight
  0.035714  0.035714  0.035714      8.000000
  0.107143  0.035714  0.035714     16.000000
  0.178571  0.035714  0.035714     16.000000
  0.250000  0.035714  0.035714     16.000000
  0.321429  0.035714  0.035714     16.000000
  0.392857  0.035714  0.035714     16.000000
  0.464286  0.035714  0.035714     16.000000
  0.107143  0.107143  0.035714      8.000000
  0.178571  0.107143  0.035714     16.000000
  0.250000  0.107143  0.035714     16.000000
  0.321429  0.107143  0.035714     16.000000
  0.392857  0.107143  0.035714     16.000000
  0.464286  0.107143  0.035714     16.000000
  0.178571  0.178571  0.035714      8.000000
  0.250000  0.178571  0.035714     16.000000
  0.321429  0.178571  0.035714     16.000000
  0.392857  0.178571  0.035714     16.000000
  0.464286  0.178571  0.035714     16.000000
  0.250000  0.250000  0.035714      8.000000
  0.321429  0.250000  0.035714     16.000000
  0.392857  0.250000  0.035714     16.000000
  0.464286  0.250000  0.035714     16.000000
  0.321429  0.321429  0.035714      8.000000
  0.392857  0.321429  0.035714     16.000000
  0.464286  0.321429  0.035714     16.000000
  0.392857  0.392857  0.035714      8.000000
  0.464286  0.392857  0.035714     16.000000
  0.464286  0.464286  0.035714      8.000000
  0.035714  0.035714  0.107143      8.000000
  0.107143  0.035714  0.107143     16.000000
  0.178571  0.035714  0.107143     16.000000
  0.250000  0.035714  0.107143     16.000000
  0.321429  0.035714  0.107143     16.000000
  0.392857  0.035714  0.107143     16.000000
  0.464286  0.035714  0.107143     16.000000
  0.107143  0.107143  0.107143      8.000000
  0.178571  0.107143  0.107143     16.000000
  0.250000  0.107143  0.107143     16.000000
  0.321429  0.107143  0.107143     16.000000
  0.392857  0.107143  0.107143     16.000000
  0.464286  0.107143  0.107143     16.000000
  0.178571  0.178571  0.107143      8.000000
  0.250000  0.178571  0.107143     16.000000
  0.321429  0.178571  0.107143     16.000000
  0.392857  0.178571  0.107143     16.000000
  0.464286  0.178571  0.107143     16.000000
  0.250000  0.250000  0.107143      8.000000
  0.321429  0.250000  0.107143     16.000000
  0.392857  0.250000  0.107143     16.000000
  0.464286  0.250000  0.107143     16.000000
  0.321429  0.321429  0.107143      8.000000
  0.392857  0.321429  0.107143     16.000000
  0.464286  0.321429  0.107143     16.000000
  0.392857  0.392857  0.107143      8.000000
  0.464286  0.392857  0.107143     16.000000
  0.464286  0.464286  0.107143      8.000000
  0.035714  0.035714  0.178571      8.000000
  0.107143  0.035714  0.178571     16.000000
  0.178571  0.035714  0.178571     16.000000
  0.250000  0.035714  0.178571     16.000000
  0.321429  0.035714  0.178571     16.000000
  0.392857  0.035714  0.178571     16.000000
  0.464286  0.035714  0.178571     16.000000
  0.107143  0.107143  0.178571      8.000000
  0.178571  0.107143  0.178571     16.000000
  0.250000  0.107143  0.178571     16.000000
  0.321429  0.107143  0.178571     16.000000
  0.392857  0.107143  0.178571     16.000000
  0.464286  0.107143  0.178571     16.000000
  0.178571  0.178571  0.178571      8.000000
  0.250000  0.178571  0.178571     16.000000
  0.321429  0.178571  0.178571     16.000000
  0.392857  0.178571  0.178571     16.000000
  0.464286  0.178571  0.178571     16.000000
  0.250000  0.250000  0.178571      8.000000
  0.321429  0.250000  0.178571     16.000000
  0.392857  0.250000  0.178571     16.000000
  0.464286  0.250000  0.178571     16.000000
  0.321429  0.321429  0.178571      8.000000
  0.392857  0.321429  0.178571     16.000000
  0.464286  0.321429  0.178571     16.000000
  0.392857  0.392857  0.178571      8.000000
  0.464286  0.392857  0.178571     16.000000
  0.464286  0.464286  0.178571      8.000000
  0.035714  0.035714  0.250000      8.000000
  0.107143  0.035714  0.250000     16.000000
  0.178571  0.035714  0.250000     16.000000
  0.250000  0.035714  0.250000     16.000000
  0.321429  0.035714  0.250000     16.000000
  0.392857  0.035714  0.250000     16.000000
  0.464286  0.035714  0.250000     16.000000
  0.107143  0.107143  0.250000      8.000000
  0.178571  0.107143  0.250000     16.000000
  0.250000  0.107143  0.250000     16.000000
  0.321429  0.107143  0.250000     16.000000
  0.392857  0.107143  0.250000     16.000000
  0.464286  0.107143  0.250000     16.000000
  0.178571  0.178571  0.250000      8.000000
  0.250000  0.178571  0.250000     16.000000
  0.321429  0.178571  0.250000     16.000000
  0.392857  0.178571  0.250000     16.000000
  0.464286  0.178571  0.250000     16.000000
  0.250000  0.250000  0.250000      8.000000
  0.321429  0.250000  0.250000     16.000000
  0.392857  0.250000  0.250000     16.000000
  0.464286  0.250000  0.250000     16.000000
  0.321429  0.321429  0.250000      8.000000
  0.392857  0.321429  0.250000     16.000000
  0.464286  0.321429  0.250000     16.000000
  0.392857  0.392857  0.250000      8.000000
  0.464286  0.392857  0.250000     16.000000
  0.464286  0.464286  0.250000      8.000000
  0.035714  0.035714  0.321429      8.000000
  0.107143  0.035714  0.321429     16.000000
  0.178571  0.035714  0.321429     16.000000
  0.250000  0.035714  0.321429     16.000000
  0.321429  0.035714  0.321429     16.000000
  0.392857  0.035714  0.321429     16.000000
  0.464286  0.035714  0.321429     16.000000
  0.107143  0.107143  0.321429      8.000000
  0.178571  0.107143  0.321429     16.000000
  0.250000  0.107143  0.321429     16.000000
  0.321429  0.107143  0.321429     16.000000
  0.392857  0.107143  0.321429     16.000000
  0.464286  0.107143  0.321429     16.000000
  0.178571  0.178571  0.321429      8.000000
  0.250000  0.178571  0.321429     16.000000
  0.321429  0.178571  0.321429     16.000000
  0.392857  0.178571  0.321429     16.000000
  0.464286  0.178571  0.321429     16.000000
  0.250000  0.250000  0.321429      8.000000
  0.321429  0.250000  0.321429     16.000000
  0.392857  0.250000  0.321429     16.000000
  0.464286  0.250000  0.321429     16.000000
  0.321429  0.321429  0.321429      8.000000
  0.392857  0.321429  0.321429     16.000000
  0.464286  0.321429  0.321429     16.000000
  0.392857  0.392857  0.321429      8.000000
  0.464286  0.392857  0.321429     16.000000
  0.464286  0.464286  0.321429      8.000000
  0.035714  0.035714  0.392857      8.000000
  0.107143  0.035714  0.392857     16.000000
  0.178571  0.035714  0.392857     16.000000
  0.250000  0.035714  0.392857     16.000000
  0.321429  0.035714  0.392857     16.000000
  0.392857  0.035714  0.392857     16.000000
  0.464286  0.035714  0.392857     16.000000
  0.107143  0.107143  0.392857      8.000000
  0.178571  0.107143  0.392857     16.000000
  0.250000  0.107143  0.392857     16.000000
  0.321429  0.107143  0.392857     16.000000
  0.392857  0.107143  0.392857     16.000000
  0.464286  0.107143  0.392857     16.000000
  0.178571  0.178571  0.392857      8.000000
  0.250000  0.178571  0.392857     16.000000
  0.321429  0.178571  0.392857     16.000000
  0.392857  0.178571  0.392857     16.000000
  0.464286  0.178571  0.392857     16.000000
  0.250000  0.250000  0.392857      8.000000
  0.321429  0.250000  0.392857     16.000000
  0.392857  0.250000  0.392857     16.000000
  0.464286  0.250000  0.392857     16.000000
  0.321429  0.321429  0.392857      8.000000
  0.392857  0.321429  0.392857     16.000000
  0.464286  0.321429  0.392857     16.000000
  0.392857  0.392857  0.392857      8.000000
  0.464286  0.392857  0.392857     16.000000
  0.464286  0.464286  0.392857      8.000000
  0.035714  0.035714  0.464286      8.000000
  0.107143  0.035714  0.464286     16.000000
  0.178571  0.035714  0.464286     16.000000
  0.250000  0.035714  0.464286     16.000000
  0.321429  0.035714  0.464286     16.000000
  0.392857  0.035714  0.464286     16.000000
  0.464286  0.035714  0.464286     16.000000
  0.107143  0.107143  0.464286      8.000000
  0.178571  0.107143  0.464286     16.000000
  0.250000  0.107143  0.464286     16.000000
  0.321429  0.107143  0.464286     16.000000
  0.392857  0.107143  0.464286     16.000000
  0.464286  0.107143  0.464286     16.000000
  0.178571  0.178571  0.464286      8.000000
  0.250000  0.178571  0.464286     16.000000
  0.321429  0.178571  0.464286     16.000000
  0.392857  0.178571  0.464286     16.000000
  0.464286  0.178571  0.464286     16.000000
  0.250000  0.250000  0.464286      8.000000
  0.321429  0.250000  0.464286     16.000000
  0.392857  0.250000  0.464286     16.000000
  0.464286  0.250000  0.464286     16.000000
  0.321429  0.321429  0.464286      8.000000
  0.392857  0.321429  0.464286     16.000000
  0.464286  0.321429  0.464286     16.000000
  0.392857  0.392857  0.464286      8.000000
  0.464286  0.392857  0.464286     16.000000
  0.464286  0.464286  0.464286      8.000000
 
 Following cartesian coordinates:
            Coordinates               Weight
  0.010027  0.010027  0.009994      8.000000
  0.030082  0.010027  0.009994     16.000000
  0.050137  0.010027  0.009994     16.000000
  0.070191  0.010027  0.009994     16.000000
  0.090246  0.010027  0.009994     16.000000
  0.110301  0.010027  0.009994     16.000000
  0.130355  0.010027  0.009994     16.000000
  0.030082  0.030082  0.009994      8.000000
  0.050137  0.030082  0.009994     16.000000
  0.070191  0.030082  0.009994     16.000000
  0.090246  0.030082  0.009994     16.000000
  0.110301  0.030082  0.009994     16.000000
  0.130355  0.030082  0.009994     16.000000
  0.050137  0.050137  0.009994      8.000000
  0.070191  0.050137  0.009994     16.000000
  0.090246  0.050137  0.009994     16.000000
  0.110301  0.050137  0.009994     16.000000
  0.130355  0.050137  0.009994     16.000000
  0.070191  0.070191  0.009994      8.000000
  0.090246  0.070191  0.009994     16.000000
  0.110301  0.070191  0.009994     16.000000
  0.130355  0.070191  0.009994     16.000000
  0.090246  0.090246  0.009994      8.000000
  0.110301  0.090246  0.009994     16.000000
  0.130355  0.090246  0.009994     16.000000
  0.110301  0.110301  0.009994      8.000000
  0.130355  0.110301  0.009994     16.000000
  0.130355  0.130355  0.009994      8.000000
  0.010027  0.010027  0.029982      8.000000
  0.030082  0.010027  0.029982     16.000000
  0.050137  0.010027  0.029982     16.000000
  0.070191  0.010027  0.029982     16.000000
  0.090246  0.010027  0.029982     16.000000
  0.110301  0.010027  0.029982     16.000000
  0.130355  0.010027  0.029982     16.000000
  0.030082  0.030082  0.029982      8.000000
  0.050137  0.030082  0.029982     16.000000
  0.070191  0.030082  0.029982     16.000000
  0.090246  0.030082  0.029982     16.000000
  0.110301  0.030082  0.029982     16.000000
  0.130355  0.030082  0.029982     16.000000
  0.050137  0.050137  0.029982      8.000000
  0.070191  0.050137  0.029982     16.000000
  0.090246  0.050137  0.029982     16.000000
  0.110301  0.050137  0.029982     16.000000
  0.130355  0.050137  0.029982     16.000000
  0.070191  0.070191  0.029982      8.000000
  0.090246  0.070191  0.029982     16.000000
  0.110301  0.070191  0.029982     16.000000
  0.130355  0.070191  0.029982     16.000000
  0.090246  0.090246  0.029982      8.000000
  0.110301  0.090246  0.029982     16.000000
  0.130355  0.090246  0.029982     16.000000
  0.110301  0.110301  0.029982      8.000000
  0.130355  0.110301  0.029982     16.000000
  0.130355  0.130355  0.029982      8.000000
  0.010027  0.010027  0.049970      8.000000
  0.030082  0.010027  0.049970     16.000000
  0.050137  0.010027  0.049970     16.000000
  0.070191  0.010027  0.049970     16.000000
  0.090246  0.010027  0.049970     16.000000
  0.110301  0.010027  0.049970     16.000000
  0.130355  0.010027  0.049970     16.000000
  0.030082  0.030082  0.049970      8.000000
  0.050137  0.030082  0.049970     16.000000
  0.070191  0.030082  0.049970     16.000000
  0.090246  0.030082  0.049970     16.000000
  0.110301  0.030082  0.049970     16.000000
  0.130355  0.030082  0.049970     16.000000
  0.050137  0.050137  0.049970      8.000000
  0.070191  0.050137  0.049970     16.000000
  0.090246  0.050137  0.049970     16.000000
  0.110301  0.050137  0.049970     16.000000
  0.130355  0.050137  0.049970     16.000000
  0.070191  0.070191  0.049970      8.000000
  0.090246  0.070191  0.049970     16.000000
  0.110301  0.070191  0.049970     16.000000
  0.130355  0.070191  0.049970     16.000000
  0.090246  0.090246  0.049970      8.000000
  0.110301  0.090246  0.049970     16.000000
  0.130355  0.090246  0.049970     16.000000
  0.110301  0.110301  0.049970      8.000000
  0.130355  0.110301  0.049970     16.000000
  0.130355  0.130355  0.049970      8.000000
  0.010027  0.010027  0.069957      8.000000
  0.030082  0.010027  0.069957     16.000000
  0.050137  0.010027  0.069957     16.000000
  0.070191  0.010027  0.069957     16.000000
  0.090246  0.010027  0.069957     16.000000
  0.110301  0.010027  0.069957     16.000000
  0.130355  0.010027  0.069957     16.000000
  0.030082  0.030082  0.069957      8.000000
  0.050137  0.030082  0.069957     16.000000
  0.070191  0.030082  0.069957     16.000000
  0.090246  0.030082  0.069957     16.000000
  0.110301  0.030082  0.069957     16.000000
  0.130355  0.030082  0.069957     16.000000
  0.050137  0.050137  0.069957      8.000000
  0.070191  0.050137  0.069957     16.000000
  0.090246  0.050137  0.069957     16.000000
  0.110301  0.050137  0.069957     16.000000
  0.130355  0.050137  0.069957     16.000000
  0.070191  0.070191  0.069957      8.000000
  0.090246  0.070191  0.069957     16.000000
  0.110301  0.070191  0.069957     16.000000
  0.130355  0.070191  0.069957     16.000000
  0.090246  0.090246  0.069957      8.000000
  0.110301  0.090246  0.069957     16.000000
  0.130355  0.090246  0.069957     16.000000
  0.110301  0.110301  0.069957      8.000000
  0.130355  0.110301  0.069957     16.000000
  0.130355  0.130355  0.069957      8.000000
  0.010027  0.010027  0.089945      8.000000
  0.030082  0.010027  0.089945     16.000000
  0.050137  0.010027  0.089945     16.000000
  0.070191  0.010027  0.089945     16.000000
  0.090246  0.010027  0.089945     16.000000
  0.110301  0.010027  0.089945     16.000000
  0.130355  0.010027  0.089945     16.000000
  0.030082  0.030082  0.089945      8.000000
  0.050137  0.030082  0.089945     16.000000
  0.070191  0.030082  0.089945     16.000000
  0.090246  0.030082  0.089945     16.000000
  0.110301  0.030082  0.089945     16.000000
  0.130355  0.030082  0.089945     16.000000
  0.050137  0.050137  0.089945      8.000000
  0.070191  0.050137  0.089945     16.000000
  0.090246  0.050137  0.089945     16.000000
  0.110301  0.050137  0.089945     16.000000
  0.130355  0.050137  0.089945     16.000000
  0.070191  0.070191  0.089945      8.000000
  0.090246  0.070191  0.089945     16.000000
  0.110301  0.070191  0.089945     16.000000
  0.130355  0.070191  0.089945     16.000000
  0.090246  0.090246  0.089945      8.000000
  0.110301  0.090246  0.089945     16.000000
  0.130355  0.090246  0.089945     16.000000
  0.110301  0.110301  0.089945      8.000000
  0.130355  0.110301  0.089945     16.000000
  0.130355  0.130355  0.089945      8.000000
  0.010027  0.010027  0.109933      8.000000
  0.030082  0.010027  0.109933     16.000000
  0.050137  0.010027  0.109933     16.000000
  0.070191  0.010027  0.109933     16.000000
  0.090246  0.010027  0.109933     16.000000
  0.110301  0.010027  0.109933     16.000000
  0.130355  0.010027  0.109933     16.000000
  0.030082  0.030082  0.109933      8.000000
  0.050137  0.030082  0.109933     16.000000
  0.070191  0.030082  0.109933     16.000000
  0.090246  0.030082  0.109933     16.000000
  0.110301  0.030082  0.109933     16.000000
  0.130355  0.030082  0.109933     16.000000
  0.050137  0.050137  0.109933      8.000000
  0.070191  0.050137  0.109933     16.000000
  0.090246  0.050137  0.109933     16.000000
  0.110301  0.050137  0.109933     16.000000
  0.130355  0.050137  0.109933     16.000000
  0.070191  0.070191  0.109933      8.000000
  0.090246  0.070191  0.109933     16.000000
  0.110301  0.070191  0.109933     16.000000
  0.130355  0.070191  0.109933     16.000000
  0.090246  0.090246  0.109933      8.000000
  0.110301  0.090246  0.109933     16.000000
  0.130355  0.090246  0.109933     16.000000
  0.110301  0.110301  0.109933      8.000000
  0.130355  0.110301  0.109933     16.000000
  0.130355  0.130355  0.109933      8.000000
  0.010027  0.010027  0.129921      8.000000
  0.030082  0.010027  0.129921     16.000000
  0.050137  0.010027  0.129921     16.000000
  0.070191  0.010027  0.129921     16.000000
  0.090246  0.010027  0.129921     16.000000
  0.110301  0.010027  0.129921     16.000000
  0.130355  0.010027  0.129921     16.000000
  0.030082  0.030082  0.129921      8.000000
  0.050137  0.030082  0.129921     16.000000
  0.070191  0.030082  0.129921     16.000000
  0.090246  0.030082  0.129921     16.000000
  0.110301  0.030082  0.129921     16.000000
  0.130355  0.030082  0.129921     16.000000
  0.050137  0.050137  0.129921      8.000000
  0.070191  0.050137  0.129921     16.000000
  0.090246  0.050137  0.129921     16.000000
  0.110301  0.050137  0.129921     16.000000
  0.130355  0.050137  0.129921     16.000000
  0.070191  0.070191  0.129921      8.000000
  0.090246  0.070191  0.129921     16.000000
  0.110301  0.070191  0.129921     16.000000
  0.130355  0.070191  0.129921     16.000000
  0.090246  0.090246  0.129921      8.000000
  0.110301  0.090246  0.129921     16.000000
  0.130355  0.090246  0.129921     16.000000
  0.110301  0.110301  0.129921      8.000000
  0.130355  0.110301  0.129921     16.000000
  0.130355  0.130355  0.129921      8.000000
 


--------------------------------------------------------------------------------------------------------




 Dimension of arrays:
   k-points           NKPTS =    196   k-points in BZ     NKDIM =    196   number of bands    NBANDS=     24
   number of dos      NEDOS =    301   number of ions     NIONS =      8
   non local maximal  LDIM  =      4   non local SUM 2l+1 LMDIM =      8
   total plane-waves  NPLWV =  46656
   max r-space proj   IRMAX =      1   max aug-charges    IRDMAX=  16381
   dimension x,y,z NGX =    36 NGY =   36 NGZ =   36
   dimension x,y,z NGXF=    48 NGYF=   48 NGZF=   48
   support grid    NGXF=    96 NGYF=   96 NGZF=   96
   ions per type =               8
   NGX,Y,Z   is equivalent  to a cutoff of  16.80, 16.80, 16.75 a.u.
   NGXF,Y,Z  is equivalent  to a cutoff of  22.40, 22.40, 22.33 a.u.

 SYSTEM =  unknown system                          
 POSCAR =  C8                                      

 Startparameter for this run:
   NWRITE =      2    write-flag & timer
   PREC   = high      normal or accurate (medium, high low for compatibility)
   ISTART =      0    job   : 0-new  1-cont  2-samecut
   ICHARG =      2    charge: 1-file 2-atom 10-const
   ISPIN  =      1    spin polarized calculation?
   LNONCOLLINEAR =      F non collinear calculations
   LSORBIT =      F    spin-orbit coupling
   INIWAV =      1    electr: 0-lowe 1-rand  2-diag
   LASPH  =      F    aspherical Exc in radial PAW
   METAGGA=      F    non-selfconsistent MetaGGA calc.

 Electronic Relaxation 1
   ENCUT  =  875.0 eV  64.31 Ry    8.02 a.u.   8.59  8.59  8.62*2*pi/ulx,y,z
   ENINI  =  875.0     initial cutoff
   ENAUG  =  946.8 eV  augmentation charge cutoff
   NELM   =     40;   NELMIN=  4; NELMDL= -5     # of ELM steps 
   EDIFF  = 0.1E-07   stopping-criterion for ELM
   LREAL  =      F    real-space projection
   NLSPLINE    = F    spline interpolate recip. space projectors
   LCOMPAT=      F    compatible to vasp.4.4
   GGA_COMPAT  = T    GGA compatible to vasp.4.4-vasp.4.6
   LMAXPAW     = -100 max onsite density
   LMAXMIX     =    2 max onsite mixed and CHGCAR
   VOSKOWN=      0    Vosko Wilk Nusair interpolation
   ROPT   =    0.00000
 Ionic relaxation
   EDIFFG = -.1E-01   stopping-criterion for IOM
   NSW    =    100    number of steps for IOM
   NBLOCK =      1;   KBLOCK =    100    inner block; outer block 
   IBRION =      2    ionic relax: 0-MD 1-quasi-New 2-CG
   NFREE  =      1    steps in history (QN), initial steepest desc. (CG)
   ISIF   =      2    stress and relaxation
   IWAVPR =     11    prediction:  0-non 1-charg 2-wave 3-comb
   ISYM   =      2    0-nonsym 1-usesym 2-fastsym
   LCORR  =      T    Harris-Foulkes like correction to forces

   POTIM  = 0.5000    time-step for ionic-motion
   TEIN   =    0.0    initial temperature
   TEBEG  =    0.0;   TEEND  =   0.0 temperature during run
   SMASS  =  -3.00    Nose mass-parameter (am)
   estimated Nose-frequenzy (Omega)   =  0.10E-29 period in steps =****** mass=  -0.290E-27a.u.
   SCALEE = 1.0000    scale energy and forces
   NPACO  =    256;   APACO  = 16.0  distance and # of slots for P.C.
   PSTRESS=    0.0 pullay stress

  Mass of Ions in am
   POMASS =  12.01
  Ionic Valenz
   ZVAL   =   4.00
  Atomic Wigner-Seitz radii
   RWIGS  =  -1.00
  virtual crystal weights 
   VCA    =   1.00
   NELECT =      32.0000    total number of electrons
   NUPDOWN=      -1.0000    fix difference up-down

 DOS related values:
   EMIN   =  10.00;   EMAX   =-10.00  energy-range for DOS
   EFERMI =   0.00
   ISMEAR =     0;   SIGMA  =   0.05  broadening in eV -4-tet -1-fermi 0-gaus

 Electronic relaxation 2 (details)
   IALGO  =     38    algorithm
   LDIAG  =      T    sub-space diagonalisation (order eigenvalues)
   LSUBROT=      F    optimize rotation matrix (better conditioning)
   TURBO    =      0    0=normal 1=particle mesh
   IRESTART =      0    0=no restart 2=restart with 2 vectors
   NREBOOT  =      0    no. of reboots
   NMIN     =      0    reboot dimension
   EREF     =   0.00    reference energy to select bands
   IMIX   =      4    mixing-type and parameters
     AMIX     =   0.40;   BMIX     =  1.00
     AMIX_MAG =   1.60;   BMIX_MAG =  1.00
     AMIN     =   0.10
     WC   =   100.;   INIMIX=   1;  MIXPRE=   1;  MAXMIX= -45

 Intra band minimization:
   WEIMIN = 0.0010     energy-eigenvalue tresh-hold
   EBREAK =  0.10E-09  absolut break condition
   DEPER  =   0.30     relativ break condition  

   TIME   =   0.40     timestep for ELM

  volume/ion in A,a.u.               =       5.67        38.24
  Fermi-wavevector in a.u.,A,eV,Ry     =   1.457645  2.754549 28.908676  2.124728
  Thomas-Fermi vector in A             =   2.574422
 
 Write flags
   LWAVE        =      F    write WAVECAR
   LDOWNSAMPLE  =      F    k-point downsampling of WAVECAR
   LCHARG       =      F    write CHGCAR
   LVTOT        =      F    write LOCPOT, total local potential
   LVHAR        =      F    write LOCPOT, Hartree potential only
   LELF         =      F    write electronic localiz. function (ELF)
   LORBIT       =      0    0 simple, 1 ext, 2 COOP (PROOUT), +10 PAW based schemes


 Dipole corrections
   LMONO  =      F    monopole corrections only (constant potential shift)
   LDIPOL =      F    correct potential (dipole corrections)
   IDIPOL =      0    1-x, 2-y, 3-z, 4-all directions 
   EPSILON=  1.0000000 bulk dielectric constant

 Exchange correlation treatment:
   GGA     =    --    GGA type
   LEXCH   =     8    internal setting for exchange type
   VOSKOWN=      0    Vosko Wilk Nusair interpolation
   LHFCALC =     F    Hartree Fock is set to
   LHFONE  =     F    Hartree Fock one center treatment
   AEXX    =    0.0000 exact exchange contribution

 Linear response parameters
   LEPSILON=     F    determine dielectric tensor
   LRPA    =     F    only Hartree local field effects (RPA)
   LNABLA  =     F    use nabla operator in PAW spheres
   LVEL    =     F    velocity operator in full k-point grid
   LINTERFAST=   F  fast interpolation
   KINTER  =     0    interpolate to denser k-point grid
   CSHIFT  =0.1000    complex shift for real part using Kramers Kronig
   OMEGAMAX=  -1.0    maximum frequency
   DEG_THRESHOLD= 0.2000000E-02 threshold for treating states as degnerate
   RTIME   =   -0.100 relaxation time in fs
  (WPLASMAI=    0.000 imaginary part of plasma frequency in eV, 0.658/RTIME)
   DFIELD  = 0.0000000 0.0000000 0.0000000 field for delta impulse in time
 
 Orbital magnetization related:
   ORBITALMAG=     F  switch on orbital magnetization
   LCHIMAG   =     F  perturbation theory with respect to B field
   DQ        =  0.001000  dq finite difference perturbation B field
   LLRAUG    =     F  two centre corrections for induced B field



--------------------------------------------------------------------------------------------------------


 conjugate gradient relaxation of ions
 charge density and potential will be updated during run
 non-spin polarized calculation
 Variant of blocked Davidson
 Davidson routine will perform the subspace rotation
 perform sub-space diagonalisation
    after iterative eigenvector-optimisation
 modified Broyden-mixing scheme, WC =      100.0
 initial mixing is a Kerker type mixing with AMIX =  0.4000 and BMIX =      1.0000
 Hartree-type preconditioning will be used
 using additional bands            8
 reciprocal scheme for non local part
 use partial core corrections
 calculate Harris-corrections to forces 
   (improved forces if not selfconsistent)
 use gradient corrections 
 use of overlap-Matrix (Vanderbilt PP)
 Gauss-broadening in eV      SIGMA  =   0.05


--------------------------------------------------------------------------------------------------------


  energy-cutoff  :      875.00
  volume of cell :       45.33
      direct lattice vectors                 reciprocal lattice vectors
     3.561693054  0.000000000  0.000000000     0.280765351  0.000000000  0.000000000
     0.000000000  3.561693054  0.000000000     0.000000000  0.280765351  0.000000000
     0.000000000  0.000000000  3.573605071     0.000000000  0.000000000  0.279829466

  length of vectors
     3.561693054  3.561693054  3.573605071     0.280765351  0.280765351  0.279829466


 
 k-points in units of 2pi/SCALE and weight: K-Mesh Generated with KP-Resolved Value 
   0.01002733  0.01002733  0.00999391       0.003
   0.03008200  0.01002733  0.00999391       0.006
   0.05013667  0.01002733  0.00999391       0.006
   0.07019134  0.01002733  0.00999391       0.006
   0.09024601  0.01002733  0.00999391       0.006
   0.11030067  0.01002733  0.00999391       0.006
   0.13035534  0.01002733  0.00999391       0.006
   0.03008200  0.03008200  0.00999391       0.003
   0.05013667  0.03008200  0.00999391       0.006
   0.07019134  0.03008200  0.00999391       0.006
   0.09024601  0.03008200  0.00999391       0.006
   0.11030067  0.03008200  0.00999391       0.006
   0.13035534  0.03008200  0.00999391       0.006
   0.05013667  0.05013667  0.00999391       0.003
   0.07019134  0.05013667  0.00999391       0.006
   0.09024601  0.05013667  0.00999391       0.006
   0.11030067  0.05013667  0.00999391       0.006
   0.13035534  0.05013667  0.00999391       0.006
   0.07019134  0.07019134  0.00999391       0.003
   0.09024601  0.07019134  0.00999391       0.006
   0.11030067  0.07019134  0.00999391       0.006
   0.13035534  0.07019134  0.00999391       0.006
   0.09024601  0.09024601  0.00999391       0.003
   0.11030067  0.09024601  0.00999391       0.006
   0.13035534  0.09024601  0.00999391       0.006
   0.11030067  0.11030067  0.00999391       0.003
   0.13035534  0.11030067  0.00999391       0.006
   0.13035534  0.13035534  0.00999391       0.003
   0.01002733  0.01002733  0.02998173       0.003
   0.03008200  0.01002733  0.02998173       0.006
   0.05013667  0.01002733  0.02998173       0.006
   0.07019134  0.01002733  0.02998173       0.006
   0.09024601  0.01002733  0.02998173       0.006
   0.11030067  0.01002733  0.02998173       0.006
   0.13035534  0.01002733  0.02998173       0.006
   0.03008200  0.03008200  0.02998173       0.003
   0.05013667  0.03008200  0.02998173       0.006
   0.07019134  0.03008200  0.02998173       0.006
   0.09024601  0.03008200  0.02998173       0.006
   0.11030067  0.03008200  0.02998173       0.006
   0.13035534  0.03008200  0.02998173       0.006
   0.05013667  0.05013667  0.02998173       0.003
   0.07019134  0.05013667  0.02998173       0.006
   0.09024601  0.05013667  0.02998173       0.006
   0.11030067  0.05013667  0.02998173       0.006
   0.13035534  0.05013667  0.02998173       0.006
   0.07019134  0.07019134  0.02998173       0.003
   0.09024601  0.07019134  0.02998173       0.006
   0.11030067  0.07019134  0.02998173       0.006
   0.13035534  0.07019134  0.02998173       0.006
   0.09024601  0.09024601  0.02998173       0.003
   0.11030067  0.09024601  0.02998173       0.006
   0.13035534  0.09024601  0.02998173       0.006
   0.11030067  0.11030067  0.02998173       0.003
   0.13035534  0.11030067  0.02998173       0.006
   0.13035534  0.13035534  0.02998173       0.003
   0.01002733  0.01002733  0.04996955       0.003
   0.03008200  0.01002733  0.04996955       0.006
   0.05013667  0.01002733  0.04996955       0.006
   0.07019134  0.01002733  0.04996955       0.006
   0.09024601  0.01002733  0.04996955       0.006
   0.11030067  0.01002733  0.04996955       0.006
   0.13035534  0.01002733  0.04996955       0.006
   0.03008200  0.03008200  0.04996955       0.003
   0.05013667  0.03008200  0.04996955       0.006
   0.07019134  0.03008200  0.04996955       0.006
   0.09024601  0.03008200  0.04996955       0.006
   0.11030067  0.03008200  0.04996955       0.006
   0.13035534  0.03008200  0.04996955       0.006
   0.05013667  0.05013667  0.04996955       0.003
   0.07019134  0.05013667  0.04996955       0.006
   0.09024601  0.05013667  0.04996955       0.006
   0.11030067  0.05013667  0.04996955       0.006
   0.13035534  0.05013667  0.04996955       0.006
   0.07019134  0.07019134  0.04996955       0.003
   0.09024601  0.07019134  0.04996955       0.006
   0.11030067  0.07019134  0.04996955       0.006
   0.13035534  0.07019134  0.04996955       0.006
   0.09024601  0.09024601  0.04996955       0.003
   0.11030067  0.09024601  0.04996955       0.006
   0.13035534  0.09024601  0.04996955       0.006
   0.11030067  0.11030067  0.04996955       0.003
   0.13035534  0.11030067  0.04996955       0.006
   0.13035534  0.13035534  0.04996955       0.003
   0.01002733  0.01002733  0.06995737       0.003
   0.03008200  0.01002733  0.06995737       0.006
   0.05013667  0.01002733  0.06995737       0.006
   0.07019134  0.01002733  0.06995737       0.006
   0.09024601  0.01002733  0.06995737       0.006
   0.11030067  0.01002733  0.06995737       0.006
   0.13035534  0.01002733  0.06995737       0.006
   0.03008200  0.03008200  0.06995737       0.003
   0.05013667  0.03008200  0.06995737       0.006
   0.07019134  0.03008200  0.06995737       0.006
   0.09024601  0.03008200  0.06995737       0.006
   0.11030067  0.03008200  0.06995737       0.006
   0.13035534  0.03008200  0.06995737       0.006
   0.05013667  0.05013667  0.06995737       0.003
   0.07019134  0.05013667  0.06995737       0.006
   0.09024601  0.05013667  0.06995737       0.006
   0.11030067  0.05013667  0.06995737       0.006
   0.13035534  0.05013667  0.06995737       0.006
   0.07019134  0.07019134  0.06995737       0.003
   0.09024601  0.07019134  0.06995737       0.006
   0.11030067  0.07019134  0.06995737       0.006
   0.13035534  0.07019134  0.06995737       0.006
   0.09024601  0.09024601  0.06995737       0.003
   0.11030067  0.09024601  0.06995737       0.006
   0.13035534  0.09024601  0.06995737       0.006
   0.11030067  0.11030067  0.06995737       0.003
   0.13035534  0.11030067  0.06995737       0.006
   0.13035534  0.13035534  0.06995737       0.003
   0.01002733  0.01002733  0.08994519       0.003
   0.03008200  0.01002733  0.08994519       0.006
   0.05013667  0.01002733  0.08994519       0.006
   0.07019134  0.01002733  0.08994519       0.006
   0.09024601  0.01002733  0.08994519       0.006
   0.11030067  0.01002733  0.08994519       0.006
   0.13035534  0.01002733  0.08994519       0.006
   0.03008200  0.03008200  0.08994519       0.003
   0.05013667  0.03008200  0.08994519       0.006
   0.07019134  0.03008200  0.08994519       0.006
   0.09024601  0.03008200  0.08994519       0.006
   0.11030067  0.03008200  0.08994519       0.006
   0.13035534  0.03008200  0.08994519       0.006
   0.05013667  0.05013667  0.08994519       0.003
   0.07019134  0.05013667  0.08994519       0.006
   0.09024601  0.05013667  0.08994519       0.006
   0.11030067  0.05013667  0.08994519       0.006
   0.13035534  0.05013667  0.08994519       0.006
   0.07019134  0.07019134  0.08994519       0.003
   0.09024601  0.07019134  0.08994519       0.006
   0.11030067  0.07019134  0.08994519       0.006
   0.13035534  0.07019134  0.08994519       0.006
   0.09024601  0.09024601  0.08994519       0.003
   0.11030067  0.09024601  0.08994519       0.006
   0.13035534  0.09024601  0.08994519       0.006
   0.11030067  0.11030067  0.08994519       0.003
   0.13035534  0.11030067  0.08994519       0.006
   0.13035534  0.13035534  0.08994519       0.003
   0.01002733  0.01002733  0.10993300       0.003
   0.03008200  0.01002733  0.10993300       0.006
   0.05013667  0.01002733  0.10993300       0.006
   0.07019134  0.01002733  0.10993300       0.006
   0.09024601  0.01002733  0.10993300       0.006
   0.11030067  0.01002733  0.10993300       0.006
   0.13035534  0.01002733  0.10993300       0.006
   0.03008200  0.03008200  0.10993300       0.003
   0.05013667  0.03008200  0.10993300       0.006
   0.07019134  0.03008200  0.10993300       0.006
   0.09024601  0.03008200  0.10993300       0.006
   0.11030067  0.03008200  0.10993300       0.006
   0.13035534  0.03008200  0.10993300       0.006
   0.05013667  0.05013667  0.10993300       0.003
   0.07019134  0.05013667  0.10993300       0.006
   0.09024601  0.05013667  0.10993300       0.006
   0.11030067  0.05013667  0.10993300       0.006
   0.13035534  0.05013667  0.10993300       0.006
   0.07019134  0.07019134  0.10993300       0.003
   0.09024601  0.07019134  0.10993300       0.006
   0.11030067  0.07019134  0.10993300       0.006
   0.13035534  0.07019134  0.10993300       0.006
   0.09024601  0.09024601  0.10993300       0.003
   0.11030067  0.09024601  0.10993300       0.006
   0.13035534  0.09024601  0.10993300       0.006
   0.11030067  0.11030067  0.10993300       0.003
   0.13035534  0.11030067  0.10993300       0.006
   0.13035534  0.13035534  0.10993300       0.003
   0.01002733  0.01002733  0.12992082       0.003
   0.03008200  0.01002733  0.12992082       0.006
   0.05013667  0.01002733  0.12992082       0.006
   0.07019134  0.01002733  0.12992082       0.006
   0.09024601  0.01002733  0.12992082       0.006
   0.11030067  0.01002733  0.12992082       0.006
   0.13035534  0.01002733  0.12992082       0.006
   0.03008200  0.03008200  0.12992082       0.003
   0.05013667  0.03008200  0.12992082       0.006
   0.07019134  0.03008200  0.12992082       0.006
   0.09024601  0.03008200  0.12992082       0.006
   0.11030067  0.03008200  0.12992082       0.006
   0.13035534  0.03008200  0.12992082       0.006
   0.05013667  0.05013667  0.12992082       0.003
   0.07019134  0.05013667  0.12992082       0.006
   0.09024601  0.05013667  0.12992082       0.006
   0.11030067  0.05013667  0.12992082       0.006
   0.13035534  0.05013667  0.12992082       0.006
   0.07019134  0.07019134  0.12992082       0.003
   0.09024601  0.07019134  0.12992082       0.006
   0.11030067  0.07019134  0.12992082       0.006
   0.13035534  0.07019134  0.12992082       0.006
   0.09024601  0.09024601  0.12992082       0.003
   0.11030067  0.09024601  0.12992082       0.006
   0.13035534  0.09024601  0.12992082       0.006
   0.11030067  0.11030067  0.12992082       0.003
   0.13035534  0.11030067  0.12992082       0.006
   0.13035534  0.13035534  0.12992082       0.003
 
 k-points in reciprocal lattice and weights: K-Mesh Generated with KP-Resolved Value 
   0.03571429  0.03571429  0.03571429       0.003
   0.10714286  0.03571429  0.03571429       0.006
   0.17857143  0.03571429  0.03571429       0.006
   0.25000000  0.03571429  0.03571429       0.006
   0.32142857  0.03571429  0.03571429       0.006
   0.39285714  0.03571429  0.03571429       0.006
   0.46428571  0.03571429  0.03571429       0.006
   0.10714286  0.10714286  0.03571429       0.003
   0.17857143  0.10714286  0.03571429       0.006
   0.25000000  0.10714286  0.03571429       0.006
   0.32142857  0.10714286  0.03571429       0.006
   0.39285714  0.10714286  0.03571429       0.006
   0.46428571  0.10714286  0.03571429       0.006
   0.17857143  0.17857143  0.03571429       0.003
   0.25000000  0.17857143  0.03571429       0.006
   0.32142857  0.17857143  0.03571429       0.006
   0.39285714  0.17857143  0.03571429       0.006
   0.46428571  0.17857143  0.03571429       0.006
   0.25000000  0.25000000  0.03571429       0.003
   0.32142857  0.25000000  0.03571429       0.006
   0.39285714  0.25000000  0.03571429       0.006
   0.46428571  0.25000000  0.03571429       0.006
   0.32142857  0.32142857  0.03571429       0.003
   0.39285714  0.32142857  0.03571429       0.006
   0.46428571  0.32142857  0.03571429       0.006
   0.39285714  0.39285714  0.03571429       0.003
   0.46428571  0.39285714  0.03571429       0.006
   0.46428571  0.46428571  0.03571429       0.003
   0.03571429  0.03571429  0.10714286       0.003
   0.10714286  0.03571429  0.10714286       0.006
   0.17857143  0.03571429  0.10714286       0.006
   0.25000000  0.03571429  0.10714286       0.006
   0.32142857  0.03571429  0.10714286       0.006
   0.39285714  0.03571429  0.10714286       0.006
   0.46428571  0.03571429  0.10714286       0.006
   0.10714286  0.10714286  0.10714286       0.003
   0.17857143  0.10714286  0.10714286       0.006
   0.25000000  0.10714286  0.10714286       0.006
   0.32142857  0.10714286  0.10714286       0.006
   0.39285714  0.10714286  0.10714286       0.006
   0.46428571  0.10714286  0.10714286       0.006
   0.17857143  0.17857143  0.10714286       0.003
   0.25000000  0.17857143  0.10714286       0.006
   0.32142857  0.17857143  0.10714286       0.006
   0.39285714  0.17857143  0.10714286       0.006
   0.46428571  0.17857143  0.10714286       0.006
   0.25000000  0.25000000  0.10714286       0.003
   0.32142857  0.25000000  0.10714286       0.006
   0.39285714  0.25000000  0.10714286       0.006
   0.46428571  0.25000000  0.10714286       0.006
   0.32142857  0.32142857  0.10714286       0.003
   0.39285714  0.32142857  0.10714286       0.006
   0.46428571  0.32142857  0.10714286       0.006
   0.39285714  0.39285714  0.10714286       0.003
   0.46428571  0.39285714  0.10714286       0.006
   0.46428571  0.46428571  0.10714286       0.003
   0.03571429  0.03571429  0.17857143       0.003
   0.10714286  0.03571429  0.17857143       0.006
   0.17857143  0.03571429  0.17857143       0.006
   0.25000000  0.03571429  0.17857143       0.006
   0.32142857  0.03571429  0.17857143       0.006
   0.39285714  0.03571429  0.17857143       0.006
   0.46428571  0.03571429  0.17857143       0.006
   0.10714286  0.10714286  0.17857143       0.003
   0.17857143  0.10714286  0.17857143       0.006
   0.25000000  0.10714286  0.17857143       0.006
   0.32142857  0.10714286  0.17857143       0.006
   0.39285714  0.10714286  0.17857143       0.006
   0.46428571  0.10714286  0.17857143       0.006
   0.17857143  0.17857143  0.17857143       0.003
   0.25000000  0.17857143  0.17857143       0.006
   0.32142857  0.17857143  0.17857143       0.006
   0.39285714  0.17857143  0.17857143       0.006
   0.46428571  0.17857143  0.17857143       0.006
   0.25000000  0.25000000  0.17857143       0.003
   0.32142857  0.25000000  0.17857143       0.006
   0.39285714  0.25000000  0.17857143       0.006
   0.46428571  0.25000000  0.17857143       0.006
   0.32142857  0.32142857  0.17857143       0.003
   0.39285714  0.32142857  0.17857143       0.006
   0.46428571  0.32142857  0.17857143       0.006
   0.39285714  0.39285714  0.17857143       0.003
   0.46428571  0.39285714  0.17857143       0.006
   0.46428571  0.46428571  0.17857143       0.003
   0.03571429  0.03571429  0.25000000       0.003
   0.10714286  0.03571429  0.25000000       0.006
   0.17857143  0.03571429  0.25000000       0.006
   0.25000000  0.03571429  0.25000000       0.006
   0.32142857  0.03571429  0.25000000       0.006
   0.39285714  0.03571429  0.25000000       0.006
   0.46428571  0.03571429  0.25000000       0.006
   0.10714286  0.10714286  0.25000000       0.003
   0.17857143  0.10714286  0.25000000       0.006
   0.25000000  0.10714286  0.25000000       0.006
   0.32142857  0.10714286  0.25000000       0.006
   0.39285714  0.10714286  0.25000000       0.006
   0.46428571  0.10714286  0.25000000       0.006
   0.17857143  0.17857143  0.25000000       0.003
   0.25000000  0.17857143  0.25000000       0.006
   0.32142857  0.17857143  0.25000000       0.006
   0.39285714  0.17857143  0.25000000       0.006
   0.46428571  0.17857143  0.25000000       0.006
   0.25000000  0.25000000  0.25000000       0.003
   0.32142857  0.25000000  0.25000000       0.006
   0.39285714  0.25000000  0.25000000       0.006
   0.46428571  0.25000000  0.25000000       0.006
   0.32142857  0.32142857  0.25000000       0.003
   0.39285714  0.32142857  0.25000000       0.006
   0.46428571  0.32142857  0.25000000       0.006
   0.39285714  0.39285714  0.25000000       0.003
   0.46428571  0.39285714  0.25000000       0.006
   0.46428571  0.46428571  0.25000000       0.003
   0.03571429  0.03571429  0.32142857       0.003
   0.10714286  0.03571429  0.32142857       0.006
   0.17857143  0.03571429  0.32142857       0.006
   0.25000000  0.03571429  0.32142857       0.006
   0.32142857  0.03571429  0.32142857       0.006
   0.39285714  0.03571429  0.32142857       0.006
   0.46428571  0.03571429  0.32142857       0.006
   0.10714286  0.10714286  0.32142857       0.003
   0.17857143  0.10714286  0.32142857       0.006
   0.25000000  0.10714286  0.32142857       0.006
   0.32142857  0.10714286  0.32142857       0.006
   0.39285714  0.10714286  0.32142857       0.006
   0.46428571  0.10714286  0.32142857       0.006
   0.17857143  0.17857143  0.32142857       0.003
   0.25000000  0.17857143  0.32142857       0.006
   0.32142857  0.17857143  0.32142857       0.006
   0.39285714  0.17857143  0.32142857       0.006
   0.46428571  0.17857143  0.32142857       0.006
   0.25000000  0.25000000  0.32142857       0.003
   0.32142857  0.25000000  0.32142857       0.006
   0.39285714  0.25000000  0.32142857       0.006
   0.46428571  0.25000000  0.32142857       0.006
   0.32142857  0.32142857  0.32142857       0.003
   0.39285714  0.32142857  0.32142857       0.006
   0.46428571  0.32142857  0.32142857       0.006
   0.39285714  0.39285714  0.32142857       0.003
   0.46428571  0.39285714  0.32142857       0.006
   0.46428571  0.46428571  0.32142857       0.003
   0.03571429  0.03571429  0.39285714       0.003
   0.10714286  0.03571429  0.39285714       0.006
   0.17857143  0.03571429  0.39285714       0.006
   0.25000000  0.03571429  0.39285714       0.006
   0.32142857  0.03571429  0.39285714       0.006
   0.39285714  0.03571429  0.39285714       0.006
   0.46428571  0.03571429  0.39285714       0.006
   0.10714286  0.10714286  0.39285714       0.003
   0.17857143  0.10714286  0.39285714       0.006
   0.25000000  0.10714286  0.39285714       0.006
   0.32142857  0.10714286  0.39285714       0.006
   0.39285714  0.10714286  0.39285714       0.006
   0.46428571  0.10714286  0.39285714       0.006
   0.17857143  0.17857143  0.39285714       0.003
   0.25000000  0.17857143  0.39285714       0.006
   0.32142857  0.17857143  0.39285714       0.006
   0.39285714  0.17857143  0.39285714       0.006
   0.46428571  0.17857143  0.39285714       0.006
   0.25000000  0.25000000  0.39285714       0.003
   0.32142857  0.25000000  0.39285714       0.006
   0.39285714  0.25000000  0.39285714       0.006
   0.46428571  0.25000000  0.39285714       0.006
   0.32142857  0.32142857  0.39285714       0.003
   0.39285714  0.32142857  0.39285714       0.006
   0.46428571  0.32142857  0.39285714       0.006
   0.39285714  0.39285714  0.39285714       0.003
   0.46428571  0.39285714  0.39285714       0.006
   0.46428571  0.46428571  0.39285714       0.003
   0.03571429  0.03571429  0.46428571       0.003
   0.10714286  0.03571429  0.46428571       0.006
   0.17857143  0.03571429  0.46428571       0.006
   0.25000000  0.03571429  0.46428571       0.006
   0.32142857  0.03571429  0.46428571       0.006
   0.39285714  0.03571429  0.46428571       0.006
   0.46428571  0.03571429  0.46428571       0.006
   0.10714286  0.10714286  0.46428571       0.003
   0.17857143  0.10714286  0.46428571       0.006
   0.25000000  0.10714286  0.46428571       0.006
   0.32142857  0.10714286  0.46428571       0.006
   0.39285714  0.10714286  0.46428571       0.006
   0.46428571  0.10714286  0.46428571       0.006
   0.17857143  0.17857143  0.46428571       0.003
   0.25000000  0.17857143  0.46428571       0.006
   0.32142857  0.17857143  0.46428571       0.006
   0.39285714  0.17857143  0.46428571       0.006
   0.46428571  0.17857143  0.46428571       0.006
   0.25000000  0.25000000  0.46428571       0.003
   0.32142857  0.25000000  0.46428571       0.006
   0.39285714  0.25000000  0.46428571       0.006
   0.46428571  0.25000000  0.46428571       0.006
   0.32142857  0.32142857  0.46428571       0.003
   0.39285714  0.32142857  0.46428571       0.006
   0.46428571  0.32142857  0.46428571       0.006
   0.39285714  0.39285714  0.46428571       0.003
   0.46428571  0.39285714  0.46428571       0.006
   0.46428571  0.46428571  0.46428571       0.003
 
 position of ions in fractional coordinates (direct lattice) 
   0.25000000  0.25000000  0.25000000
   0.00000000  0.00000000  0.00000000
   0.25000000  0.75000000  0.75000000
   0.00000000  0.50000000  0.50000000
   0.75000000  0.25000000  0.75000000
   0.50000000  0.00000000  0.50000000
   0.75000000  0.75000000  0.25000000
   0.50000000  0.50000000  0.00000000
 
 position of ions in cartesian coordinates  (Angst):
   0.89042326  0.89042326  0.89340127
   0.00000000  0.00000000  0.00000000
   0.89042326  2.67126979  2.68020380
   0.00000000  1.78084653  1.78680254
   2.67126979  0.89042326  2.68020380
   1.78084653  0.00000000  1.78680254
   2.67126979  2.67126979  0.89340127
   1.78084653  1.78084653  0.00000000
 


--------------------------------------------------------------------------------------------------------


 k-point  1 :   0.0357 0.0357 0.0357  plane waves:    2659
 k-point  2 :   0.1071 0.0357 0.0357  plane waves:    2663
 k-point  3 :   0.1786 0.0357 0.0357  plane waves:    2667
 k-point  4 :   0.2500 0.0357 0.0357  plane waves:    2679
 k-point  5 :   0.3214 0.0357 0.0357  plane waves:    2678
 k-point  6 :   0.3929 0.0357 0.0357  plane waves:    2670
 k-point  7 :   0.4643 0.0357 0.0357  plane waves:    2677
 k-point  8 :   0.1071 0.1071 0.0357  plane waves:    2660
 k-point  9 :   0.1786 0.1071 0.0357  plane waves:    2667
 k-point 10 :   0.2500 0.1071 0.0357  plane waves:    2677
 k-point 11 :   0.3214 0.1071 0.0357  plane waves:    2676
 k-point 12 :   0.3929 0.1071 0.0357  plane waves:    2671
 k-point 13 :   0.4643 0.1071 0.0357  plane waves:    2678
 k-point 14 :   0.1786 0.1786 0.0357  plane waves:    2676
 k-point 15 :   0.2500 0.1786 0.0357  plane waves:    2673
 k-point 16 :   0.3214 0.1786 0.0357  plane waves:    2668
 k-point 17 :   0.3929 0.1786 0.0357  plane waves:    2671
 k-point 18 :   0.4643 0.1786 0.0357  plane waves:    2671
 k-point 19 :   0.2500 0.2500 0.0357  plane waves:    2663
 k-point 20 :   0.3214 0.2500 0.0357  plane waves:    2664
 k-point 21 :   0.3929 0.2500 0.0357  plane waves:    2659
 k-point 22 :   0.4643 0.2500 0.0357  plane waves:    2661
 k-point 23 :   0.3214 0.3214 0.0357  plane waves:    2665
 k-point 24 :   0.3929 0.3214 0.0357  plane waves:    2660
 k-point 25 :   0.4643 0.3214 0.0357  plane waves:    2657
 k-point 26 :   0.3929 0.3929 0.0357  plane waves:    2659
 k-point 27 :   0.4643 0.3929 0.0357  plane waves:    2659
 k-point 28 :   0.4643 0.4643 0.0357  plane waves:    2669
 k-point 29 :   0.0357 0.0357 0.1071  plane waves:    2653
 k-point 30 :   0.1071 0.0357 0.1071  plane waves:    2658
 k-point 31 :   0.1786 0.0357 0.1071  plane waves:    2667
 k-point 32 :   0.2500 0.0357 0.1071  plane waves:    2678
 k-point 33 :   0.3214 0.0357 0.1071  plane waves:    2678
 k-point 34 :   0.3929 0.0357 0.1071  plane waves:    2672
 k-point 35 :   0.4643 0.0357 0.1071  plane waves:    2673
 k-point 36 :   0.1071 0.1071 0.1071  plane waves:    2662
 k-point 37 :   0.1786 0.1071 0.1071  plane waves:    2666
 k-point 38 :   0.2500 0.1071 0.1071  plane waves:    2673
 k-point 39 :   0.3214 0.1071 0.1071  plane waves:    2674
 k-point 40 :   0.3929 0.1071 0.1071  plane waves:    2669
 k-point 41 :   0.4643 0.1071 0.1071  plane waves:    2676
 k-point 42 :   0.1786 0.1786 0.1071  plane waves:    2669
 k-point 43 :   0.2500 0.1786 0.1071  plane waves:    2670
 k-point 44 :   0.3214 0.1786 0.1071  plane waves:    2671
 k-point 45 :   0.3929 0.1786 0.1071  plane waves:    2670
 k-point 46 :   0.4643 0.1786 0.1071  plane waves:    2668
 k-point 47 :   0.2500 0.2500 0.1071  plane waves:    2667
 k-point 48 :   0.3214 0.2500 0.1071  plane waves:    2668
 k-point 49 :   0.3929 0.2500 0.1071  plane waves:    2662
 k-point 50 :   0.4643 0.2500 0.1071  plane waves:    2661
 k-point 51 :   0.3214 0.3214 0.1071  plane waves:    2665
 k-point 52 :   0.3929 0.3214 0.1071  plane waves:    2655
 k-point 53 :   0.4643 0.3214 0.1071  plane waves:    2657
 k-point 54 :   0.3929 0.3929 0.1071  plane waves:    2658
 k-point 55 :   0.4643 0.3929 0.1071  plane waves:    2659
 k-point 56 :   0.4643 0.4643 0.1071  plane waves:    2660
 k-point 57 :   0.0357 0.0357 0.1786  plane waves:    2661
 k-point 58 :   0.1071 0.0357 0.1786  plane waves:    2665
 k-point 59 :   0.1786 0.0357 0.1786  plane waves:    2672
 k-point 60 :   0.2500 0.0357 0.1786  plane waves:    2675
 k-point 61 :   0.3214 0.0357 0.1786  plane waves:    2670
 k-point 62 :   0.3929 0.0357 0.1786  plane waves:    2671
 k-point 63 :   0.4643 0.0357 0.1786  plane waves:    2673
 k-point 64 :   0.1071 0.1071 0.1786  plane waves:    2671
 k-point 65 :   0.1786 0.1071 0.1786  plane waves:    2670
 k-point 66 :   0.2500 0.1071 0.1786  plane waves:    2672
 k-point 67 :   0.3214 0.1071 0.1786  plane waves:    2671
 k-point 68 :   0.3929 0.1071 0.1786  plane waves:    2670
 k-point 69 :   0.4643 0.1071 0.1786  plane waves:    2668
 k-point 70 :   0.1786 0.1786 0.1786  plane waves:    2667
 k-point 71 :   0.2500 0.1786 0.1786  plane waves:    2672
 k-point 72 :   0.3214 0.1786 0.1786  plane waves:    2667
 k-point 73 :   0.3929 0.1786 0.1786  plane waves:    2670
 k-point 74 :   0.4643 0.1786 0.1786  plane waves:    2673
 k-point 75 :   0.2500 0.2500 0.1786  plane waves:    2664
 k-point 76 :   0.3214 0.2500 0.1786  plane waves:    2662
 k-point 77 :   0.3929 0.2500 0.1786  plane waves:    2661
 k-point 78 :   0.4643 0.2500 0.1786  plane waves:    2660
 k-point 79 :   0.3214 0.3214 0.1786  plane waves:    2673
 k-point 80 :   0.3929 0.3214 0.1786  plane waves:    2664
 k-point 81 :   0.4643 0.3214 0.1786  plane waves:    2652
 k-point 82 :   0.3929 0.3929 0.1786  plane waves:    2651
 k-point 83 :   0.4643 0.3929 0.1786  plane waves:    2656
 k-point 84 :   0.4643 0.4643 0.1786  plane waves:    2663
 k-point 85 :   0.0357 0.0357 0.2500  plane waves:    2676
 k-point 86 :   0.1071 0.0357 0.2500  plane waves:    2675
 k-point 87 :   0.1786 0.0357 0.2500  plane waves:    2675
 k-point 88 :   0.2500 0.0357 0.2500  plane waves:    2666
 k-point 89 :   0.3214 0.0357 0.2500  plane waves:    2664
 k-point 90 :   0.3929 0.0357 0.2500  plane waves:    2660
 k-point 91 :   0.4643 0.0357 0.2500  plane waves:    2662
 k-point 92 :   0.1071 0.1071 0.2500  plane waves:    2674
 k-point 93 :   0.1786 0.1071 0.2500  plane waves:    2667
 k-point 94 :   0.2500 0.1071 0.2500  plane waves:    2667
 k-point 95 :   0.3214 0.1071 0.2500  plane waves:    2670
 k-point 96 :   0.3929 0.1071 0.2500  plane waves:    2664
 k-point 97 :   0.4643 0.1071 0.2500  plane waves:    2665
 k-point 98 :   0.1786 0.1786 0.2500  plane waves:    2671
 k-point 99 :   0.2500 0.1786 0.2500  plane waves:    2664
 k-point ** :   0.3214 0.1786 0.2500  plane waves:    2662
 k-point ** :   0.3929 0.1786 0.2500  plane waves:    2663
 k-point ** :   0.4643 0.1786 0.2500  plane waves:    2660
 k-point ** :   0.2500 0.2500 0.2500  plane waves:    2674
 k-point ** :   0.3214 0.2500 0.2500  plane waves:    2668
 k-point ** :   0.3929 0.2500 0.2500  plane waves:    2664
 k-point ** :   0.4643 0.2500 0.2500  plane waves:    2662
 k-point ** :   0.3214 0.3214 0.2500  plane waves:    2670
 k-point ** :   0.3929 0.3214 0.2500  plane waves:    2664
 k-point ** :   0.4643 0.3214 0.2500  plane waves:    2659
 k-point ** :   0.3929 0.3929 0.2500  plane waves:    2658
 k-point ** :   0.4643 0.3929 0.2500  plane waves:    2653
 k-point ** :   0.4643 0.4643 0.2500  plane waves:    2652
 k-point ** :   0.0357 0.0357 0.3214  plane waves:    2676
 k-point ** :   0.1071 0.0357 0.3214  plane waves:    2674
 k-point ** :   0.1786 0.0357 0.3214  plane waves:    2668
 k-point ** :   0.2500 0.0357 0.3214  plane waves:    2663
 k-point ** :   0.3214 0.0357 0.3214  plane waves:    2669
 k-point ** :   0.3929 0.0357 0.3214  plane waves:    2661
 k-point ** :   0.4643 0.0357 0.3214  plane waves:    2657
 k-point ** :   0.1071 0.1071 0.3214  plane waves:    2678
 k-point ** :   0.1786 0.1071 0.3214  plane waves:    2671
 k-point ** :   0.2500 0.1071 0.3214  plane waves:    2669
 k-point ** :   0.3214 0.1071 0.3214  plane waves:    2665
 k-point ** :   0.3929 0.1071 0.3214  plane waves:    2659
 k-point ** :   0.4643 0.1071 0.3214  plane waves:    2656
 k-point ** :   0.1786 0.1786 0.3214  plane waves:    2665
 k-point ** :   0.2500 0.1786 0.3214  plane waves:    2664
 k-point ** :   0.3214 0.1786 0.3214  plane waves:    2668
 k-point ** :   0.3929 0.1786 0.3214  plane waves:    2662
 k-point ** :   0.4643 0.1786 0.3214  plane waves:    2654
 k-point ** :   0.2500 0.2500 0.3214  plane waves:    2667
 k-point ** :   0.3214 0.2500 0.3214  plane waves:    2665
 k-point ** :   0.3929 0.2500 0.3214  plane waves:    2660
 k-point ** :   0.4643 0.2500 0.3214  plane waves:    2659
 k-point ** :   0.3214 0.3214 0.3214  plane waves:    2660
 k-point ** :   0.3929 0.3214 0.3214  plane waves:    2662
 k-point ** :   0.4643 0.3214 0.3214  plane waves:    2647
 k-point ** :   0.3929 0.3929 0.3214  plane waves:    2656
 k-point ** :   0.4643 0.3929 0.3214  plane waves:    2658
 k-point ** :   0.4643 0.4643 0.3214  plane waves:    2651
 k-point ** :   0.0357 0.0357 0.3929  plane waves:    2664
 k-point ** :   0.1071 0.0357 0.3929  plane waves:    2678
 k-point ** :   0.1786 0.0357 0.3929  plane waves:    2670
 k-point ** :   0.2500 0.0357 0.3929  plane waves:    2661
 k-point ** :   0.3214 0.0357 0.3929  plane waves:    2660
 k-point ** :   0.3929 0.0357 0.3929  plane waves:    2664
 k-point ** :   0.4643 0.0357 0.3929  plane waves:    2658
 k-point ** :   0.1071 0.1071 0.3929  plane waves:    2670
 k-point ** :   0.1786 0.1071 0.3929  plane waves:    2668
 k-point ** :   0.2500 0.1071 0.3929  plane waves:    2664
 k-point ** :   0.3214 0.1071 0.3929  plane waves:    2660
 k-point ** :   0.3929 0.1071 0.3929  plane waves:    2660
 k-point ** :   0.4643 0.1071 0.3929  plane waves:    2656
 k-point ** :   0.1786 0.1786 0.3929  plane waves:    2666
 k-point ** :   0.2500 0.1786 0.3929  plane waves:    2667
 k-point ** :   0.3214 0.1786 0.3929  plane waves:    2663
 k-point ** :   0.3929 0.1786 0.3929  plane waves:    2656
 k-point ** :   0.4643 0.1786 0.3929  plane waves:    2655
 k-point ** :   0.2500 0.2500 0.3929  plane waves:    2668
 k-point ** :   0.3214 0.2500 0.3929  plane waves:    2662
 k-point ** :   0.3929 0.2500 0.3929  plane waves:    2655
 k-point ** :   0.4643 0.2500 0.3929  plane waves:    2650
 k-point ** :   0.3214 0.3214 0.3929  plane waves:    2660
 k-point ** :   0.3929 0.3214 0.3929  plane waves:    2656
 k-point ** :   0.4643 0.3214 0.3929  plane waves:    2654
 k-point ** :   0.3929 0.3929 0.3929  plane waves:    2652
 k-point ** :   0.4643 0.3929 0.3929  plane waves:    2645
 k-point ** :   0.4643 0.4643 0.3929  plane waves:    2647
 k-point ** :   0.0357 0.0357 0.4643  plane waves:    2681
 k-point ** :   0.1071 0.0357 0.4643  plane waves:    2677
 k-point ** :   0.1786 0.0357 0.4643  plane waves:    2672
 k-point ** :   0.2500 0.0357 0.4643  plane waves:    2667
 k-point ** :   0.3214 0.0357 0.4643  plane waves:    2660
 k-point ** :   0.3929 0.0357 0.4643  plane waves:    2661
 k-point ** :   0.4643 0.0357 0.4643  plane waves:    2673
 k-point ** :   0.1071 0.1071 0.4643  plane waves:    2674
 k-point ** :   0.1786 0.1071 0.4643  plane waves:    2672
 k-point ** :   0.2500 0.1071 0.4643  plane waves:    2668
 k-point ** :   0.3214 0.1071 0.4643  plane waves:    2659
 k-point ** :   0.3929 0.1071 0.4643  plane waves:    2658
 k-point ** :   0.4643 0.1071 0.4643  plane waves:    2658
 k-point ** :   0.1786 0.1786 0.4643  plane waves:    2673
 k-point ** :   0.2500 0.1786 0.4643  plane waves:    2659
 k-point ** :   0.3214 0.1786 0.4643  plane waves:    2656
 k-point ** :   0.3929 0.1786 0.4643  plane waves:    2656
 k-point ** :   0.4643 0.1786 0.4643  plane waves:    2666
 k-point ** :   0.2500 0.2500 0.4643  plane waves:    2664
 k-point ** :   0.3214 0.2500 0.4643  plane waves:    2654
 k-point ** :   0.3929 0.2500 0.4643  plane waves:    2650
 k-point ** :   0.4643 0.2500 0.4643  plane waves:    2662
 k-point ** :   0.3214 0.3214 0.4643  plane waves:    2653
 k-point ** :   0.3929 0.3214 0.4643  plane waves:    2656
 k-point ** :   0.4643 0.3214 0.4643  plane waves:    2653
 k-point ** :   0.3929 0.3929 0.4643  plane waves:    2650
 k-point ** :   0.4643 0.3929 0.4643  plane waves:    2647
 k-point ** :   0.4643 0.4643 0.4643  plane waves:    2636

 maximum and minimum number of plane-waves per node :      2681     2636

 maximum number of plane-waves:      2681
 maximum index in each direction: 
   IXMAX=    8   IYMAX=    8   IZMAX=    8
   IXMIN=   -9   IYMIN=   -9   IZMIN=   -9


 serial   3D FFT for wavefunctions
 parallel 3D FFT for charge:
    minimum data exchange during FFTs selected (reduces bandwidth)


 total amount of memory used by VASP MPI-rank0    75760. kBytes
=======================================================================

   base      :      30000. kBytes
   nonl-proj :      34062. kBytes
   fftplans  :        905. kBytes
   grid      :       2114. kBytes
   one-center:         24. kBytes
   wavefun   :       8655. kBytes
 
     INWAV:  cpu time    0.0000: real time    0.0000
 Broyden mixing: mesh for mixing (old mesh)
   NGX = 17   NGY = 17   NGZ = 17
  (NGX  = 48   NGY  = 48   NGZ  = 48)
  gives a total of   4913 points

 initial charge density was supplied:
 charge density of overlapping atoms calculated
 number of electron      32.0000000 magnetization 
 keeping initial charge density in first step


--------------------------------------------------------------------------------------------------------


 Maximum index for augmentation-charges          753 (set IRDMAX)


--------------------------------------------------------------------------------------------------------


 First call to EWALD:  gamma=   0.497
 Maximum number of real-space cells 3x 3x 3
 Maximum number of reciprocal cells 3x 3x 3

    FEWALD:  cpu time    0.0020: real time    0.0105


--------------------------------------- Iteration      1(   1)  ---------------------------------------


    POTLOK:  cpu time    0.0160: real time    0.0396
    SETDIJ:  cpu time    0.0150: real time    0.0211
     EDDAV:  cpu time    3.1125: real time    3.2037
       DOS:  cpu time    0.0030: real time    0.0136
    --------------------------------------------
      LOOP:  cpu time    3.1465: real time    3.2781

 eigenvalue-minimisations  :  9408
 total energy-change (2. order) : 0.1021496E+03  (-0.2597047E+04)
 number of electron      32.0000000 magnetization 
 augmentation part       32.0000000 magnetization 

 Free energy of the ion-electron system (eV)
  ---------------------------------------------------
  alpha Z        PSCENC =        77.39365637
  Ewald energy   TEWEN  =     -1392.28343758
  -Hartree energ DENC   =       -69.89440365
  -exchange      EXHF   =         0.00000000
  -V(xc)+E(xc)   XCENC  =        62.21085680
  PAW double counting   =       914.77613359     -872.73161751
  entropy T*S    EENTRO =        -0.00106372
  eigenvalues    EBANDS =       205.46673451
  atomic energy  EATOM  =      1177.21277265
  Solvation  Ediel_sol  =         0.00000000
  ---------------------------------------------------
  free energy    TOTEN  =       102.14963147 eV

  energy without entropy =      102.15069519  energy(sigma->0) =      102.15016333


--------------------------------------------------------------------------------------------------------




--------------------------------------- Iteration      1(   2)  ---------------------------------------


     EDDAV:  cpu time    5.3092: real time    5.3382
       DOS:  cpu time    0.0010: real time    0.0010
    --------------------------------------------
      LOOP:  cpu time    5.3102: real time    5.3391

 eigenvalue-minimisations  : 15120
 total energy-change (2. order) :-0.1746796E+03  (-0.1716048E+03)
 number of electron      32.0000000 magnetization 
 augmentation part       32.0000000 magnetization 

 Free energy of the ion-electron system (eV)
  ---------------------------------------------------
  alpha Z        PSCENC =        77.39365637
  Ewald energy   TEWEN  =     -1392.28343758
  -Hartree energ DENC   =       -69.89440365
  -exchange      EXHF   =         0.00000000
  -V(xc)+E(xc)   XCENC  =        62.21085680
  PAW double counting   =       914.77613359     -872.73161751
  entropy T*S    EENTRO =        -0.00000000
  eigenvalues    EBANDS =        30.78606019
  atomic energy  EATOM  =      1177.21277265
  Solvation  Ediel_sol  =         0.00000000
  ---------------------------------------------------
  free energy    TOTEN  =       -72.52997913 eV

  energy without entropy =      -72.52997913  energy(sigma->0) =      -72.52997913


--------------------------------------------------------------------------------------------------------




--------------------------------------- Iteration      1(   3)  ---------------------------------------


     EDDAV:  cpu time    3.6744: real time    3.6893
       DOS:  cpu time    0.0010: real time    0.0009
    --------------------------------------------
      LOOP:  cpu time    3.6754: real time    3.6902

 eigenvalue-minimisations  : 10800
 total energy-change (2. order) :-0.2782679E+01  (-0.2782679E+01)
 number of electron      32.0000000 magnetization 
 augmentation part       32.0000000 magnetization 

 Free energy of the ion-electron system (eV)
  ---------------------------------------------------
  alpha Z        PSCENC =        77.39365637
  Ewald energy   TEWEN  =     -1392.28343758
  -Hartree energ DENC   =       -69.89440365
  -exchange      EXHF   =         0.00000000
  -V(xc)+E(xc)   XCENC  =        62.21085680
  PAW double counting   =       914.77613359     -872.73161751
  entropy T*S    EENTRO =        -0.00000000
  eigenvalues    EBANDS =        28.00338154
  atomic energy  EATOM  =      1177.21277265
  Solvation  Ediel_sol  =         0.00000000
  ---------------------------------------------------
  free energy    TOTEN  =       -75.31265779 eV

  energy without entropy =      -75.31265779  energy(sigma->0) =      -75.31265779


--------------------------------------------------------------------------------------------------------




--------------------------------------- Iteration      1(   4)  ---------------------------------------


     EDDAV:  cpu time    6.7240: real time    6.7505
       DOS:  cpu time    0.0010: real time    0.0010
    --------------------------------------------
      LOOP:  cpu time    6.7250: real time    6.7515

 eigenvalue-minimisations  : 17832
 total energy-change (2. order) :-0.1864328E-01  (-0.1864328E-01)
 number of electron      32.0000000 magnetization 
 augmentation part       32.0000000 magnetization 

 Free energy of the ion-electron system (eV)
  ---------------------------------------------------
  alpha Z        PSCENC =        77.39365637
  Ewald energy   TEWEN  =     -1392.28343758
  -Hartree energ DENC   =       -69.89440365
  -exchange      EXHF   =         0.00000000
  -V(xc)+E(xc)   XCENC  =        62.21085680
  PAW double counting   =       914.77613359     -872.73161751
  entropy T*S    EENTRO =        -0.00000000
  eigenvalues    EBANDS =        27.98473826
  atomic energy  EATOM  =      1177.21277265
  Solvation  Ediel_sol  =         0.00000000
  ---------------------------------------------------
  free energy    TOTEN  =       -75.33130107 eV

  energy without entropy =      -75.33130107  energy(sigma->0) =      -75.33130107


--------------------------------------------------------------------------------------------------------




--------------------------------------- Iteration      1(   5)  ---------------------------------------


     EDDAV:  cpu time    3.5645: real time    3.5841
       DOS:  cpu time    0.0010: real time    0.0010
    CHARGE:  cpu time    0.1560: real time    0.1866
    MIXING:  cpu time    0.0030: real time    0.0122
    --------------------------------------------
      LOOP:  cpu time    3.7244: real time    3.7839

 eigenvalue-minimisations  : 10512
 total energy-change (2. order) :-0.2549273E-05  (-0.2549166E-05)
 number of electron      32.0000000 magnetization 
 augmentation part       -0.0684880 magnetization 

 Broyden mixing:
  rms(total) = 0.16659E+01    rms(broyden)= 0.16658E+01
  rms(prec ) = 0.26393E+01
  weight for this iteration     100.00

 Free energy of the ion-electron system (eV)
  ---------------------------------------------------
  alpha Z        PSCENC =        77.39365637
  Ewald energy   TEWEN  =     -1392.28343758
  -Hartree energ DENC   =       -69.89440365
  -exchange      EXHF   =         0.00000000
  -V(xc)+E(xc)   XCENC  =        62.21085680
  PAW double counting   =       914.77613359     -872.73161751
  entropy T*S    EENTRO =        -0.00000000
  eigenvalues    EBANDS =        27.98473571
  atomic energy  EATOM  =      1177.21277265
  Solvation  Ediel_sol  =         0.00000000
  ---------------------------------------------------
  free energy    TOTEN  =       -75.33130362 eV

  energy without entropy =      -75.33130362  energy(sigma->0) =      -75.33130362


--------------------------------------------------------------------------------------------------------




--------------------------------------- Iteration      1(   6)  ---------------------------------------


    POTLOK:  cpu time    0.0060: real time    0.0117
    SETDIJ:  cpu time    0.0030: real time    0.0035
     EDDAV:  cpu time    3.7424: real time    3.7495
       DOS:  cpu time    0.0010: real time    0.0010
    CHARGE:  cpu time    0.1510: real time    0.1512
    MIXING:  cpu time    0.0030: real time    0.0159
    --------------------------------------------
      LOOP:  cpu time    3.9064: real time    3.9328

 eigenvalue-minimisations  : 11064
 total energy-change (2. order) : 0.1863413E+01  (-0.1402567E+00)
 number of electron      32.0000000 magnetization 
 augmentation part       -0.0712692 magnetization 

 Broyden mixing:
  rms(total) = 0.10949E+01    rms(broyden)= 0.10949E+01
  rms(prec ) = 0.15560E+01
  weight for this iteration     100.00

 eigenvalues of (default mixing * dielectric matrix)
  average eigenvalue GAMMA=   2.7446
  2.7446

 Free energy of the ion-electron system (eV)
  ---------------------------------------------------
  alpha Z        PSCENC =        77.39365637
  Ewald energy   TEWEN  =     -1392.28343758
  -Hartree energ DENC   =       -85.13609446
  -exchange      EXHF   =         0.00000000
  -V(xc)+E(xc)   XCENC  =        63.47181116
  PAW double counting   =      3732.42027824    -3690.74097400
  entropy T*S    EENTRO =        -0.00000000
  eigenvalues    EBANDS =        44.19409679
  atomic energy  EATOM  =      1177.21277265
[...]
     11       6.3125      2.00000
     12       6.5365      2.00000
     13       6.6104      2.00000
     14       6.8802      2.00000
     15       7.7380      2.00000
     16       8.4575      2.00000
     17      18.3477      0.00000
     18      18.5675      0.00000
     19      18.5991      0.00000
     20      19.2968      0.00000
     21      20.1280      0.00000
     22      20.3108      0.00000
     23      20.6589      0.00000
     24      21.1354      0.00000

 k-point   185 :       0.3929    0.1786    0.4643
  band No.  band energies     occupation 
      1      -6.9166      2.00000
      2      -6.3041      2.00000
      3      -5.1267      2.00000
      4      -4.6001      2.00000
      5      -0.7015      2.00000
      6      -0.1984      2.00000
      7       0.9202      2.00000
      8       1.5081      2.00000
      9       4.5833      2.00000
     10       4.9771      2.00000
     11       5.8914      2.00000
     12       6.4154      2.00000
     13       7.2211      2.00000
     14       7.2691      2.00000
     15       7.8955      2.00000
     16       8.4939      2.00000
     17      18.5326      0.00000
     18      19.1704      0.00000
     19      19.1751      0.00000
     20      19.3175      0.00000
     21      19.6923      0.00000
     22      19.9641      0.00000
     23      20.2374      0.00000
     24      21.1452      0.00000

 k-point   186 :       0.4643    0.1786    0.4643
  band No.  band energies     occupation 
      1      -6.3903      2.00000
      2      -5.7937      2.00000
      3      -5.7898      2.00000
      4      -5.2189      2.00000
      5      -0.2611      2.00000
      6       0.2837      2.00000
      7       0.2868      2.00000
      8       0.8568      2.00000
      9       5.0082      2.00000
     10       5.4491      2.00000
     11       5.4495      2.00000
     12       5.9313      2.00000
     13       7.6537      2.00000
     14       7.8763      2.00000
     15       7.8835      2.00000
     16       8.3034      2.00000
     17      18.7250      0.00000
     18      19.1379      0.00000
     19      19.1426      0.00000
     20      19.2771      0.00000
     21      20.0201      0.00000
     22      20.2183      0.00000
     23      20.2880      0.00000
     24      20.9813      0.00000

 k-point   187 :       0.2500    0.2500    0.4643
  band No.  band energies     occupation 
      1      -7.4523      2.00000
      2      -6.8280      2.00000
      3      -3.7665      2.00000
      4      -3.7665      2.00000
      5      -1.3670      2.00000
      6      -1.3670      2.00000
      7       1.5513      2.00000
      8       2.1578      2.00000
      9       4.6456      2.00000
     10       4.6456      2.00000
     11       6.2591      2.00000
     12       6.2591      2.00000
     13       7.2233      2.00000
     14       7.2846      2.00000
     15       7.7024      2.00000
     16       8.1197      2.00000
     17      17.8701      0.00000
     18      18.1446      0.00000
     19      19.0170      0.00000
     20      19.0170      0.00000
     21      20.6016      0.00000
     22      20.6016      0.00000
     23      20.6122      0.00000
     24      20.6946      0.00000

 k-point   188 :       0.3214    0.2500    0.4643
  band No.  band energies     occupation 
      1      -7.0961      2.00000
      2      -6.4806      2.00000
      3      -4.3027      2.00000
      4      -4.0169      2.00000
      5      -1.5957      2.00000
      6      -1.3180      2.00000
      7       0.7702      2.00000
      8       1.3650      2.00000
      9       5.1647      2.00000
     10       5.3543      2.00000
     11       6.7795      2.00000
     12       6.8237      2.00000
     13       7.0127      2.00000
     14       7.5488      2.00000
     15       7.6662      2.00000
     16       8.3182      2.00000
     17      18.3434      0.00000
     18      18.6111      0.00000
     19      18.7639      0.00000
     20      19.1319      0.00000
     21      20.1400      0.00000
     22      20.1638      0.00000
     23      20.6079      0.00000
     24      20.7099      0.00000

 k-point   189 :       0.3929    0.2500    0.4643
  band No.  band energies     occupation 
      1      -6.6569      2.00000
      2      -6.0554      2.00000
      3      -4.9313      2.00000
      4      -4.4764      2.00000
      5      -1.4674      2.00000
      6      -1.0263      2.00000
      7       0.0549      2.00000
      8       0.6350      2.00000
      9       5.5961      2.00000
     10       5.9036      2.00000
     11       6.7118      2.00000
     12       7.2004      2.00000
     13       7.3581      2.00000
     14       7.3871      2.00000
     15       7.8974      2.00000
     16       8.4252      2.00000
     17      18.7075      0.00000
     18      18.9841      0.00000
     19      19.1917      0.00000
     20      19.1980      0.00000
     21      19.7234      0.00000
     22      19.9386      0.00000
     23      20.0322      0.00000
     24      20.5827      0.00000

 k-point   190 :       0.4643    0.2500    0.4643
  band No.  band energies     occupation 
      1      -6.1409      2.00000
      2      -5.5626      2.00000
      3      -5.5589      2.00000
      4      -5.0221      2.00000
      5      -1.0978      2.00000
      6      -0.5790      2.00000
      7      -0.5758      2.00000
      8      -0.0180      2.00000
      9       5.9917      2.00000
     10       6.3660      2.00000
     11       6.3696      2.00000
     12       6.7998      2.00000
     13       7.7451      2.00000
     14       7.9284      2.00000
     15       7.9311      2.00000
     16       8.2960      2.00000
     17      18.8828      0.00000
     18      19.2326      0.00000
     19      19.2392      0.00000
     20      19.3623      0.00000
     21      19.7643      0.00000
     22      19.8885      0.00000
     23      19.9724      0.00000
     24      20.5559      0.00000

 k-point   191 :       0.3214    0.3214    0.4643
  band No.  band energies     occupation 
      1      -6.7462      2.00000
      2      -6.1431      2.00000
      3      -4.2620      2.00000
      4      -4.2620      2.00000
      5      -1.8443      2.00000
      6      -1.8443      2.00000
      7      -0.0241      2.00000
      8       0.5593      2.00000
      9       6.0366      2.00000
     10       6.0366      2.00000
     11       7.1273      2.00000
     12       7.1273      2.00000
     13       7.5362      2.00000
     14       7.5634      2.00000
     15       7.9496      2.00000
     16       8.2005      2.00000
     17      18.5356      0.00000
     18      18.8069      0.00000
     19      18.9584      0.00000
     20      18.9584      0.00000
     21      20.1028      0.00000
     22      20.1427      0.00000
     23      20.1770      0.00000
     24      20.1770      0.00000

 k-point   192 :       0.3929    0.3214    0.4643
  band No.  band energies     occupation 
      1      -6.3177      2.00000
      2      -5.7359      2.00000
      3      -4.7235      2.00000
      4      -4.4305      2.00000
      5      -2.0081      2.00000
      6      -1.7213      2.00000
      7      -0.7378      2.00000
      8      -0.1739      2.00000
      9       6.5204      2.00000
     10       6.7018      2.00000
     11       7.3783      2.00000
     12       7.5310      2.00000
     13       7.5396      2.00000
     14       7.8077      2.00000
     15       7.8830      2.00000
     16       8.3250      2.00000
     17      18.9144      0.00000
     18      18.9305      0.00000
     19      19.1527      0.00000
     20      19.1541      0.00000
     21      19.7327      0.00000
     22      19.8289      0.00000
     23      20.0795      0.00000
     24      20.1094      0.00000

 k-point   193 :       0.4643    0.3214    0.4643
  band No.  band energies     occupation 
      1      -5.8205      2.00000
      2      -5.2781      2.00000
      3      -5.2746      2.00000
      4      -4.8119      2.00000
      5      -1.7997      2.00000
      6      -1.3480      2.00000
      7      -1.3450      2.00000
      8      -0.8175      2.00000
      9       6.8733      2.00000
     10       7.1537      2.00000
     11       7.1632      2.00000
     12       7.5172      2.00000
     13       7.8529      2.00000
     14       7.9791      2.00000
     15       7.9839      2.00000
     16       8.2738      2.00000
     17      19.0617      0.00000
     18      19.2956      0.00000
     19      19.3134      0.00000
     20      19.4329      0.00000
     21      19.5525      0.00000
     22      19.6550      0.00000
     23      19.7499      0.00000
     24      20.1394      0.00000

 k-point   194 :       0.3929    0.3929    0.4643
  band No.  band energies     occupation 
      1      -5.9081      2.00000
      2      -5.3638      2.00000
      3      -4.5955      2.00000
      4      -4.5955      2.00000
      5      -2.1803      2.00000
      6      -2.1803      2.00000
      7      -1.4286      2.00000
      8      -0.8983      2.00000
      9       7.2784      2.00000
     10       7.2784      2.00000
     11       7.7410      2.00000
     12       7.7410      2.00000
     13       7.7841      2.00000
     14       7.8837      2.00000
     15       8.1389      2.00000
     16       8.2142      2.00000
     17      19.0568      0.00000
     18      19.1276      0.00000
     19      19.1276      0.00000
     20      19.2395      0.00000
     21      19.6416      0.00000
     22      19.8447      0.00000
     23      19.8448      0.00000
     24      19.8610      0.00000

 k-point   195 :       0.4643    0.3929    0.4643
  band No.  band energies     occupation 
      1      -5.4473      2.00000
      2      -4.9807      2.00000
      3      -4.9780      2.00000
      4      -4.6805      2.00000
      5      -2.2646      2.00000
      6      -1.9723      2.00000
      7      -1.9698      2.00000
      8      -1.5130      2.00000
      9       7.5816      2.00000
     10       7.7329      2.00000
     11       7.7570      2.00000
     12       7.9666      2.00000
     13       8.0025      2.00000
     14       8.0168      2.00000
     15       8.0381      2.00000
     16       8.2323      2.00000
     17      19.2320      0.00000
     18      19.3115      0.00000
     19      19.3149      0.00000
     20      19.4107      0.00000
     21      19.4727      0.00000
     22      19.5882      0.00000
     23      19.6620      0.00000
     24      19.7871      0.00000

 k-point   196 :       0.4643    0.4643    0.4643
  band No.  band energies     occupation 
      1      -5.0632      2.00000
      2      -4.7641      2.00000
      3      -4.7630      2.00000
      4      -4.7630      2.00000
      5      -2.3524      2.00000
      6      -2.3524      2.00000
      7      -2.3513      2.00000
      8      -2.0572      2.00000
      9       7.9976      2.00000
     10       8.0286      2.00000
     11       8.0286      2.00000
     12       8.0867      2.00000
     13       8.0867      2.00000
     14       8.1167      2.00000
     15       8.1470      2.00000
     16       8.2067      2.00000
     17      19.3572      0.00000
     18      19.3572      0.00000
     19      19.3636      0.00000
     20      19.4013      0.00000
     21      19.4378      0.00000
     22      19.5375      0.00000
     23      19.5376      0.00000
     24      19.5618      0.00000


--------------------------------------------------------------------------------------------------------


 soft charge-density along one line, spin component           1
         0         1         2         3         4         5         6         7         8         9
 total charge-density along one line
 
 pseudopotential strength for first ion, spin component:           1
 12.166  20.461  -0.000   0.000  -0.000  -0.000   0.000  -0.000
 20.461  34.410  -0.000   0.000  -0.000  -0.000   0.000  -0.000
 -0.000  -0.000  -2.968   0.000   0.000  -5.303   0.000   0.000
  0.000   0.000   0.000  -2.968   0.000   0.000  -5.303   0.000
 -0.000  -0.000   0.000   0.000  -2.968   0.000   0.000  -5.303
 -0.000  -0.000  -5.303   0.000   0.000  -9.454   0.000   0.000
  0.000   0.000   0.000  -5.303   0.000   0.000  -9.454   0.000
 -0.000  -0.000   0.000   0.000  -5.303   0.000   0.000  -9.454
 total augmentation occupancy for first ion, spin component:           1
  7.252  -2.536   0.000  -0.000   0.000   0.000   0.000   0.000
 -2.536   0.942   0.000  -0.000   0.000   0.000   0.000  -0.000
  0.000   0.000   5.719   0.000   0.000  -1.855  -0.000   0.000
 -0.000   0.000   0.000   5.732  -0.000   0.000  -1.862   0.000
  0.000  -0.000   0.000  -0.000   5.719   0.000  -0.000  -1.855
  0.000   0.000  -1.855   0.000   0.000   0.620   0.000  -0.000
  0.000  -0.000   0.000  -1.862  -0.000  -0.000   0.622  -0.000
  0.000  -0.000   0.000  -0.000  -1.855  -0.000   0.000   0.620


------------------------ aborting loop because EDIFF is reached ----------------------------------------


    CHARGE:  cpu time    0.1520: real time    0.1512
    FORLOC:  cpu time    0.0010: real time    0.0030
    FORNL :  cpu time    0.4419: real time    0.4512
    STRESS:  cpu time    2.7686: real time    2.7817
    FORCOR:  cpu time    0.0040: real time    0.0100
    FORHAR:  cpu time    0.0020: real time    0.0035
    MIXING:  cpu time    0.0010: real time    0.0006
    OFIELD:  cpu time    0.0000: real time    0.0037

  FORCE on cell =-STRESS in cart. coord.  units (eV):
  Direction    XX          YY          ZZ          XY          YZ          ZX
  --------------------------------------------------------------------------------------
  Alpha Z    77.39366    77.39366    77.39366
  Ewald    -464.80575  -464.80575  -462.67432     0.00000    -0.00000    -0.00000
  Hartree    34.91805    34.91805    35.36615    -0.00000    -0.00000    -0.00000
  E(xc)    -132.24384  -132.24384  -132.22495     0.00000     0.00000    -0.00000
  Local    -125.43964  -125.43964  -127.82512    -0.00000     0.00000    -0.00000
  n-local    28.54883    28.32183    28.56974     0.58748     0.65325     0.51690
  augment     0.48303     0.48303     0.48202    -0.00000    -0.00000    -0.00000
  Kinetic   576.28031   587.69828   580.75882    -6.07515    -6.69079    -5.40807
  Fock        0.00000     0.00000     0.00000     0.00000     0.00000     0.00000
  -------------------------------------------------------------------------------------
  Total       0.73012     0.73012    -0.15399     0.00000     0.00000     0.00000
  in kB      25.80403    25.80403    -5.44230     0.00000     0.00000     0.00000
  external pressure =       15.39 kB  Pullay stress =        0.00 kB


 VOLUME and BASIS-vectors are now :
 -----------------------------------------------------------------------------
  energy-cutoff  :      875.00
  volume of cell :       45.33
      direct lattice vectors                 reciprocal lattice vectors
     3.561693054  0.000000000  0.000000000     0.280765351  0.000000000  0.000000000
     0.000000000  3.561693054  0.000000000     0.000000000  0.280765351  0.000000000
     0.000000000  0.000000000  3.573605071     0.000000000  0.000000000  0.279829466

  length of vectors
     3.561693054  3.561693054  3.573605071     0.280765351  0.280765351  0.279829466


 FORCES acting on ions
    electron-ion (+dipol)            ewald-force                    non-local-force                 convergence-correction
 -----------------------------------------------------------------------------------------------
   0.125E-13 0.213E-12 0.801E-14   -.355E-13 0.000E+00 0.142E-13   -.694E-17 -.139E-16 0.347E-17   -.789E-14 0.758E-15 -.922E-15
   -.199E-13 -.151E-14 -.294E-14   -.522E-14 0.700E-14 0.284E-13   -.139E-16 0.347E-17 0.139E-16   0.268E-14 -.542E-14 0.520E-15
   0.155E-13 0.251E-12 0.254E-13   -.213E-13 -.213E-13 0.711E-14   0.139E-16 -.278E-16 -.243E-16   -.745E-14 -.188E-15 0.101E-14
   -.299E-13 0.251E-13 0.195E-13   0.673E-14 -.142E-13 0.212E-13   0.416E-16 -.243E-16 0.694E-17   0.242E-14 -.714E-14 0.394E-14
   0.284E-13 -.178E-12 -.344E-12   -.142E-13 0.142E-13 -.213E-13   0.104E-16 0.312E-16 0.000E+00   -.472E-14 0.107E-14 0.479E-15
   0.249E-14 0.324E-14 -.736E-12   0.214E-13 0.224E-13 -.723E-14   -.139E-16 0.104E-16 -.104E-16   -.580E-14 -.537E-14 0.403E-14
   0.439E-13 -.524E-12 -.176E-13   0.711E-14 -.711E-14 -.284E-13   -.347E-17 -.104E-16 -.208E-16   -.459E-14 -.553E-16 -.116E-14
   0.209E-13 -.371E-12 -.407E-12   0.426E-13 0.802E-16 -.142E-13   -.139E-16 0.173E-16 -.104E-16   -.573E-14 -.662E-14 -.263E-15
 -----------------------------------------------------------------------------------------------
   0.738E-13 -.583E-12 -.145E-11   0.151E-14 0.105E-14 -.262E-15   0.139E-16 -.139E-16 -.416E-16   -.311E-13 -.230E-13 0.764E-14
 
 
 POSITION                                       TOTAL-FORCE (eV/Angst)
 -----------------------------------------------------------------------------------
      0.89042      0.89042      0.89340        -0.000000      0.000000      0.000000
      0.00000      0.00000      0.00000        -0.000000      0.000000     -0.000000
      0.89042      2.67127      2.68020        -0.000000     -0.000000      0.000000
      0.00000      1.78085      1.78680        -0.000000     -0.000000      0.000000
      2.67127      0.89042      2.68020         0.000000      0.000000     -0.000000
      1.78085      0.00000      1.78680         0.000000     -0.000000      0.000000
      2.67127      2.67127      0.89340         0.000000     -0.000000     -0.000000
      1.78085      1.78085      0.00000         0.000000     -0.000000     -0.000000
 -----------------------------------------------------------------------------------
    total drift:                                0.000000     -0.000000     -0.000000


--------------------------------------------------------------------------------------------------------



  FREE ENERGIE OF THE ION-ELECTRON SYSTEM (eV)
  ---------------------------------------------------
  free  energy   TOTEN  =       -72.84249433 eV

  energy  without entropy=      -72.84249433  energy(sigma->0) =      -72.84249433
 


--------------------------------------------------------------------------------------------------------


    POTLOK:  cpu time    0.0120: real time    0.0158


--------------------------------------------------------------------------------------------------------


 stress matrix after NEB project (eV)
      0.73012      0.00000      0.00000
      0.00000      0.73012      0.00000
      0.00000      0.00000     -0.15399
  FORCES: max atom, RMS     0.000000    0.000000
  FORCE total and by dimension    0.000000    0.000000
  Stress total and by dimension    1.043970    0.730124


--------------------------------------------------------------------------------------------------------


  
 reached required accuracy - stopping structural energy minimisation
     LOOP+:  cpu time   67.2698: real time   67.7823
    4ORBIT:  cpu time    0.0000: real time    0.0000

 total amount of memory used by VASP MPI-rank0    75760. kBytes
=======================================================================

   base      :      30000. kBytes
   nonl-proj :      34062. kBytes
   fftplans  :        905. kBytes
   grid      :       2114. kBytes
   one-center:         24. kBytes
   wavefun   :       8655. kBytes
 
  
  
 General timing and accounting informations for this job:
 ========================================================
  
                  Total CPU time used (sec):       70.748
                            User time (sec):       69.479
                          System time (sec):        1.269
                         Elapsed time (sec):       72.363
  
                   Maximum memory used (kb):      161456.
                   Average memory used (kb):           0.
  
                          Minor page faults:        40374
                          Major page faults:          415
                 Voluntary context switches:         8800
