 running on   24 total cores
 distrk:  each k-point on   24 cores,    1 groups
 distr:  one band on    1 cores,   24 groups
 using from now: INCAR     
 vasp.5.4.4.18Apr17-6-g9f103f2a35 (build Jan 14 2019 14:48:31) complex          
  
 POSCAR found type information on POSCAR  C 
 POSCAR found :  1 types and       8 ions
 scaLAPACK will be used

 ----------------------------------------------------------------------------- 
|                                                                             |
|           W    W    AA    RRRRR   N    N  II  N    N   GGGG   !!!           |
|           W    W   A  A   R    R  NN   N  II  NN   N  G    G  !!!           |
|           W    W  A    A  R    R  N N  N  II  N N  N  G       !!!           |
|           W WW W  AAAAAA  RRRRR   N  N N  II  N  N N  G  GGG   !            |
|           WW  WW  A    A  R   R   N   NN  II  N   NN  G    G                |
|           W    W  A    A  R    R  N    N  II  N    N   GGGG   !!!           |
|                                                                             |
|      For optimal performance we recommend to set                            |
|        NCORE= 4 - approx SQRT( number of cores)                             |
|      NCORE specifies how many cores store one orbital (NPAR=cpu/NCORE).     |
|      This setting can  greatly improve the performance of VASP for DFT.     |
|      The default,   NCORE=1            might be grossly inefficient         |
|      on modern multi-core architectures or massively parallel machines.     |
|      Do your own testing !!!!                                               |
|      Unfortunately you need to use the default for GW and RPA calculations. |
|      (for HF NCORE is supported but not extensively tested yet)             |
|                                                                             |
 ----------------------------------------------------------------------------- 

 WARNING: for PREC=h ENMAX is automatically increase by 25 %
        this was not the case for versions prior to vasp.4.4
 LDA part: xc-table for Pade appr. of Perdew
 POSCAR found type information on POSCAR  C 
 POSCAR found :  1 types and       8 ions
 POSCAR, INCAR and KPOINTS ok, starting setup
 FFT: planning ...
 WAVECAR not read
 entering main loop
       N       E                     dE             d eps       ncg     rms          rms(c)
DAV:   1     0.102149631469E+03    0.10215E+03   -0.25970E+04  9408   0.199E+03
DAV:   2    -0.725299791299E+02   -0.17468E+03   -0.17160E+03 15120   0.226E+02
DAV:   3    -0.753126577882E+02   -0.27827E+01   -0.27827E+01 10800   0.404E+01
DAV:   4    -0.753313010661E+02   -0.18643E-01   -0.18643E-01 17832   0.257E+00
DAV:   5    -0.753313036154E+02   -0.25493E-05   -0.25492E-05 10512   0.350E-02    0.167E+01
DAV:   6    -0.734678908156E+02    0.18634E+01   -0.14026E+00 11064   0.633E+00    0.109E+01
DAV:   7    -0.728439105796E+02    0.62398E+00   -0.18193E+00 13440   0.728E+00    0.233E+00
DAV:   8    -0.728421975504E+02    0.17130E-02   -0.24749E-02 15360   0.120E+00    0.120E-01
DAV:   9    -0.728423705850E+02   -0.17303E-03   -0.45716E-04 13368   0.142E-01    0.613E-02
DAV:  10    -0.728424927995E+02   -0.12221E-03   -0.11480E-04 14808   0.851E-02    0.482E-03
DAV:  11    -0.728424939714E+02   -0.11719E-05   -0.17021E-06 14448   0.103E-02    0.293E-03
DAV:  12    -0.728424943191E+02   -0.34773E-06   -0.64314E-08 14232   0.231E-03    0.152E-04
DAV:  13    -0.728424943279E+02   -0.88367E-08   -0.11714E-10 14520   0.849E-05
   1 F= -.72842494E+02 E0= -.72842494E+02  d E =-.728425E+02
 curvature:   0.00 expect dE= 0.000E+00 dE for cont linesearch  0.000E+00
 trial: gam= 0.00000 g(F)=  0.263E-59 g(S)=  0.000E+00 ort = 0.000E+00 (trialstep = 0.100E+01)
 search vector abs. value=  0.100E-09
 reached required accuracy - stopping structural energy minimisation
