<?xml version="1.0" encoding="ISO-8859-1"?>
<modeling>
 <generator>
  <i name="program" type="string">vasp </i>
  <i name="version" type="string">5.4.4.18Apr17-6-g9f103f2a35  </i>
  <i name="subversion" type="string">(build Jan 14 2019 14:48:31) complex            parallel </i>
  <i name="platform" type="string">LinuxIFC </i>
  <i name="date" type="string">2019 08 26 </i>
  <i name="time" type="string">21:11:35 </i>
 </generator>
 <incar>
  <i type="int" name="ISTART">     0</i>
  <i type="string" name="PREC">high     (precision level)</i>
  <i type="logical" name="ADDGRID"> T  </i>
  <i type="int" name="NELM">    40</i>
  <i type="int" name="NELMIN">     4</i>
  <i type="int" name="IBRION">     2</i>
  <i name="EDIFF">      0.00000001</i>
  <i name="EDIFFG">     -0.01000000</i>
  <i type="int" name="NSW">   100</i>
  <i type="int" name="ISIF">     2</i>
  <i type="logical" name="LREAL"> F  </i>
  <i type="int" name="ISMEAR">     0</i>
  <i name="SIGMA">      0.05000000</i>
  <i type="logical" name="LWAVE"> F  </i>
  <i type="logical" name="LCHARG"> F  </i>
  <v type="int" name="KPOINT_BSE">    -1     0     0     0</v>
  <i type="int" name="NELM">    40</i>
 </incar>
 <structure name="primitive_cell" >
  <crystal>
   <varray name="basis" >
    <v>       0.00000000      -1.78084653       1.78680254 </v>
    <v>       0.00000000       1.78084653       1.78680254 </v>
    <v>      -1.78084653       0.00000000      -1.78680254 </v>
   </varray>
   <i name="volume">     11.33338241 </i>
   <varray name="rec_basis" >
    <v>      -0.28076535      -0.28076535       0.27982947 </v>
    <v>      -0.28076535       0.28076535       0.27982947 </v>
    <v>      -0.56153070       0.00000000       0.00000000 </v>
   </varray>
  </crystal>
  <varray name="positions" >
   <v>      -0.25000000       0.25000000      -0.50000000 </v>
   <v>       0.00000000       0.00000000       0.00000000 </v>
  </varray>
 </structure>
 <varray name="primitive_index" >
  <v type="int" >        1 </v>
  <v type="int" >        2 </v>
 </varray>
 <kpoints>
  <generation param="Monkhorst-Pack">
   <v type="int" name="divisions">      14       14       14 </v>
   <v name="usershift">      0.00000000       0.00000000       0.00000000 </v>
   <v name="genvec1">      0.07142857       0.00000000       0.00000000 </v>
   <v name="genvec2">      0.00000000       0.07142857       0.00000000 </v>
   <v name="genvec3">      0.00000000       0.00000000       0.07142857 </v>
   <v name="shift">      0.50000000       0.50000000       0.50000000 </v>
  </generation>
  <varray name="kpointlist" >
   <v>       0.03571429       0.03571429       0.03571429 </v>
   <v>       0.10714286       0.03571429       0.03571429 </v>
   <v>       0.17857143       0.03571429       0.03571429 </v>
   <v>       0.25000000       0.03571429       0.03571429 </v>
   <v>       0.32142857       0.03571429       0.03571429 </v>
   <v>       0.39285714       0.03571429       0.03571429 </v>
   <v>       0.46428571       0.03571429       0.03571429 </v>
   <v>       0.10714286       0.10714286       0.03571429 </v>
   <v>       0.17857143       0.10714286       0.03571429 </v>
   <v>       0.25000000       0.10714286       0.03571429 </v>
   <v>       0.32142857       0.10714286       0.03571429 </v>
   <v>       0.39285714       0.10714286       0.03571429 </v>
   <v>       0.46428571       0.10714286       0.03571429 </v>
   <v>       0.17857143       0.17857143       0.03571429 </v>
   <v>       0.25000000       0.17857143       0.03571429 </v>
   <v>       0.32142857       0.17857143       0.03571429 </v>
   <v>       0.39285714       0.17857143       0.03571429 </v>
   <v>       0.46428571       0.17857143       0.03571429 </v>
   <v>       0.25000000       0.25000000       0.03571429 </v>
   <v>       0.32142857       0.25000000       0.03571429 </v>
   <v>       0.39285714       0.25000000       0.03571429 </v>
   <v>       0.46428571       0.25000000       0.03571429 </v>
   <v>       0.32142857       0.32142857       0.03571429 </v>
   <v>       0.39285714       0.32142857       0.03571429 </v>
   <v>       0.46428571       0.32142857       0.03571429 </v>
   <v>       0.39285714       0.39285714       0.03571429 </v>
   <v>       0.46428571       0.39285714       0.03571429 </v>
   <v>       0.46428571       0.46428571       0.03571429 </v>
   <v>       0.03571429       0.03571429       0.10714286 </v>
   <v>       0.10714286       0.03571429       0.10714286 </v>
   <v>       0.17857143       0.03571429       0.10714286 </v>
   <v>       0.25000000       0.03571429       0.10714286 </v>
   <v>       0.32142857       0.03571429       0.10714286 </v>
   <v>       0.39285714       0.03571429       0.10714286 </v>
   <v>       0.46428571       0.03571429       0.10714286 </v>
   <v>       0.10714286       0.10714286       0.10714286 </v>
   <v>       0.17857143       0.10714286       0.10714286 </v>
   <v>       0.25000000       0.10714286       0.10714286 </v>
   <v>       0.32142857       0.10714286       0.10714286 </v>
   <v>       0.39285714       0.10714286       0.10714286 </v>
   <v>       0.46428571       0.10714286       0.10714286 </v>
   <v>       0.17857143       0.17857143       0.10714286 </v>
   <v>       0.25000000       0.17857143       0.10714286 </v>
   <v>       0.32142857       0.17857143       0.10714286 </v>
   <v>       0.39285714       0.17857143       0.10714286 </v>
   <v>       0.46428571       0.17857143       0.10714286 </v>
   <v>       0.25000000       0.25000000       0.10714286 </v>
   <v>       0.32142857       0.25000000       0.10714286 </v>
   <v>       0.39285714       0.25000000       0.10714286 </v>
   <v>       0.46428571       0.25000000       0.10714286 </v>
   <v>       0.32142857       0.32142857       0.10714286 </v>
   <v>       0.39285714       0.32142857       0.10714286 </v>
   <v>       0.46428571       0.32142857       0.10714286 </v>
   <v>       0.39285714       0.39285714       0.10714286 </v>
   <v>       0.46428571       0.39285714       0.10714286 </v>
   <v>       0.46428571       0.46428571       0.10714286 </v>
   <v>       0.03571429       0.03571429       0.17857143 </v>
   <v>       0.10714286       0.03571429       0.17857143 </v>
   <v>       0.17857143       0.03571429       0.17857143 </v>
   <v>       0.25000000       0.03571429       0.17857143 </v>
   <v>       0.32142857       0.03571429       0.17857143 </v>
   <v>       0.39285714       0.03571429       0.17857143 </v>
   <v>       0.46428571       0.03571429       0.17857143 </v>
   <v>       0.10714286       0.10714286       0.17857143 </v>
   <v>       0.17857143       0.10714286       0.17857143 </v>
   <v>       0.25000000       0.10714286       0.17857143 </v>
   <v>       0.32142857       0.10714286       0.17857143 </v>
   <v>       0.39285714       0.10714286       0.17857143 </v>
   <v>       0.46428571       0.10714286       0.17857143 </v>
   <v>       0.17857143       0.17857143       0.17857143 </v>
   <v>       0.25000000       0.17857143       0.17857143 </v>
   <v>       0.32142857       0.17857143       0.17857143 </v>
   <v>       0.39285714       0.17857143       0.17857143 </v>
   <v>       0.46428571       0.17857143       0.17857143 </v>
   <v>       0.25000000       0.25000000       0.17857143 </v>
   <v>       0.32142857       0.25000000       0.17857143 </v>
   <v>       0.39285714       0.25000000       0.17857143 </v>
   <v>       0.46428571       0.25000000       0.17857143 </v>
   <v>       0.32142857       0.32142857       0.17857143 </v>
   <v>       0.39285714       0.32142857       0.17857143 </v>
   <v>       0.46428571       0.32142857       0.17857143 </v>
   <v>       0.39285714       0.39285714       0.17857143 </v>
   <v>       0.46428571       0.39285714       0.17857143 </v>
   <v>       0.46428571       0.46428571       0.17857143 </v>
   <v>       0.03571429       0.03571429       0.25000000 </v>
   <v>       0.10714286       0.03571429       0.25000000 </v>
   <v>       0.17857143       0.03571429       0.25000000 </v>
   <v>       0.25000000       0.03571429       0.25000000 </v>
   <v>       0.32142857       0.03571429       0.25000000 </v>
   <v>       0.39285714       0.03571429       0.25000000 </v>
   <v>       0.46428571       0.03571429       0.25000000 </v>
   <v>       0.10714286       0.10714286       0.25000000 </v>
   <v>       0.17857143       0.10714286       0.25000000 </v>
   <v>       0.25000000       0.10714286       0.25000000 </v>
   <v>       0.32142857       0.10714286       0.25000000 </v>
   <v>       0.39285714       0.10714286       0.25000000 </v>
   <v>       0.46428571       0.10714286       0.25000000 </v>
   <v>       0.17857143       0.17857143       0.25000000 </v>
   <v>       0.25000000       0.17857143       0.25000000 </v>
   <v>       0.32142857       0.17857143       0.25000000 </v>
   <v>       0.39285714       0.17857143       0.25000000 </v>
   <v>       0.46428571       0.17857143       0.25000000 </v>
   <v>       0.25000000       0.25000000       0.25000000 </v>
   <v>       0.32142857       0.25000000       0.25000000 </v>
   <v>       0.39285714       0.25000000       0.25000000 </v>
   <v>       0.46428571       0.25000000       0.25000000 </v>
   <v>       0.32142857       0.32142857       0.25000000 </v>
   <v>       0.39285714       0.32142857       0.25000000 </v>
   <v>       0.46428571       0.32142857       0.25000000 </v>
   <v>       0.39285714       0.39285714       0.25000000 </v>
   <v>       0.46428571       0.39285714       0.25000000 </v>
   <v>       0.46428571       0.46428571       0.25000000 </v>
   <v>       0.03571429       0.03571429       0.32142857 </v>
   <v>       0.10714286       0.03571429       0.32142857 </v>
   <v>       0.17857143       0.03571429       0.32142857 </v>
   <v>       0.25000000       0.03571429       0.32142857 </v>
   <v>       0.32142857       0.03571429       0.32142857 </v>
   <v>       0.39285714       0.03571429       0.32142857 </v>
   <v>       0.46428571       0.03571429       0.32142857 </v>
   <v>       0.10714286       0.10714286       0.32142857 </v>
   <v>       0.17857143       0.10714286       0.32142857 </v>
   <v>       0.25000000       0.10714286       0.32142857 </v>
   <v>       0.32142857       0.10714286       0.32142857 </v>
   <v>       0.39285714       0.10714286       0.32142857 </v>
   <v>       0.46428571       0.10714286       0.32142857 </v>
   <v>       0.17857143       0.17857143       0.32142857 </v>
   <v>       0.25000000       0.17857143       0.32142857 </v>
   <v>       0.32142857       0.17857143       0.32142857 </v>
   <v>       0.39285714       0.17857143       0.32142857 </v>
   <v>       0.46428571       0.17857143       0.32142857 </v>
   <v>       0.25000000       0.25000000       0.32142857 </v>
   <v>       0.32142857       0.25000000       0.32142857 </v>
   <v>       0.39285714       0.25000000       0.32142857 </v>
   <v>       0.46428571       0.25000000       0.32142857 </v>
   <v>       0.32142857       0.32142857       0.32142857 </v>
   <v>       0.39285714       0.32142857       0.32142857 </v>
   <v>       0.46428571       0.32142857       0.32142857 </v>
   <v>       0.39285714       0.39285714       0.32142857 </v>
   <v>       0.46428571       0.39285714       0.32142857 </v>
   <v>       0.46428571       0.46428571       0.32142857 </v>
   <v>       0.03571429       0.03571429       0.39285714 </v>
   <v>       0.10714286       0.03571429       0.39285714 </v>
   <v>       0.17857143       0.03571429       0.39285714 </v>
   <v>       0.25000000       0.03571429       0.39285714 </v>
   <v>       0.32142857       0.03571429       0.39285714 </v>
   <v>       0.39285714       0.03571429       0.39285714 </v>
   <v>       0.46428571       0.03571429       0.39285714 </v>
   <v>       0.10714286       0.10714286       0.39285714 </v>
   <v>       0.17857143       0.10714286       0.39285714 </v>
   <v>       0.25000000       0.10714286       0.39285714 </v>
   <v>       0.32142857       0.10714286       0.39285714 </v>
   <v>       0.39285714       0.10714286       0.39285714 </v>
   <v>       0.46428571       0.10714286       0.39285714 </v>
   <v>       0.17857143       0.17857143       0.39285714 </v>
   <v>       0.25000000       0.17857143       0.39285714 </v>
   <v>       0.32142857       0.17857143       0.39285714 </v>
   <v>       0.39285714       0.17857143       0.39285714 </v>
   <v>       0.46428571       0.17857143       0.39285714 </v>
   <v>       0.25000000       0.25000000       0.39285714 </v>
   <v>       0.32142857       0.25000000       0.39285714 </v>
   <v>       0.39285714       0.25000000       0.39285714 </v>
   <v>       0.46428571       0.25000000       0.39285714 </v>
   <v>       0.32142857       0.32142857       0.39285714 </v>
   <v>       0.39285714       0.32142857       0.39285714 </v>
   <v>       0.46428571       0.32142857       0.39285714 </v>
   <v>       0.39285714       0.39285714       0.39285714 </v>
   <v>       0.46428571       0.39285714       0.39285714 </v>
   <v>       0.46428571       0.46428571       0.39285714 </v>
   <v>       0.03571429       0.03571429       0.46428571 </v>
   <v>       0.10714286       0.03571429       0.46428571 </v>
   <v>       0.17857143       0.03571429       0.46428571 </v>
   <v>       0.25000000       0.03571429       0.46428571 </v>
   <v>       0.32142857       0.03571429       0.46428571 </v>
   <v>       0.39285714       0.03571429       0.46428571 </v>
   <v>       0.46428571       0.03571429       0.46428571 </v>
   <v>       0.10714286       0.10714286       0.46428571 </v>
   <v>       0.17857143       0.10714286       0.46428571 </v>
   <v>       0.25000000       0.10714286       0.46428571 </v>
   <v>       0.32142857       0.10714286       0.46428571 </v>
   <v>       0.39285714       0.10714286       0.46428571 </v>
   <v>       0.46428571       0.10714286       0.46428571 </v>
   <v>       0.17857143       0.17857143       0.46428571 </v>
   <v>       0.25000000       0.17857143       0.46428571 </v>
   <v>       0.32142857       0.17857143       0.46428571 </v>
   <v>       0.39285714       0.17857143       0.46428571 </v>
   <v>       0.46428571       0.17857143       0.46428571 </v>
   <v>       0.25000000       0.25000000       0.46428571 </v>
   <v>       0.32142857       0.25000000       0.46428571 </v>
   <v>       0.39285714       0.25000000       0.46428571 </v>
   <v>       0.46428571       0.25000000       0.46428571 </v>
   <v>       0.32142857       0.32142857       0.46428571 </v>
   <v>       0.39285714       0.32142857       0.46428571 </v>
   <v>       0.46428571       0.32142857       0.46428571 </v>
   <v>       0.39285714       0.39285714       0.46428571 </v>
   <v>       0.46428571       0.39285714       0.46428571 </v>
   <v>       0.46428571       0.46428571       0.46428571 </v>
  </varray>
  <varray name="weights" >
   <v>       0.00291545 </v>
   <v>       0.00583090 </v>
   <v>       0.00583090 </v>
   <v>       0.00583090 </v>
   <v>       0.00583090 </v>
   <v>       0.00583090 </v>
   <v>       0.00583090 </v>
   <v>       0.00291545 </v>
   <v>       0.00583090 </v>
   <v>       0.00583090 </v>
   <v>       0.00583090 </v>
   <v>       0.00583090 </v>
   <v>       0.00583090 </v>
   <v>       0.00291545 </v>
   <v>       0.00583090 </v>
   <v>       0.00583090 </v>
   <v>       0.00583090 </v>
   <v>       0.00583090 </v>
   <v>       0.00291545 </v>
   <v>       0.00583090 </v>
   <v>       0.00583090 </v>
   <v>       0.00583090 </v>
   <v>       0.00291545 </v>
   <v>       0.00583090 </v>
   <v>       0.00583090 </v>
   <v>       0.00291545 </v>
   <v>       0.00583090 </v>
   <v>       0.00291545 </v>
   <v>       0.00291545 </v>
   <v>       0.00583090 </v>
   <v>       0.00583090 </v>
   <v>       0.00583090 </v>
   <v>       0.00583090 </v>
   <v>       0.00583090 </v>
   <v>       0.00583090 </v>
   <v>       0.00291545 </v>
   <v>       0.00583090 </v>
   <v>       0.00583090 </v>
   <v>       0.00583090 </v>
   <v>       0.00583090 </v>
   <v>       0.00583090 </v>
   <v>       0.00291545 </v>
   <v>       0.00583090 </v>
   <v>       0.00583090 </v>
   <v>       0.00583090 </v>
   <v>       0.00583090 </v>
   <v>       0.00291545 </v>
   <v>       0.00583090 </v>
   <v>       0.00583090 </v>
   <v>       0.00583090 </v>
   <v>       0.00291545 </v>
   <v>       0.00583090 </v>
   <v>       0.00583090 </v>
   <v>       0.00291545 </v>
   <v>       0.00583090 </v>
   <v>       0.00291545 </v>
   <v>       0.00291545 </v>
   <v>       0.00583090 </v>
   <v>       0.00583090 </v>
   <v>       0.00583090 </v>
   <v>       0.00583090 </v>
   <v>       0.00583090 </v>
   <v>       0.00583090 </v>
   <v>       0.00291545 </v>
   <v>       0.00583090 </v>
   <v>       0.00583090 </v>
   <v>       0.00583090 </v>
   <v>       0.00583090 </v>
   <v>       0.00583090 </v>
   <v>       0.00291545 </v>
   <v>       0.00583090 </v>
   <v>       0.00583090 </v>
   <v>       0.00583090 </v>
   <v>       0.00583090 </v>
   <v>       0.00291545 </v>
   <v>       0.00583090 </v>
   <v>       0.00583090 </v>
   <v>       0.00583090 </v>
   <v>       0.00291545 </v>
   <v>       0.00583090 </v>
   <v>       0.00583090 </v>
   <v>       0.00291545 </v>
   <v>       0.00583090 </v>
   <v>       0.00291545 </v>
   <v>       0.00291545 </v>
   <v>       0.00583090 </v>
   <v>       0.00583090 </v>
   <v>       0.00583090 </v>
   <v>       0.00583090 </v>
   <v>       0.00583090 </v>
   <v>       0.00583090 </v>
   <v>       0.00291545 </v>
   <v>       0.00583090 </v>
   <v>       0.00583090 </v>
   <v>       0.00583090 </v>
   <v>       0.00583090 </v>
   <v>       0.00583090 </v>
   <v>       0.00291545 </v>
   <v>       0.00583090 </v>
   <v>       0.00583090 </v>
   <v>       0.00583090 </v>
   <v>       0.00583090 </v>
   <v>       0.00291545 </v>
   <v>       0.00583090 </v>
   <v>       0.00583090 </v>
   <v>       0.00583090 </v>
   <v>       0.00291545 </v>
   <v>       0.00583090 </v>
   <v>       0.00583090 </v>
   <v>       0.00291545 </v>
   <v>       0.00583090 </v>
   <v>       0.00291545 </v>
   <v>       0.00291545 </v>
   <v>       0.00583090 </v>
   <v>       0.00583090 </v>
   <v>       0.00583090 </v>
   <v>       0.00583090 </v>
   <v>       0.00583090 </v>
   <v>       0.00583090 </v>
   <v>       0.00291545 </v>
   <v>       0.00583090 </v>
   <v>       0.00583090 </v>
   <v>       0.00583090 </v>
   <v>       0.00583090 </v>
   <v>       0.00583090 </v>
   <v>       0.00291545 </v>
   <v>       0.00583090 </v>
   <v>       0.00583090 </v>
   <v>       0.00583090 </v>
   <v>       0.00583090 </v>
   <v>       0.00291545 </v>
   <v>       0.00583090 </v>
   <v>       0.00583090 </v>
   <v>       0.00583090 </v>
   <v>       0.00291545 </v>
   <v>       0.00583090 </v>
   <v>       0.00583090 </v>
   <v>       0.00291545 </v>
   <v>       0.00583090 </v>
   <v>       0.00291545 </v>
   <v>       0.00291545 </v>
   <v>       0.00583090 </v>
   <v>       0.00583090 </v>
   <v>       0.00583090 </v>
   <v>       0.00583090 </v>
   <v>       0.00583090 </v>
   <v>       0.00583090 </v>
   <v>       0.00291545 </v>
   <v>       0.00583090 </v>
   <v>       0.00583090 </v>
   <v>       0.00583090 </v>
   <v>       0.00583090 </v>
   <v>       0.00583090 </v>
   <v>       0.00291545 </v>
   <v>       0.00583090 </v>
   <v>       0.00583090 </v>
   <v>       0.00583090 </v>
   <v>       0.00583090 </v>
   <v>       0.00291545 </v>
   <v>       0.00583090 </v>
   <v>       0.00583090 </v>
   <v>       0.00583090 </v>
   <v>       0.00291545 </v>
   <v>       0.00583090 </v>
   <v>       0.00583090 </v>
   <v>       0.00291545 </v>
   <v>       0.00583090 </v>
   <v>       0.00291545 </v>
   <v>       0.00291545 </v>
   <v>       0.00583090 </v>
   <v>       0.00583090 </v>
   <v>       0.00583090 </v>
   <v>       0.00583090 </v>
   <v>       0.00583090 </v>
   <v>       0.00583090 </v>
   <v>       0.00291545 </v>
   <v>       0.00583090 </v>
   <v>       0.00583090 </v>
   <v>       0.00583090 </v>
   <v>       0.00583090 </v>
   <v>       0.00583090 </v>
   <v>       0.00291545 </v>
   <v>       0.00583090 </v>
   <v>       0.00583090 </v>
   <v>       0.00583090 </v>
   <v>       0.00583090 </v>
   <v>       0.00291545 </v>
   <v>       0.00583090 </v>
   <v>       0.00583090 </v>
   <v>       0.00583090 </v>
   <v>       0.00291545 </v>
   <v>       0.00583090 </v>
   <v>       0.00583090 </v>
   <v>       0.00291545 </v>
   <v>       0.00583090 </v>
   <v>       0.00291545 </v>
  </varray>
 </kpoints>
 <parameters>
  <separator name="general" >
   <i type="string" name="SYSTEM">unknown system</i>
   <i type="logical" name="LCOMPAT"> F  </i>
  </separator>
  <separator name="electronic" >
   <i type="string" name="PREC">high</i>
   <i name="ENMAX">    875.00000000</i>
   <i name="ENAUG">    946.76800000</i>
   <i name="EDIFF">      0.00000001</i>
   <i type="int" name="IALGO">    38</i>
   <i type="int" name="IWAVPR">    11</i>
   <i type="int" name="NBANDS">    24</i>
   <i name="NELECT">     32.00000000</i>
   <i type="int" name="TURBO">     0</i>
   <i type="int" name="IRESTART">     0</i>
   <i type="int" name="NREBOOT">     0</i>
   <i type="int" name="NMIN">     0</i>
   <i name="EREF">      0.00000000</i>
   <separator name="electronic smearing" >
    <i type="int" name="ISMEAR">     0</i>
    <i name="SIGMA">      0.05000000</i>
    <i name="KSPACING">      0.50000000</i>
    <i type="logical" name="KGAMMA"> T  </i>
   </separator>
   <separator name="electronic projectors" >
    <i type="logical" name="LREAL"> F  </i>
    <v name="ROPT">      0.00000000</v>
    <i type="int" name="LMAXPAW">  -100</i>
    <i type="int" name="LMAXMIX">     2</i>
    <i type="logical" name="NLSPLINE"> F  </i>
   </separator>
   <separator name="electronic startup" >
    <i type="int" name="ISTART">     0</i>
    <i type="int" name="ICHARG">     2</i>
    <i type="int" name="INIWAV">     1</i>
   </separator>
   <separator name="electronic spin" >
    <i type="int" name="ISPIN">     1</i>
    <i type="logical" name="LNONCOLLINEAR"> F  </i>
    <v name="MAGMOM">      1.00000000      1.00000000      1.00000000      1.00000000      1.00000000      1.00000000      1.00000000      1.00000000</v>
    <i name="NUPDOWN">     -1.00000000</i>
    <i type="logical" name="LSORBIT"> F  </i>
    <v name="SAXIS">      0.00000000      0.00000000      1.00000000</v>
    <i type="logical" name="LSPIRAL"> F  </i>
    <v name="QSPIRAL">      0.00000000      0.00000000      0.00000000</v>
    <i type="logical" name="LZEROZ"> F  </i>
   </separator>
   <separator name="electronic exchange-correlation" >
    <i type="logical" name="LASPH"> F  </i>
    <i type="logical" name="LMETAGGA"> F  </i>
   </separator>
   <separator name="electronic convergence" >
    <i type="int" name="NELM">    40</i>
    <i type="int" name="NELMDL">    -5</i>
    <i type="int" name="NELMIN">     4</i>
    <i name="ENINI">    875.00000000</i>
    <separator name="electronic convergence detail" >
     <i type="logical" name="LDIAG"> T  </i>
     <i type="logical" name="LSUBROT"> F  </i>
     <i name="WEIMIN">      0.00100000</i>
     <i name="EBREAK">      0.00000000</i>
     <i name="DEPER">      0.30000000</i>
     <i type="int" name="NRMM">     4</i>
     <i name="TIME">      0.40000000</i>
    </separator>
   </separator>
   <separator name="electronic mixer" >
    <i name="AMIX">      0.40000000</i>
    <i name="BMIX">      1.00000000</i>
    <i name="AMIN">      0.10000000</i>
    <i name="AMIX_MAG">      1.60000000</i>
    <i name="BMIX_MAG">      1.00000000</i>
    <separator name="electronic mixer details" >
     <i type="int" name="IMIX">     4</i>
     <i type="logical" name="MIXFIRST"> F  </i>
     <i type="int" name="MAXMIX">   -45</i>
     <i name="WC">    100.00000000</i>
     <i type="int" name="INIMIX">     1</i>
     <i type="int" name="MIXPRE">     1</i>
     <i type="int" name="MREMOVE">     5</i>
    </separator>
   </separator>
   <separator name="electronic dipolcorrection" >
    <i type="logical" name="LDIPOL"> F  </i>
    <i type="logical" name="LMONO"> F  </i>
    <i type="int" name="IDIPOL">     0</i>
    <i name="EPSILON">      1.00000000</i>
    <v name="DIPOL">   -100.00000000   -100.00000000   -100.00000000</v>
    <i name="EFIELD">      0.00000000</i>
   </separator>
  </separator>
  <separator name="grids" >
   <i type="int" name="NGX">    36</i>
   <i type="int" name="NGY">    36</i>
   <i type="int" name="NGZ">    36</i>
   <i type="int" name="NGXF">    48</i>
   <i type="int" name="NGYF">    48</i>
   <i type="int" name="NGZF">    48</i>
   <i type="logical" name="ADDGRID"> T  </i>
  </separator>
  <separator name="ionic" >
   <i type="int" name="NSW">   100</i>
   <i type="int" name="IBRION">     2</i>
   <i type="int" name="MDALGO">     0</i>
   <i type="int" name="ISIF">     2</i>
   <i name="PSTRESS">      0.00000000</i>
   <i name="EDIFFG">     -0.01000000</i>
   <i type="int" name="NFREE">     1</i>
   <i name="POTIM">      0.50000000</i>
   <i name="SMASS">     -3.00000000</i>
   <i name="SCALEE">      1.00000000</i>
  </separator>
  <separator name="ionic md" >
   <i name="TEBEG">      0.00010000</i>
   <i name="TEEND">      0.00010000</i>
   <i type="int" name="NBLOCK">     1</i>
   <i type="int" name="KBLOCK">   100</i>
   <i type="int" name="NPACO">   256</i>
   <i name="APACO">     16.00000000</i>
  </separator>
  <separator name="symmetry" >
   <i type="int" name="ISYM">     2</i>
   <i name="SYMPREC">      0.00001000</i>
  </separator>
  <separator name="dos" >
   <i type="int" name="LORBIT">     0</i>
   <v name="RWIGS">     -1.00000000</v>
   <i type="int" name="NEDOS">   301</i>
   <i name="EMIN">     10.00000000</i>
   <i name="EMAX">    -10.00000000</i>
   <i name="EFERMI">      0.00000000</i>
  </separator>
  <separator name="writing" >
   <i type="int" name="NWRITE">     2</i>
   <i type="logical" name="LWAVE"> F  </i>
   <i type="logical" name="LDOWNSAMPLE"> F  </i>
   <i type="logical" name="LCHARG"> F  </i>
   <i type="logical" name="LPARD"> F  </i>
   <i type="logical" name="LVTOT"> F  </i>
   <i type="logical" name="LVHAR"> F  </i>
   <i type="logical" name="LELF"> F  </i>
   <i type="logical" name="LOPTICS"> F  </i>
   <v name="STM">      0.00000000      0.00000000      0.00000000      0.00000000      0.00000000      0.00000000      0.00000000</v>
  </separator>
  <separator name="performance" >
   <i type="int" name="NPAR">    24</i>
   <i type="int" name="NSIM">     4</i>
   <i type="int" name="NBLK">    -1</i>
   <i type="logical" name="LPLANE"> T  </i>
   <i type="logical" name="LSCALAPACK"> T  </i>
   <i type="logical" name="LSCAAWARE"> F  </i>
   <i type="logical" name="LSCALU"> F  </i>
   <i type="logical" name="LASYNC"> F  </i>
   <i type="logical" name="LORBITALREAL"> F  </i>
  </separator>
  <separator name="miscellaneous" >
   <i type="int" name="IDIOT">     3</i>
   <i type="int" name="ISPECIAL">     0</i>
   <i type="logical" name="LMUSIC"> F  </i>
   <v name="POMASS">     12.01100000</v>
   <v name="DARWINR">      0.00000000</v>
   <v name="DARWINV">      1.00000000</v>
   <i type="logical" name="LCORR"> T  </i>
  </separator>
  <i type="logical" name="GGA_COMPAT"> T  </i>
  <i type="logical" name="LBERRY"> F  </i>
  <i type="int" name="ICORELEVEL">     0</i>
  <i type="logical" name="LDAU"> F  </i>
  <i type="int" name="I_CONSTRAINED_M">     0</i>
  <separator name="electronic exchange-correlation" >
   <i type="string" name="GGA">--</i>
   <i type="int" name="VOSKOWN">     0</i>
   <i type="logical" name="LHFCALC"> F  </i>
   <i type="string" name="PRECFOCK"></i>
   <i type="logical" name="LSYMGRAD"> F  </i>
   <i type="logical" name="LHFONE"> F  </i>
   <i type="logical" name="LRHFCALC"> F  </i>
   <i type="logical" name="LTHOMAS"> F  </i>
   <i type="logical" name="LMODELHF"> F  </i>
   <i name="ENCUT4O">     -1.00000000</i>
   <i type="int" name="EXXOEP">     0</i>
   <i type="int" name="FOURORBIT">     0</i>
   <i name="AEXX">      0.00000000</i>
   <i name="HFALPHA">      0.00000000</i>
   <i name="MCALPHA">      0.00000000</i>
   <i name="ALDAX">      1.00000000</i>
   <i name="AGGAX">      1.00000000</i>
   <i name="ALDAC">      1.00000000</i>
   <i name="AGGAC">      1.00000000</i>
   <i type="int" name="NKREDX">     1</i>
   <i type="int" name="NKREDY">     1</i>
   <i type="int" name="NKREDZ">     1</i>
   <i type="logical" name="SHIFTRED"> F  </i>
   <i type="logical" name="ODDONLY"> F  </i>
   <i type="logical" name="EVENONLY"> F  </i>
   <i type="int" name="LMAXFOCK">     0</i>
   <i type="int" name="NMAXFOCKAE">     0</i>
   <i type="logical" name="LFOCKAEDFT"> F  </i>
   <i name="HFSCREEN">      0.00000000</i>
   <i name="HFSCREENC">      0.00000000</i>
   <i type="int" name="NBANDSGWLOW">     0</i>
  </separator>
  <separator name="vdW DFT" >
   <i type="logical" name="LUSE_VDW"> F  </i>
   <i name="Zab_VDW">     -0.84910000</i>
   <i name="PARAM1">      0.12340000</i>
   <i name="PARAM2">      1.00000000</i>
   <i name="PARAM3">      0.00000000</i>
  </separator>
  <separator name="model GW" >
   <i type="int" name="MODEL_GW">     0</i>
   <i name="MODEL_EPS0">      3.40001472</i>
   <i name="MODEL_ALPHA">      1.00000000</i>
  </separator>
  <separator name="linear response parameters" >
   <i type="logical" name="LEPSILON"> F  </i>
   <i type="logical" name="LRPA"> F  </i>
   <i type="logical" name="LNABLA"> F  </i>
   <i type="logical" name="LVEL"> F  </i>
   <i type="int" name="KINTER">     0</i>
   <i name="CSHIFT">      0.10000000</i>
   <i name="OMEGAMAX">     -1.00000000</i>
   <i name="DEG_THRESHOLD">      0.00200000</i>
   <i name="RTIME">     -0.10000000</i>
   <i name="WPLASMAI">      0.00000000</i>
   <v name="DFIELD">      0.00000000      0.00000000      0.00000000</v>
   <v name="WPLASMA">      0.00000000      0.00000000      0.00000000      0.00000000      0.00000000      0.00000000      0.00000000      0.00000000      0.00000000</v>
  </separator>
  <separator name="orbital magnetization" >
   <i type="logical" name="NUCIND"> F  </i>
   <v name="MAGPOS">      0.00000000      0.00000000      0.00000000</v>
   <i type="logical" name="LNICSALL"> T  </i>
   <i type="logical" name="ORBITALMAG"> F  </i>
   <i type="logical" name="LMAGBLOCH"> F  </i>
   <i type="logical" name="LCHIMAG"> F  </i>
   <i type="logical" name="LGAUGE"> T  </i>
   <i type="int" name="MAGATOM">     0</i>
   <v name="MAGDIPOL">      0.00000000      0.00000000      0.00000000</v>
   <v name="AVECCONST">      0.00000000      0.00000000      0.00000000</v>
  </separator>
  <separator name="response functions" >
   <i type="logical" name="LADDER"> F  </i>
   <i type="logical" name="LRPAFORCE"> F  </i>
   <i type="logical" name="LFXC"> F  </i>
   <i type="logical" name="LHARTREE"> T  </i>
   <i type="int" name="IBSE">     0</i>
   <v type="int" name="KPOINT">    -1     0     0     0</v>
   <i type="logical" name="LTCTE"> F  </i>
   <i type="logical" name="LTETE"> F  </i>
   <i type="logical" name="LTRIPLET"> F  </i>
   <i type="logical" name="LFXCEPS"> F  </i>
   <i type="logical" name="LFXHEG"> F  </i>
   <i type="int" name="NATURALO">     2</i>
   <i type="logical" name="L2ORDER"> F  </i>
   <i type="logical" name="LMP2LT"> F  </i>
   <i type="logical" name="LUSEW"> F  </i>
   <i name="ENCUTGW">     -2.00000000</i>
   <i name="ENCUTGWSOFT">     -2.00000000</i>
   <i name="ENCUTLF">     -1.00000000</i>
   <i type="int" name="LMAXMP2">    -1</i>
   <i name="SCISSOR">      0.00000000</i>
   <i type="int" name="NOMEGA">     0</i>
   <i type="int" name="NOMEGAR">     0</i>
   <i type="int" name="NBANDSGW">    -1</i>
   <i type="int" name="NBANDSO">    -1</i>
   <i type="int" name="NBANDSV">    -1</i>
   <i type="int" name="NELM">    40</i>
   <i type="int" name="NELMHF">     1</i>
   <i type="int" name="DIM">     3</i>
   <i type="int" name="ANTIRES">     0</i>
   <i name="OMEGAMAX">    -30.00000000</i>
   <i name="OMEGAMIN">    -30.00000000</i>
   <i name="OMEGATL">   -200.00000000</i>
   <i type="int" name="OMEGAGRID">   140</i>
   <i name="CSHIFT">     -0.10000000</i>
   <i type="logical" name="SELFENERGY"> F  </i>
   <i type="logical" name="LSPECTRAL"> F  </i>
   <i type="logical" name="LSPECTRALGW"> F  </i>
   <i type="logical" name="LSINGLES"> F  </i>
   <i type="logical" name="LFERMIGW"> F  </i>
   <i type="logical" name="ODDONLYGW"> F  </i>
   <i type="logical" name="EVENONLYGW"> F  </i>
   <i type="int" name="NKREDLFX">     1</i>
   <i type="int" name="NKREDLFY">     1</i>
   <i type="int" name="NKREDLFZ">     1</i>
   <i type="int" name="MAXMEM">  2800</i>
   <i type="int" name="TELESCOPE">     0</i>
   <i type="int" name="TAUPAR">     1</i>
   <i type="int" name="OMEGAPAR">    -1</i>
   <i name="LAMBDA">      1.00000000</i>
  </separator>
  <separator name="External order field" >
   <i name="OFIELD_KAPPA">      0.00000000</i>
   <v name="OFIELD_K">      0.00000000      0.00000000      0.00000000</v>
   <i name="OFIELD_Q6_NEAR">      0.00000000</i>
   <i name="OFIELD_Q6_FAR">      0.00000000</i>
   <i name="OFIELD_A">      0.00000000</i>
  </separator>
 </parameters>
 <atominfo>
  <atoms>       8 </atoms>
  <types>       1 </types>
  <array name="atoms" >
   <dimension dim="1">ion</dimension>
   <field type="string">element</field>
   <field type="int">atomtype</field>
   <set>
    <rc><c>C </c><c>   1</c></rc>
    <rc><c>C </c><c>   1</c></rc>
    <rc><c>C </c><c>   1</c></rc>
    <rc><c>C </c><c>   1</c></rc>
    <rc><c>C </c><c>   1</c></rc>
    <rc><c>C </c><c>   1</c></rc>
    <rc><c>C </c><c>   1</c></rc>
    <rc><c>C </c><c>   1</c></rc>
   </set>
  </array>
  <array name="atomtypes" >
   <dimension dim="1">type</dimension>
   <field type="int">atomspertype</field>
   <field type="string">element</field>
   <field>mass</field>
   <field>valence</field>
   <field type="string">pseudopotential</field>
   <set>
    <rc><c>   8</c><c>C </c><c>     12.01100000</c><c>      4.00000000</c><c>  PAW_PBE C_h 06Feb2004                 </c></rc>
   </set>
  </array>
 </atominfo>
 <structure name="initialpos" >
  <crystal>
   <varray name="basis" >
    <v>       3.56169305       0.00000000       0.00000000 </v>
    <v>       0.00000000       3.56169305       0.00000000 </v>
    <v>       0.00000000       0.00000000       3.57360507 </v>
   </varray>
   <i name="volume">     45.33352965 </i>
   <varray name="rec_basis" >
    <v>       0.28076535       0.00000000       0.00000000 </v>
    <v>       0.00000000       0.28076535       0.00000000 </v>
    <v>       0.00000000       0.00000000       0.27982947 </v>
   </varray>
  </crystal>
  <varray name="positions" >
   <v>       0.25000000       0.25000000       0.25000000 </v>
   <v>       0.00000000       0.00000000       0.00000000 </v>
   <v>       0.25000000       0.75000000       0.75000000 </v>
   <v>       0.00000000       0.50000000       0.50000000 </v>
   <v>       0.75000000       0.25000000       0.75000000 </v>
   <v>       0.50000000       0.00000000       0.50000000 </v>
   <v>       0.75000000       0.75000000       0.25000000 </v>
   <v>       0.50000000       0.50000000       0.00000000 </v>
  </varray>
 </structure>
 <calculation>
  <scstep>
   <time name="dav">    3.11    3.20</time>
   <time name="total">    3.15    3.28</time>
   <energy>
    <i name="alphaZ">     77.39365637 </i>
    <i name="ewald">  -1392.28343758 </i>
    <i name="hartreedc">    -69.89440365 </i>
    <i name="XCdc">     62.21085680 </i>
    <i name="pawpsdc">    914.77613359 </i>
    <i name="pawaedc">   -872.73161751 </i>
    <i name="eentropy">     -0.00106372 </i>
    <i name="bandstr">    205.46673451 </i>
    <i name="atom">   1177.21277265 </i>
    <i name="e_fr_energy">    102.14963147 </i>
    <i name="e_wo_entrp">    102.15069519 </i>
    <i name="e_0_energy">    102.15016333 </i>
   </energy>
  </scstep>
  <scstep>
   <time name="dav">    5.31    5.34</time>
   <time name="total">    5.31    5.34</time>
   <energy>
    <i name="e_fr_energy">    -72.52997913 </i>
    <i name="e_wo_entrp">    -72.52997913 </i>
    <i name="e_0_energy">    -72.52997913 </i>
   </energy>
  </scstep>
  <scstep>
   <time name="dav">    3.67    3.69</time>
   <time name="total">    3.68    3.69</time>
   <energy>
    <i name="e_fr_energy">    -75.31265779 </i>
    <i name="e_wo_entrp">    -75.31265779 </i>
    <i name="e_0_energy">    -75.31265779 </i>
   </energy>
  </scstep>
  <scstep>
   <time name="dav">    6.72    6.75</time>
   <time name="total">    6.72    6.75</time>
   <energy>
    <i name="e_fr_energy">    -75.33130107 </i>
    <i name="e_wo_entrp">    -75.33130107 </i>
    <i name="e_0_energy">    -75.33130107 </i>
   </energy>
  </scstep>
  <scstep>
   <time name="dav">    3.56    3.58</time>
   <time name="total">    3.72    3.78</time>
   <energy>
    <i name="e_fr_energy">    -75.33130362 </i>
    <i name="e_wo_entrp">    -75.33130362 </i>
    <i name="e_0_energy">    -75.33130362 </i>
   </energy>
  </scstep>
  <scstep>
   <time name="dav">    3.74    3.75</time>
   <time name="total">    3.91    3.93</time>
   <energy>
    <i name="e_fr_energy">    -73.46789082 </i>
    <i name="e_wo_entrp">    -73.46789082 </i>
    <i name="e_0_energy">    -73.46789082 </i>
   </energy>
  </scstep>
  <scstep>
   <time name="dav">    4.70    4.71</time>
   <time name="total">    4.86    4.89</time>
   <energy>
    <i name="e_fr_energy">    -72.84391058 </i>
    <i name="e_wo_entrp">    -72.84391058 </i>
    <i name="e_0_energy">    -72.84391058 </i>
   </energy>
  </scstep>
  <scstep>
   <time name="dav">    5.61    5.62</time>
   <time name="total">    5.77    5.80</time>
   <energy>
    <i name="e_fr_energy">    -72.84219755 </i>
    <i name="e_wo_entrp">    -72.84219755 </i>
    <i name="e_0_energy">    -72.84219755 </i>
   </energy>
  </scstep>
  <scstep>
   <time name="dav">    4.78    4.79</time>
   <time name="total">    4.94    4.96</time>
   <energy>
    <i name="e_fr_energy">    -72.84237058 </i>
    <i name="e_wo_entrp">    -72.84237058 </i>
    <i name="e_0_energy">    -72.84237058 </i>
   </energy>
  </scstep>
  <scstep>
   <time name="dav">    5.42    5.43</time>
   <time name="total">    5.58    5.60</time>
   <energy>
    <i name="e_fr_energy">    -72.84249280 </i>
    <i name="e_wo_entrp">    -72.84249280 </i>
    <i name="e_0_energy">    -72.84249280 </i>
   </energy>
  </scstep>
  <scstep>
   <time name="dav">    5.25    5.26</time>
   <time name="total">    5.42    5.44</time>
   <energy>
    <i name="e_fr_energy">    -72.84249397 </i>
    <i name="e_wo_entrp">    -72.84249397 </i>
    <i name="e_0_energy">    -72.84249397 </i>
   </energy>
  </scstep>
  <scstep>
   <time name="dav">    5.17    5.18</time>
   <time name="total">    5.34    5.35</time>
   <energy>
    <i name="e_fr_energy">    -72.84249432 </i>
    <i name="e_wo_entrp">    -72.84249432 </i>
    <i name="e_0_energy">    -72.84249432 </i>
   </energy>
  </scstep>
  <scstep>
   <time name="dav">    5.29    5.30</time>
   <time name="total">    5.30    5.32</time>
   <energy>
    <i name="alphaZ">     77.39365637 </i>
    <i name="ewald">  -1392.28343758 </i>
    <i name="hartreedc">   -105.20222679 </i>
    <i name="XCdc">     65.25432716 </i>
    <i name="pawpsdc">  14704.04708077 </i>
    <i name="pawaedc"> -14662.53248683 </i>
    <i name="eentropy">     -0.00000000 </i>
    <i name="bandstr">     63.26781991 </i>
    <i name="atom">   1177.21277265 </i>
    <i name="e_fr_energy">    -72.84249433 </i>
    <i name="e_wo_entrp">    -72.84249433 </i>
    <i name="e_0_energy">    -72.84249433 </i>
   </energy>
  </scstep>
  <structure>
   <crystal>
    <varray name="basis" >
     <v>       3.56169305       0.00000000       0.00000000 </v>
     <v>       0.00000000       3.56169305       0.00000000 </v>
     <v>       0.00000000       0.00000000       3.57360507 </v>
    </varray>
    <i name="volume">     45.33352965 </i>
    <varray name="rec_basis" >
     <v>       0.28076535       0.00000000       0.00000000 </v>
     <v>       0.00000000       0.28076535       0.00000000 </v>
     <v>       0.00000000       0.00000000       0.27982947 </v>
    </varray>
   </crystal>
   <varray name="positions" >
    <v>       0.25000000       0.25000000       0.25000000 </v>
    <v>       0.00000000       0.00000000       0.00000000 </v>
    <v>       0.25000000       0.75000000       0.75000000 </v>
    <v>       0.00000000       0.50000000       0.50000000 </v>
    <v>       0.75000000       0.25000000       0.75000000 </v>
    <v>       0.50000000       0.00000000       0.50000000 </v>
    <v>       0.75000000       0.75000000       0.25000000 </v>
    <v>       0.50000000       0.50000000       0.00000000 </v>
   </varray>
  </structure>
  <varray name="forces" >
   <v>      -0.00000000       0.00000000       0.00000000 </v>
   <v>      -0.00000000       0.00000000      -0.00000000 </v>
   <v>      -0.00000000      -0.00000000       0.00000000 </v>
   <v>      -0.00000000      -0.00000000       0.00000000 </v>
   <v>       0.00000000       0.00000000      -0.00000000 </v>
   <v>       0.00000000      -0.00000000       0.00000000 </v>
   <v>       0.00000000      -0.00000000      -0.00000000 </v>
   <v>       0.00000000      -0.00000000      -0.00000000 </v>
  </varray>
  <varray name="stress" >
   <v>      25.80402657       0.00000000       0.00000000 </v>
   <v>       0.00000000      25.80402657       0.00000000 </v>
   <v>       0.00000000       0.00000000      -5.44230215 </v>
  </varray>
  <energy>
   <i name="e_fr_energy">    -72.84249433 </i>
   <i name="e_wo_entrp">    -72.84249433 </i>
   <i name="e_0_energy">     -0.00000000 </i>
  </energy>
  <time name="totalsc">   67.27   67.78</time>
  <eigenvalues>
   <array>
    <dimension dim="1">band</dimension>
    <dimension dim="2">kpoint</dimension>
    <dimension dim="3">spin</dimension>
    <field>eigene</field>
    <field>occ</field>
    <set>
     <set comment="spin 1">
      <set comment="kpoint 1">
       <r>  -10.4955    1.0000 </r>
       <r>   -2.3966    1.0000 </r>
       <r>   -2.3478    1.0000 </r>
       <r>   -2.3478    1.0000 </r>
       <r>   -1.2591    1.0000 </r>
       <r>   -1.2052    1.0000 </r>
       <r>   -1.2052    1.0000 </r>
       <r>    4.5242    1.0000 </r>
       <r>    4.5242    1.0000 </r>
       <r>    4.5724    1.0000 </r>
       <r>    4.6679    1.0000 </r>
       <r>    4.6679    1.0000 </r>
       <r>    4.7173    1.0000 </r>
       <r>   10.6970    1.0000 </r>
       <r>   10.8765    1.0000 </r>
       <r>   10.9075    1.0000 </r>
       <r>   15.6147    0.0000 </r>
       <r>   15.6147    0.0000 </r>
       <r>   15.6941    0.0000 </r>
       <r>   15.9986    0.0000 </r>
       <r>   15.9986    0.0000 </r>
       <r>   16.0756    0.0000 </r>
       <r>   16.6290    0.0000 </r>
       <r>   16.6501    0.0000 </r>
      </set>
      <set comment="kpoint 2">
       <r>  -10.4010    1.0000 </r>
       <r>   -3.4413    1.0000 </r>
       <r>   -2.3311    1.0000 </r>
       <r>   -2.2829    1.0000 </r>
       <r>   -1.2062    1.0000 </r>
       <r>   -1.1536    1.0000 </r>
       <r>   -0.0265    1.0000 </r>
       <r>    4.1973    1.0000 </r>
       <r>    4.2436    1.0000 </r>
       <r>    4.6022    1.0000 </r>
       <r>    4.6196    1.0000 </r>
       <r>    4.6518    1.0000 </r>
       <r>    4.7599    1.0000 </r>
       <r>   10.2430    1.0000 </r>
       <r>   10.5189    1.0000 </r>
       <r>   10.7853    1.0000 </r>
       <r>   15.3801    0.0000 </r>
       <r>   15.9040    0.0000 </r>
       <r>   15.9817    0.0000 </r>
       <r>   16.4533    0.0000 </r>
       <r>   16.4641    0.0000 </r>
       <r>   16.5418    0.0000 </r>
       <r>   16.5595    0.0000 </r>
       <r>   17.0817    0.0000 </r>
      </set>
      <set comment="kpoint 3">
       <r>  -10.2124    1.0000 </r>
       <r>   -4.4759    1.0000 </r>
       <r>   -2.2043    1.0000 </r>
       <r>   -2.1581    1.0000 </r>
       <r>   -1.1069    1.0000 </r>
       <r>   -1.0575    1.0000 </r>
       <r>    1.1733    1.0000 </r>
       <r>    3.7535    1.0000 </r>
       <r>    3.7967    1.0000 </r>
       <r>    4.3561    1.0000 </r>
       <r>    4.4048    1.0000 </r>
       <r>    4.8105    1.0000 </r>
       <r>    4.9430    1.0000 </r>
       <r>    9.6075    1.0000 </r>
       <r>    9.9227    1.0000 </r>
       <r>   10.4102    1.0000 </r>
       <r>   15.2327    0.0000 </r>
       <r>   16.4198    0.0000 </r>
       <r>   16.5177    0.0000 </r>
       <r>   16.5938    0.0000 </r>
       <r>   17.0406    0.0000 </r>
       <r>   17.2652    0.0000 </r>
       <r>   17.3431    0.0000 </r>
       <r>   17.8250    0.0000 </r>
      </set>
      <set comment="kpoint 4">
       <r>   -9.9301    1.0000 </r>
       <r>   -5.4432    1.0000 </r>
       <r>   -2.0268    1.0000 </r>
       <r>   -1.9839    1.0000 </r>
       <r>   -0.9764    1.0000 </r>
       <r>   -0.9326    1.0000 </r>
       <r>    2.3756    1.0000 </r>
       <r>    3.2725    1.0000 </r>
       <r>    3.3105    1.0000 </r>
       <r>    3.9979    1.0000 </r>
       <r>    4.0438    1.0000 </r>
       <r>    5.0978    1.0000 </r>
       <r>    5.2159    1.0000 </r>
       <r>    8.8845    1.0000 </r>
       <r>    9.2227    1.0000 </r>
       <r>    9.8307    1.0000 </r>
       <r>   15.1705    0.0000 </r>
       <r>   16.2319    0.0000 </r>
       <r>   17.4111    0.0000 </r>
       <r>   17.4856    0.0000 </r>
       <r>   17.7609    0.0000 </r>
       <r>   18.3008    0.0000 </r>
       <r>   18.3781    0.0000 </r>
       <r>   18.7454    0.0000 </r>
      </set>
      <set comment="kpoint 5">
       <r>   -9.5548    1.0000 </r>
       <r>   -6.3370    1.0000 </r>
       <r>   -1.8181    1.0000 </r>
       <r>   -1.7813    1.0000 </r>
       <r>   -0.8399    1.0000 </r>
       <r>   -0.8051    1.0000 </r>
       <r>    2.8318    1.0000 </r>
       <r>    2.8617    1.0000 </r>
       <r>    3.5571    1.0000 </r>
       <r>    3.6097    1.0000 </r>
       <r>    3.6497    1.0000 </r>
       <r>    5.4849    1.0000 </r>
       <r>    5.5764    1.0000 </r>
       <r>    8.1321    1.0000 </r>
       <r>    8.4990    1.0000 </r>
       <r>    9.0997    1.0000 </r>
       <r>   15.1849    0.0000 </r>
       <r>   16.0164    0.0000 </r>
       <r>   18.5086    0.0000 </r>
       <r>   18.5811    0.0000 </r>
       <r>   18.6169    0.0000 </r>
       <r>   19.4881    0.0000 </r>
       <r>   19.5640    0.0000 </r>
       <r>   19.7658    0.0000 </r>
      </set>
      <set comment="kpoint 6">
       <r>   -9.0876    1.0000 </r>
       <r>   -7.1519    1.0000 </r>
       <r>   -1.6144    1.0000 </r>
       <r>   -1.5878    1.0000 </r>
       <r>   -0.7310    1.0000 </r>
       <r>   -0.7092    1.0000 </r>
       <r>    2.5016    1.0000 </r>
       <r>    2.5202    1.0000 </r>
       <r>    3.2758    1.0000 </r>
       <r>    3.3046    1.0000 </r>
       <r>    4.6858    1.0000 </r>
       <r>    5.9814    1.0000 </r>
       <r>    6.0214    1.0000 </r>
       <r>    7.3741    1.0000 </r>
       <r>    7.7958    1.0000 </r>
       <r>    8.2677    1.0000 </r>
       <r>   15.2661    0.0000 </r>
       <r>   15.7940    0.0000 </r>
       <r>   19.6040    0.0000 </r>
       <r>   19.7238    0.0000 </r>
       <r>   19.7923    0.0000 </r>
       <r>   20.7321    0.0000 </r>
       <r>   20.8338    0.0000 </r>
       <r>   20.9196    0.0000 </r>
      </set>
      <set comment="kpoint 7">
       <r>   -8.5301    1.0000 </r>
       <r>   -7.8840    1.0000 </r>
       <r>   -1.4749    1.0000 </r>
       <r>   -1.4648    1.0000 </r>
       <r>   -0.6744    1.0000 </r>
       <r>   -0.6672    1.0000 </r>
       <r>    2.3315    1.0000 </r>
       <r>    2.3376    1.0000 </r>
       <r>    3.0815    1.0000 </r>
       <r>    3.0924    1.0000 </r>
       <r>    5.7115    1.0000 </r>
       <r>    6.5427    1.0000 </r>
       <r>    6.5920    1.0000 </r>
       <r>    6.6167    1.0000 </r>
       <r>    7.1385    1.0000 </r>
       <r>    7.4031    1.0000 </r>
       <r>   15.4032    0.0000 </r>
       <r>   15.5840    0.0000 </r>
       <r>   20.7011    0.0000 </r>
       <r>   20.8961    0.0000 </r>
       <r>   20.9466    0.0000 </r>
       <r>   21.7220    0.0000 </r>
       <r>   21.7558    0.0000 </r>
       <r>   21.8606    0.0000 </r>
      </set>
      <set comment="kpoint 8">
       <r>  -10.3067    1.0000 </r>
       <r>   -3.3674    1.0000 </r>
       <r>   -3.3674    1.0000 </r>
       <r>   -2.2713    1.0000 </r>
       <r>   -1.1571    1.0000 </r>
       <r>    0.0030    1.0000 </r>
       <r>    0.0030    1.0000 </r>
       <r>    3.7164    1.0000 </r>
       <r>    4.3008    1.0000 </r>
       <r>    4.3008    1.0000 </r>
       <r>    4.6991    1.0000 </r>
       <r>    4.6991    1.0000 </r>
       <r>    4.8742    1.0000 </r>
       <r>    9.6962    1.0000 </r>
       <r>   10.2278    1.0000 </r>
       <r>   10.7971    1.0000 </r>
       <r>   15.7290    0.0000 </r>
       <r>   15.7290    0.0000 </r>
       <r>   15.9381    0.0000 </r>
       <r>   16.8133    0.0000 </r>
       <r>   16.8552    0.0000 </r>
       <r>   16.8552    0.0000 </r>
       <r>   17.1785    0.0000 </r>
       <r>   17.2576    0.0000 </r>
      </set>
      <set comment="kpoint 9">
       <r>  -10.1183    1.0000 </r>
       <r>   -4.3958    1.0000 </r>
       <r>   -3.2223    1.0000 </r>
       <r>   -2.1596    1.0000 </r>
       <r>   -1.0656    1.0000 </r>
       <r>    0.0498    1.0000 </r>
       <r>    1.1668    1.0000 </r>
       <r>    3.1494    1.0000 </r>
       <r>    3.8669    1.0000 </r>
       <r>    4.4720    1.0000 </r>
       <r>    4.5092    1.0000 </r>
       <r>    4.8869    1.0000 </r>
       <r>    4.8948    1.0000 </r>
       <r>    9.0088    1.0000 </r>
       <r>    9.6620    1.0000 </r>
       <r>   10.5808    1.0000 </r>
       <r>   15.6025    0.0000 </r>
       <r>   16.2520    0.0000 </r>
       <r>   16.3969    0.0000 </r>
       <r>   16.7729    0.0000 </r>
       <r>   17.4138    0.0000 </r>
       <r>   17.5940    0.0000 </r>
       <r>   17.8163    0.0000 </r>
       <r>   18.0562    0.0000 </r>
      </set>
      <set comment="kpoint 10">
       <r>   -9.8363    1.0000 </r>
       <r>   -5.3591    1.0000 </r>
       <r>   -3.0125    1.0000 </r>
       <r>   -2.0162    1.0000 </r>
       <r>   -0.9446    1.0000 </r>
       <r>    0.0873    1.0000 </r>
       <r>    2.3081    1.0000 </r>
       <r>    2.6243    1.0000 </r>
       <r>    3.3923    1.0000 </r>
       <r>    4.1574    1.0000 </r>
       <r>    4.7189    1.0000 </r>
       <r>    4.8248    1.0000 </r>
       <r>    5.1957    1.0000 </r>
       <r>    8.2613    1.0000 </r>
       <r>    8.9833    1.0000 </r>
       <r>   10.1194    1.0000 </r>
       <r>   15.5512    0.0000 </r>
       <r>   16.6042    0.0000 </r>
       <r>   16.9110    0.0000 </r>
       <r>   17.3269    0.0000 </r>
       <r>   18.1115    0.0000 </r>
       <r>   18.5791    0.0000 </r>
       <r>   18.7206    0.0000 </r>
       <r>   18.8420    0.0000 </r>
      </set>
      <set comment="kpoint 11">
       <r>   -9.4614    1.0000 </r>
       <r>   -6.2499    1.0000 </r>
       <r>   -2.7496    1.0000 </r>
       <r>   -1.8837    1.0000 </r>
       <r>   -0.8061    1.0000 </r>
       <r>    0.0757    1.0000 </r>
       <r>    2.2225    1.0000 </r>
       <r>    2.9388    1.0000 </r>
       <r>    3.3864    1.0000 </r>
       <r>    3.8564    1.0000 </r>
       <r>    4.4370    1.0000 </r>
       <r>    5.2444    1.0000 </r>
       <r>    5.6216    1.0000 </r>
       <r>    7.4974    1.0000 </r>
       <r>    8.2732    1.0000 </r>
       <r>    9.4669    1.0000 </r>
       <r>   15.5718    0.0000 </r>
       <r>   16.3977    0.0000 </r>
       <r>   17.8436    0.0000 </r>
       <r>   18.4493    0.0000 </r>
       <r>   18.9457    0.0000 </r>
       <r>   19.7145    0.0000 </r>
       <r>   19.7357    0.0000 </r>
       <r>   19.7587    0.0000 </r>
      </set>
      <set comment="kpoint 12">
       <r>   -8.9949    1.0000 </r>
       <r>   -7.0627    1.0000 </r>
       <r>   -2.4546    1.0000 </r>
       <r>   -1.8355    1.0000 </r>
       <r>   -0.6431    1.0000 </r>
       <r>   -0.0229    1.0000 </r>
       <r>    2.0154    1.0000 </r>
       <r>    2.5421    1.0000 </r>
       <r>    3.6727    1.0000 </r>
       <r>    4.1184    1.0000 </r>
       <r>    4.3572    1.0000 </r>
       <r>    5.7473    1.0000 </r>
       <r>    6.2107    1.0000 </r>
       <r>    6.7383    1.0000 </r>
       <r>    7.5764    1.0000 </r>
       <r>    8.6829    1.0000 </r>
       <r>   15.6562    0.0000 </r>
       <r>   16.1808    0.0000 </r>
       <r>   18.9585    0.0000 </r>
       <r>   19.6842    0.0000 </r>
       <r>   19.9102    0.0000 </r>
       <r>   20.7387    0.0000 </r>
       <r>   20.8188    0.0000 </r>
       <r>   20.8492    0.0000 </r>
      </set>
      <set comment="kpoint 13">
       <r>   -8.4382    1.0000 </r>
       <r>   -7.7932    1.0000 </r>
       <r>   -2.1635    1.0000 </r>
       <r>   -1.9346    1.0000 </r>
       <r>   -0.4368    1.0000 </r>
       <r>   -0.2096    1.0000 </r>
       <r>    2.0285    1.0000 </r>
       <r>    2.2247    1.0000 </r>
       <r>    3.6703    1.0000 </r>
       <r>    3.8388    1.0000 </r>
       <r>    5.2083    1.0000 </r>
       <r>    5.9840    1.0000 </r>
       <r>    6.3067    1.0000 </r>
       <r>    6.9171    1.0000 </r>
       <r>    6.9704    1.0000 </r>
       <r>    7.8263    1.0000 </r>
       <r>   15.7943    0.0000 </r>
       <r>   15.9740    0.0000 </r>
       <r>   20.1304    0.0000 </r>
       <r>   20.7702    0.0000 </r>
       <r>   20.9829    0.0000 </r>
       <r>   21.4332    0.0000 </r>
       <r>   21.7611    0.0000 </r>
       <r>   21.9153    0.0000 </r>
      </set>
      <set comment="kpoint 14">
       <r>   -9.9302    1.0000 </r>
       <r>   -4.2377    1.0000 </r>
       <r>   -4.2377    1.0000 </r>
       <r>   -2.0878    1.0000 </r>
       <r>   -0.9880    1.0000 </r>
       <r>    1.1344    1.0000 </r>
       <r>    1.1344    1.0000 </r>
       <r>    2.5416    1.0000 </r>
       <r>    4.0927    1.0000 </r>
       <r>    4.0927    1.0000 </r>
       <r>    4.7154    1.0000 </r>
       <r>    4.7154    1.0000 </r>
       <r>    5.1829    1.0000 </r>
       <r>    8.2931    1.0000 </r>
       <r>    9.1279    1.0000 </r>
       <r>   10.5653    1.0000 </r>
       <r>   16.2540    0.0000 </r>
       <r>   16.2982    0.0000 </r>
       <r>   16.2982    0.0000 </r>
       <r>   17.1815    0.0000 </r>
       <r>   18.0049    0.0000 </r>
       <r>   18.1083    0.0000 </r>
       <r>   18.1083    0.0000 </r>
       <r>   18.4097    0.0000 </r>
      </set>
      <set comment="kpoint 15">
       <r>   -9.6489    1.0000 </r>
       <r>   -5.1919    1.0000 </r>
       <r>   -4.0053    1.0000 </r>
       <r>   -2.0330    1.0000 </r>
       <r>   -0.8763    1.0000 </r>
       <r>    1.0405    1.0000 </r>
       <r>    2.0598    1.0000 </r>
       <r>    2.1518    1.0000 </r>
       <r>    3.6215    1.0000 </r>
       <r>    4.4234    1.0000 </r>
       <r>    4.5023    1.0000 </r>
       <r>    5.1137    1.0000 </r>
       <r>    5.2696    1.0000 </r>
       <r>    7.5362    1.0000 </r>
       <r>    8.4751    1.0000 </r>
       <r>   10.2826    1.0000 </r>
       <r>   16.2612    0.0000 </r>
       <r>   16.6297    0.0000 </r>
       <r>   17.2098    0.0000 </r>
       <r>   17.2521    0.0000 </r>
       <r>   18.7242    0.0000 </r>
       <r>   18.7666    0.0000 </r>
       <r>   18.9470    0.0000 </r>
       <r>   19.0410    0.0000 </r>
      </set>
      <set comment="kpoint 16">
       <r>   -9.2750    1.0000 </r>
       <r>   -6.0765    1.0000 </r>
       <r>   -3.7062    1.0000 </r>
       <r>   -2.0710    1.0000 </r>
       <r>   -0.7135    1.0000 </r>
       <r>    0.8502    1.0000 </r>
       <r>    1.7837    1.0000 </r>
       <r>    3.0612    1.0000 </r>
       <r>    3.1383    1.0000 </r>
       <r>    4.3630    1.0000 </r>
       <r>    4.8393    1.0000 </r>
       <r>    5.1766    1.0000 </r>
       <r>    5.6998    1.0000 </r>
       <r>    6.7748    1.0000 </r>
       <r>    7.7853    1.0000 </r>
       <r>    9.7599    1.0000 </r>
       <r>   16.2887    0.0000 </r>
       <r>   17.0606    0.0000 </r>
       <r>   17.3398    0.0000 </r>
       <r>   18.3919    0.0000 </r>
       <r>   19.5601    0.0000 </r>
       <r>   19.6372    0.0000 </r>
       <r>   19.7091    0.0000 </r>
       <r>   20.0985    0.0000 </r>
      </set>
      <set comment="kpoint 17">
       <r>   -8.8097    1.0000 </r>
       <r>   -6.8849    1.0000 </r>
       <r>   -3.3526    1.0000 </r>
       <r>   -2.2615    1.0000 </r>
       <r>   -0.4716    1.0000 </r>
       <r>    0.5600    1.0000 </r>
       <r>    1.7493    1.0000 </r>
       <r>    2.6714    1.0000 </r>
       <r>    3.8595    1.0000 </r>
       <r>    4.3622    1.0000 </r>
       <r>    4.9687    1.0000 </r>
       <r>    5.3211    1.0000 </r>
       <r>    6.0286    1.0000 </r>
       <r>    6.4648    1.0000 </r>
       <r>    7.1043    1.0000 </r>
       <r>    9.0533    1.0000 </r>
       <r>   16.3743    0.0000 </r>
       <r>   16.8705    0.0000 </r>
       <r>   18.3036    0.0000 </r>
       <r>   19.6398    0.0000 </r>
       <r>   20.4378    0.0000 </r>
       <r>   20.4792    0.0000 </r>
       <r>   20.7871    0.0000 </r>
       <r>   20.9735    0.0000 </r>
      </set>
      <set comment="kpoint 18">
       <r>   -8.2548    1.0000 </r>
       <r>   -7.6122    1.0000 </r>
       <r>   -2.9658    1.0000 </r>
       <r>   -2.5826    1.0000 </r>
       <r>   -0.1529    1.0000 </r>
       <r>    0.2076    1.0000 </r>
       <r>    1.9265    1.0000 </r>
       <r>    2.2529    1.0000 </r>
       <r>    4.4965    1.0000 </r>
       <r>    4.5903    1.0000 </r>
       <r>    4.7190    1.0000 </r>
       <r>    5.3035    1.0000 </r>
       <r>    5.8616    1.0000 </r>
       <r>    6.4583    1.0000 </r>
       <r>    7.3362    1.0000 </r>
       <r>    8.2242    1.0000 </r>
       <r>   16.5087    0.0000 </r>
       <r>   16.6793    0.0000 </r>
       <r>   19.4132    0.0000 </r>
       <r>   20.4158    0.0000 </r>
       <r>   21.1502    0.0000 </r>
       <r>   21.3055    0.0000 </r>
       <r>   21.4926    0.0000 </r>
       <r>   21.8989    0.0000 </r>
      </set>
      <set comment="kpoint 19">
       <r>   -9.3685    1.0000 </r>
       <r>   -4.9446    1.0000 </r>
       <r>   -4.9446    1.0000 </r>
       <r>   -2.1508    1.0000 </r>
       <r>   -0.7489    1.0000 </r>
       <r>    1.7038    1.0000 </r>
       <r>    1.8845    1.0000 </r>
       <r>    1.8845    1.0000 </r>
       <r>    3.9395    1.0000 </r>
       <r>    3.9395    1.0000 </r>
       <r>    5.0635    1.0000 </r>
       <r>    5.0635    1.0000 </r>
       <r>    5.6323    1.0000 </r>
       <r>    6.7816    1.0000 </r>
       <r>    7.8462    1.0000 </r>
       <r>   10.1980    1.0000 </r>
       <r>   16.7018    0.0000 </r>
       <r>   17.2261    0.0000 </r>
       <r>   17.2261    0.0000 </r>
       <r>   17.7305    0.0000 </r>
       <r>   18.9784    0.0000 </r>
       <r>   19.1814    0.0000 </r>
       <r>   19.6428    0.0000 </r>
       <r>   19.6428    0.0000 </r>
      </set>
      <set comment="kpoint 20">
       <r>   -8.9961    1.0000 </r>
       <r>   -5.8189    1.0000 </r>
       <r>   -4.6218    1.0000 </r>
       <r>   -2.4262    1.0000 </r>
       <r>   -0.5318    1.0000 </r>
       <r>    1.5118    1.0000 </r>
       <r>    1.5996    1.0000 </r>
       <r>    2.6180    1.0000 </r>
       <r>    3.4181    1.0000 </r>
       <r>    4.3293    1.0000 </r>
       <r>    5.1023    1.0000 </r>
       <r>    5.7857    1.0000 </r>
       <r>    5.8259    1.0000 </r>
       <r>    6.0304    1.0000 </r>
       <r>    7.1767    1.0000 </r>
       <r>    9.8493    1.0000 </r>
       <r>   17.1353    0.0000 </r>
       <r>   17.2550    0.0000 </r>
       <r>   17.8416    0.0000 </r>
       <r>   18.3706    0.0000 </r>
       <r>   19.5693    0.0000 </r>
       <r>   19.7415    0.0000 </r>
       <r>   20.3660    0.0000 </r>
       <r>   20.5786    0.0000 </r>
      </set>
      <set comment="kpoint 21">
       <r>   -8.5329    1.0000 </r>
       <r>   -6.6199    1.0000 </r>
       <r>   -4.2315    1.0000 </r>
       <r>   -2.8355    1.0000 </r>
       <r>   -0.2196    1.0000 </r>
       <r>    1.0716    1.0000 </r>
       <r>    1.7222    1.0000 </r>
       <r>    2.8992    1.0000 </r>
       <r>    3.2849    1.0000 </r>
       <r>    4.7850    1.0000 </r>
       <r>    5.2318    1.0000 </r>
       <r>    5.3015    1.0000 </r>
       <r>    5.7593    1.0000 </r>
       <r>    6.5135    1.0000 </r>
       <r>    6.7140    1.0000 </r>
       <r>    9.2685    1.0000 </r>
       <r>   17.3340    0.0000 </r>
       <r>   17.7442    0.0000 </r>
       <r>   17.8836    0.0000 </r>
       <r>   19.6154    0.0000 </r>
       <r>   20.0982    0.0000 </r>
       <r>   20.7740    0.0000 </r>
       <r>   20.8836    0.0000 </r>
       <r>   21.1635    0.0000 </r>
      </set>
      <set comment="kpoint 22">
       <r>   -7.9808    1.0000 </r>
       <r>   -7.3420    1.0000 </r>
       <r>   -3.7864    1.0000 </r>
       <r>   -3.3087    1.0000 </r>
       <r>    0.1700    1.0000 </r>
       <r>    0.6109    1.0000 </r>
       <r>    2.0130    1.0000 </r>
       <r>    2.4190    1.0000 </r>
       <r>    3.9361    1.0000 </r>
       <r>    4.6037    1.0000 </r>
       <r>    5.3047    1.0000 </r>
       <r>    5.4187    1.0000 </r>
       <r>    5.6145    1.0000 </r>
       <r>    5.8840    1.0000 </r>
       <r>    7.6354    1.0000 </r>
       <r>    8.5097    1.0000 </r>
       <r>   17.4532    0.0000 </r>
       <r>   17.5978    0.0000 </r>
       <r>   18.8571    0.0000 </r>
       <r>   19.9119    0.0000 </r>
       <r>   20.7324    0.0000 </r>
       <r>   21.0222    0.0000 </r>
       <r>   21.3806    0.0000 </r>
       <r>   21.8894    0.0000 </r>
      </set>
      <set comment="kpoint 23">
       <r>   -8.6259    1.0000 </r>
       <r>   -5.4802    1.0000 </r>
       <r>   -5.4802    1.0000 </r>
       <r>   -2.9200    1.0000 </r>
       <r>   -0.2541    1.0000 </r>
       <r>    1.6512    1.0000 </r>
       <r>    2.1048    1.0000 </r>
       <r>    2.1048    1.0000 </r>
       <r>    3.7739    1.0000 </r>
       <r>    3.7739    1.0000 </r>
       <r>    5.2939    1.0000 </r>
       <r>    5.9920    1.0000 </r>
       <r>    5.9920    1.0000 </r>
       <r>    6.2042    1.0000 </r>
       <r>    6.5255    1.0000 </r>
       <r>    9.6917    1.0000 </r>
       <r>   17.2721    0.0000 </r>
       <r>   18.3924    0.0000 </r>
       <r>   18.3924    0.0000 </r>
       <r>   18.4549    0.0000 </r>
       <r>   19.6133    0.0000 </r>
       <r>   20.0567    0.0000 </r>
       <r>   21.0260    0.0000 </r>
       <r>   21.0260    0.0000 </r>
      </set>
      <set comment="kpoint 24">
       <r>   -8.1657    1.0000 </r>
       <r>   -6.2703    1.0000 </r>
       <r>   -5.0657    1.0000 </r>
       <r>   -3.4806    1.0000 </r>
       <r>    0.1099    1.0000 </r>
       <r>    1.5662    1.0000 </r>
       <r>    1.8831    1.0000 </r>
       <r>    2.6816    1.0000 </r>
       <r>    3.2192    1.0000 </r>
       <r>    4.2035    1.0000 </r>
       <r>    4.5836    1.0000 </r>
       <r>    5.8788    1.0000 </r>
       <r>    6.1754    1.0000 </r>
       <r>    6.4131    1.0000 </r>
       <r>    6.9347    1.0000 </r>
       <r>    9.2817    1.0000 </r>
       <r>   17.7497    0.0000 </r>
       <r>   18.4526    0.0000 </r>
       <r>   18.6524    0.0000 </r>
       <r>   19.6169    0.0000 </r>
       <r>   19.8037    0.0000 </r>
       <r>   20.5283    0.0000 </r>
       <r>   20.8564    0.0000 </r>
       <r>   21.0107    0.0000 </r>
      </set>
      <set comment="kpoint 25">
       <r>   -7.6176    1.0000 </r>
       <r>   -6.9845    1.0000 </r>
       <r>   -4.5838    1.0000 </r>
       <r>   -4.0479    1.0000 </r>
       <r>    0.5458    1.0000 </r>
       <r>    1.0379    1.0000 </r>
       <r>    2.2448    1.0000 </r>
       <r>    2.6998    1.0000 </r>
       <r>    3.2778    1.0000 </r>
       <r>    3.9103    1.0000 </r>
       <r>    4.7031    1.0000 </r>
       <r>    5.2653    1.0000 </r>
       <r>    6.3409    1.0000 </r>
       <r>    6.4399    1.0000 </r>
       <r>    7.8448    1.0000 </r>
       <r>    8.6488    1.0000 </r>
       <r>   18.5143    0.0000 </r>
       <r>   18.5381    0.0000 </r>
       <r>   18.6243    0.0000 </r>
       <r>   19.4655    0.0000 </r>
       <r>   20.1379    0.0000 </r>
       <r>   20.5789    0.0000 </r>
       <r>   20.9525    0.0000 </r>
       <r>   21.9186    0.0000 </r>
      </set>
      <set comment="kpoint 26">
       <r>   -7.7097    1.0000 </r>
       <r>   -5.8395    1.0000 </r>
       <r>   -5.8395    1.0000 </r>
       <r>   -4.1353    1.0000 </r>
       <r>    0.5126    1.0000 </r>
       <r>    2.0819    1.0000 </r>
       <r>    2.0819    1.0000 </r>
       <r>    2.1837    1.0000 </r>
       <r>    3.6234    1.0000 </r>
       <r>    3.6234    1.0000 </r>
       <r>    3.8930    1.0000 </r>
       <r>    5.2475    1.0000 </r>
       <r>    6.8731    1.0000 </r>
       <r>    7.1027    1.0000 </r>
       <r>    7.1027    1.0000 </r>
       <r>    9.0632    1.0000 </r>
       <r>   17.9348    0.0000 </r>
       <r>   19.3440    0.0000 </r>
       <r>   19.6263    0.0000 </r>
       <r>   19.6347    0.0000 </r>
       <r>   19.6347    0.0000 </r>
       <r>   20.1237    0.0000 </r>
       <r>   20.1237    0.0000 </r>
       <r>   21.2367    0.0000 </r>
      </set>
      <set comment="kpoint 27">
       <r>   -7.1674    1.0000 </r>
       <r>   -6.5424    1.0000 </r>
       <r>   -5.3334    1.0000 </r>
       <r>   -4.7606    1.0000 </r>
       <r>    0.9823    1.0000 </r>
       <r>    1.5096    1.0000 </r>
       <r>    2.5899    1.0000 </r>
       <r>    2.6382    1.0000 </r>
       <r>    3.0771    1.0000 </r>
       <r>    3.2423    1.0000 </r>
       <r>    4.1034    1.0000 </r>
       <r>    4.6492    1.0000 </r>
       <r>    7.1209    1.0000 </r>
       <r>    7.1811    1.0000 </r>
       <r>    7.9357    1.0000 </r>
       <r>    8.6064    1.0000 </r>
       <r>   18.4304    0.0000 </r>
       <r>   19.1765    0.0000 </r>
       <r>   19.5848    0.0000 </r>
       <r>   19.6387    0.0000 </r>
       <r>   19.6565    0.0000 </r>
       <r>   19.8183    0.0000 </r>
       <r>   20.8837    0.0000 </r>
       <r>   21.9731    0.0000 </r>
      </set>
      <set comment="kpoint 28">
       <r>   -6.6334    1.0000 </r>
       <r>   -6.0199    1.0000 </r>
       <r>   -6.0199    1.0000 </r>
       <r>   -5.4228    1.0000 </r>
       <r>    1.4799    1.0000 </r>
       <r>    2.0347    1.0000 </r>
       <r>    2.0347    1.0000 </r>
       <r>    2.6138    1.0000 </r>
       <r>    3.0265    1.0000 </r>
       <r>    3.5370    1.0000 </r>
       <r>    3.5370    1.0000 </r>
       <r>    4.0662    1.0000 </r>
       <r>    7.6033    1.0000 </r>
       <r>    7.8685    1.0000 </r>
       <r>    7.8685    1.0000 </r>
       <r>    8.3504    1.0000 </r>
       <r>   18.6299    0.0000 </r>
       <r>   19.0970    0.0000 </r>
       <r>   19.0970    0.0000 </r>
       <r>   19.2484    0.0000 </r>
       <r>   20.3808    0.0000 </r>
       <r>   20.7455    0.0000 </r>
       <r>   20.7455    0.0000 </r>
       <r>   21.5400    0.0000 </r>
      </set>
      <set comment="kpoint 29">
       <r>  -10.4017    1.0000 </r>
       <r>   -3.4848    1.0000 </r>
       <r>   -2.2832    1.0000 </r>
       <r>   -2.2832    1.0000 </r>
       <r>   -1.1537    1.0000 </r>
       <r>   -1.1537    1.0000 </r>
       <r>   -0.0846    1.0000 </r>
       <r>    4.1998    1.0000 </r>
       <r>    4.1998    1.0000 </r>
       <r>    4.6049    1.0000 </r>
       <r>    4.6049    1.0000 </r>
       <r>    4.6670    1.0000 </r>
       <r>    4.8085    1.0000 </r>
       <r>   10.2461    1.0000 </r>
       <r>   10.5437    1.0000 </r>
       <r>   10.7567    1.0000 </r>
       <r>   15.4610    0.0000 </r>
       <r>   15.9003    0.0000 </r>
       <r>   15.9003    0.0000 </r>
       <r>   16.4606    0.0000 </r>
       <r>   16.4606    0.0000 </r>
       <r>   16.5257    0.0000 </r>
       <r>   16.6011    0.0000 </r>
       <r>   17.0728    0.0000 </r>
      </set>
      <set comment="kpoint 30">
       <r>  -10.3073    1.0000 </r>
       <r>   -3.4103    1.0000 </r>
       <r>   -3.3678    1.0000 </r>
       <r>   -2.2245    1.0000 </r>
       <r>   -1.1061    1.0000 </r>
       <r>   -0.0527    1.0000 </r>
       <r>    0.0033    1.0000 </r>
       <r>    3.6766    1.0000 </r>
       <r>    4.3036    1.0000 </r>
       <r>    4.3462    1.0000 </r>
       <r>    4.7011    1.0000 </r>
       <r>    4.7475    1.0000 </r>
       <r>    4.8247    1.0000 </r>
       <r>    9.6919    1.0000 </r>
       <r>   10.2581    1.0000 </r>
       <r>   10.7702    1.0000 </r>
       <r>   15.7254    0.0000 </r>
       <r>   15.8087    0.0000 </r>
       <r>   15.8598    0.0000 </r>
       <r>   16.8319    0.0000 </r>
       <r>   16.8517    0.0000 </r>
       <r>   16.9281    0.0000 </r>
       <r>   17.1746    0.0000 </r>
       <r>   17.2085    0.0000 </r>
      </set>
      <set comment="kpoint 31">
       <r>  -10.1189    1.0000 </r>
       <r>   -4.3963    1.0000 </r>
       <r>   -3.2642    1.0000 </r>
       <r>   -2.1155    1.0000 </r>
       <r>   -1.0181    1.0000 </r>
       <r>   -0.0003    1.0000 </r>
       <r>    1.1676    1.0000 </r>
       <r>    3.1154    1.0000 </r>
       <r>    3.9090    1.0000 </r>
       <r>    4.5130    1.0000 </r>
       <r>    4.5179    1.0000 </r>
       <r>    4.8356    1.0000 </r>
       <r>    4.8952    1.0000 </r>
       <r>    9.0043    1.0000 </r>
       <r>    9.6888    1.0000 </r>
       <r>   10.5585    1.0000 </r>
       <r>   15.5990    0.0000 </r>
       <r>   16.1766    0.0000 </r>
       <r>   16.4747    0.0000 </r>
       <r>   16.7748    0.0000 </r>
       <r>   17.4104    0.0000 </r>
       <r>   17.6673    0.0000 </r>
       <r>   17.8718    0.0000 </r>
       <r>   18.0023    0.0000 </r>
      </set>
      <set comment="kpoint 32">
       <r>   -9.8369    1.0000 </r>
       <r>   -5.3596    1.0000 </r>
       <r>   -3.0524    1.0000 </r>
       <r>   -1.9773    1.0000 </r>
       <r>   -0.9027    1.0000 </r>
       <r>    0.0473    1.0000 </r>
       <r>    2.3096    1.0000 </r>
       <r>    2.5991    1.0000 </r>
       <r>    3.4300    1.0000 </r>
       <r>    4.1966    1.0000 </r>
       <r>    4.6674    1.0000 </r>
       <r>    4.8308    1.0000 </r>
       <r>    5.1929    1.0000 </r>
       <r>    8.2579    1.0000 </r>
       <r>    9.0070    1.0000 </r>
       <r>   10.0997    1.0000 </r>
       <r>   15.5478    0.0000 </r>
       <r>   16.6041    0.0000 </r>
       <r>   16.8385    0.0000 </r>
       <r>   17.4029    0.0000 </r>
       <r>   18.1083    0.0000 </r>
       <r>   18.6521    0.0000 </r>
       <r>   18.7738    0.0000 </r>
       <r>   18.7910    0.0000 </r>
      </set>
      <set comment="kpoint 33">
       <r>   -9.4620    1.0000 </r>
       <r>   -6.2504    1.0000 </r>
       <r>   -2.7863    1.0000 </r>
       <r>   -1.8549    1.0000 </r>
       <r>   -0.7712    1.0000 </r>
       <r>    0.0509    1.0000 </r>
       <r>    2.2108    1.0000 </r>
       <r>    2.9720    1.0000 </r>
       <r>    3.3889    1.0000 </r>
       <r>    3.8824    1.0000 </r>
       <r>    4.3875    1.0000 </r>
       <r>    5.2550    1.0000 </r>
       <r>    5.6131    1.0000 </r>
       <r>    7.4954    1.0000 </r>
       <r>    8.2946    1.0000 </r>
       <r>    9.4487    1.0000 </r>
       <r>   15.5686    0.0000 </r>
       <r>   16.3968    0.0000 </r>
       <r>   17.7739    0.0000 </r>
       <r>   18.5231    0.0000 </r>
       <r>   18.9429    0.0000 </r>
       <r>   19.6782    0.0000 </r>
       <r>   19.7852    0.0000 </r>
       <r>   19.8175    0.0000 </r>
      </set>
      <set comment="kpoint 34">
       <r>   -8.9955    1.0000 </r>
       <r>   -7.0633    1.0000 </r>
       <r>   -2.4859    1.0000 </r>
       <r>   -1.8236    1.0000 </r>
       <r>   -0.6145    1.0000 </r>
       <r>   -0.0288    1.0000 </r>
       <r>    2.0200    1.0000 </r>
       <r>    2.5723    1.0000 </r>
       <r>    3.6782    1.0000 </r>
       <r>    4.0744    1.0000 </r>
       <r>    4.3601    1.0000 </r>
       <r>    5.7630    1.0000 </r>
       <r>    6.1961    1.0000 </r>
       <r>    6.7378    1.0000 </r>
       <r>    7.5963    1.0000 </r>
       <r>    8.6655    1.0000 </r>
       <r>   15.6534    0.0000 </r>
       <r>   16.1793    0.0000 </r>
       <r>   18.8922    0.0000 </r>
       <r>   19.7538    0.0000 </r>
       <r>   19.9077    0.0000 </r>
       <r>   20.6544    0.0000 </r>
       <r>   20.9035    0.0000 </r>
       <r>   20.9074    0.0000 </r>
      </set>
      <set comment="kpoint 35">
       <r>   -8.4388    1.0000 </r>
       <r>   -7.7938    1.0000 </r>
       <r>   -2.1856    1.0000 </r>
       <r>   -1.9419    1.0000 </r>
       <r>   -0.4146    1.0000 </r>
       <r>   -0.1985    1.0000 </r>
       <r>    2.0473    1.0000 </r>
       <r>    2.2515    1.0000 </r>
       <r>    3.6538    1.0000 </r>
       <r>    3.8053    1.0000 </r>
       <r>    5.2106    1.0000 </r>
       <r>    5.9850    1.0000 </r>
       <r>    6.3248    1.0000 </r>
       <r>    6.9361    1.0000 </r>
       <r>    6.9534    1.0000 </r>
       <r>    7.8091    1.0000 </r>
       <r>   15.7919    0.0000 </r>
       <r>   15.9719    0.0000 </r>
       <r>   20.0727    0.0000 </r>
       <r>   20.7924    0.0000 </r>
       <r>   20.9810    0.0000 </r>
       <r>   21.4547    0.0000 </r>
       <r>   21.6680    0.0000 </r>
       <r>   22.0051    0.0000 </r>
      </set>
      <set comment="kpoint 36">
       <r>  -10.2131    1.0000 </r>
       <r>   -3.3384    1.0000 </r>
       <r>   -3.2964    1.0000 </r>
       <r>   -3.2964    1.0000 </r>
       <r>   -0.0333    1.0000 </r>
       <r>    0.0194    1.0000 </r>
       <r>    0.0194    1.0000 </r>
       <r>    3.8044    1.0000 </r>
       <r>    3.8044    1.0000 </r>
       <r>    3.8416    1.0000 </r>
       <r>    4.9150    1.0000 </r>
       <r>    4.9150    1.0000 </r>
       <r>    4.9641    1.0000 </r>
       <r>    9.0744    1.0000 </r>
       <r>   10.4336    1.0000 </r>
       <r>   10.4698    1.0000 </r>
       <r>   15.8126    0.0000 </r>
       <r>   15.8126    0.0000 </r>
       <r>   15.8920    0.0000 </r>
       <r>   17.2081    0.0000 </r>
       <r>   17.2304    0.0000 </r>
       <r>   17.4349    0.0000 </r>
       <r>   17.4349    0.0000 </r>
       <r>   17.5138    0.0000 </r>
      </set>
      <set comment="kpoint 37">
       <r>  -10.0248    1.0000 </r>
       <r>   -4.3177    1.0000 </r>
       <r>   -3.1983    1.0000 </r>
       <r>   -3.1576    1.0000 </r>
       <r>   -0.0117    1.0000 </r>
       <r>    0.0336    1.0000 </r>
       <r>    1.1311    1.0000 </r>
       <r>    3.2826    1.0000 </r>
       <r>    3.3118    1.0000 </r>
       <r>    4.0718    1.0000 </r>
       <r>    4.9294    1.0000 </r>
       <r>    4.9796    1.0000 </r>
       <r>    5.0947    1.0000 </r>
       <r>    8.3446    1.0000 </r>
       <r>    9.8938    1.0000 </r>
       <r>   10.3883    1.0000 </r>
       <r>   15.7717    0.0000 </r>
       <r>   16.1810    0.0000 </r>
       <r>   16.2567    0.0000 </r>
       <r>   17.1005    0.0000 </r>
       <r>   17.9015    0.0000 </r>
       <r>   17.9018    0.0000 </r>
       <r>   18.0878    0.0000 </r>
       <r>   18.3540    0.0000 </r>
      </set>
      <set comment="kpoint 38">
       <r>   -9.7431    1.0000 </r>
       <r>   -5.2762    1.0000 </r>
       <r>   -2.9992    1.0000 </r>
       <r>   -2.9609    1.0000 </r>
       <r>   -0.0235    1.0000 </r>
       <r>    0.0088    1.0000 </r>
       <r>    2.1800    1.0000 </r>
       <r>    2.8315    1.0000 </r>
       <r>    2.8484    1.0000 </r>
       <r>    4.5054    1.0000 </r>
       <r>    4.7753    1.0000 </r>
       <r>    4.8244    1.0000 </r>
       <r>    5.3624    1.0000 </r>
       <r>    7.5764    1.0000 </r>
       <r>    9.2377    1.0000 </r>
       <r>   10.0326    1.0000 </r>
       <r>   15.7731    0.0000 </r>
       <r>   16.8647    0.0000 </r>
       <r>   16.9242    0.0000 </r>
       <r>   16.9372    0.0000 </r>
       <r>   18.5377    0.0000 </r>
       <r>   18.7387    0.0000 </r>
       <r>   18.8155    0.0000 </r>
       <r>   19.4696    0.0000 </r>
      </set>
      <set comment="kpoint 39">
       <r>   -9.3688    1.0000 </r>
       <r>   -6.1638    1.0000 </r>
       <r>   -2.7596    1.0000 </r>
       <r>   -2.7258    1.0000 </r>
       <r>   -0.1107    1.0000 </r>
       <r>   -0.0954    1.0000 </r>
       <r>    2.5303    1.0000 </r>
       <r>    2.5324    1.0000 </r>
       <r>    3.1111    1.0000 </r>
       <r>    4.5262    1.0000 </r>
       <r>    4.5702    1.0000 </r>
       <r>    5.1365    1.0000 </r>
       <r>    5.7154    1.0000 </r>
       <r>    6.8074    1.0000 </r>
       <r>    8.5493    1.0000 </r>
       <r>    9.4446    1.0000 </r>
       <r>   15.8281    0.0000 </r>
       <r>   16.7150    0.0000 </r>
       <r>   17.8085    0.0000 </r>
       <r>   17.8778    0.0000 </r>
       <r>   19.3253    0.0000 </r>
       <r>   19.6445    0.0000 </r>
       <r>   19.7325    0.0000 </r>
       <r>   20.6858    0.0000 </r>
      </set>
      <set comment="kpoint 40">
       <r>   -8.9029    1.0000 </r>
       <r>   -6.9744    1.0000 </r>
       <r>   -2.5176    1.0000 </r>
       <r>   -2.4923    1.0000 </r>
       <r>   -0.2714    1.0000 </r>
       <r>   -0.2698    1.0000 </r>
       <r>    2.3910    1.0000 </r>
       <r>    2.3984    1.0000 </r>
       <r>    3.9105    1.0000 </r>
       <r>    4.2740    1.0000 </r>
       <r>    4.3066    1.0000 </r>
       <r>    5.9535    1.0000 </r>
       <r>    6.0584    1.0000 </r>
       <r>    6.1500    1.0000 </r>
       <r>    7.8738    1.0000 </r>
       <r>    8.6852    1.0000 </r>
       <r>   15.9361    0.0000 </r>
       <r>   16.4943    0.0000 </r>
       <r>   18.9244    0.0000 </r>
       <r>   18.9897    0.0000 </r>
       <r>   20.2509    0.0000 </r>
       <r>   20.6219    0.0000 </r>
       <r>   20.7310    0.0000 </r>
       <r>   21.8225    0.0000 </r>
      </set>
      <set comment="kpoint 41">
       <r>   -8.3471    1.0000 </r>
       <r>   -7.7033    1.0000 </r>
       <r>   -2.3462    1.0000 </r>
       <r>   -2.3362    1.0000 </r>
       <r>   -0.4163    1.0000 </r>
       <r>   -0.4147    1.0000 </r>
       <r>    2.3650    1.0000 </r>
       <r>    2.3698    1.0000 </r>
       <r>    4.1166    1.0000 </r>
       <r>    4.1290    1.0000 </r>
       <r>    4.6314    1.0000 </r>
       <r>    5.3361    1.0000 </r>
       <r>    6.6596    1.0000 </r>
       <r>    6.8768    1.0000 </r>
       <r>    7.2383    1.0000 </r>
       <r>    7.8104    1.0000 </r>
       <r>   16.0903    0.0000 </r>
       <r>   16.2807    0.0000 </r>
       <r>   20.0504    0.0000 </r>
       <r>   20.0988    0.0000 </r>
       <r>   21.2880    0.0000 </r>
       <r>   21.6460    0.0000 </r>
       <r>   21.7202    0.0000 </r>
       <r>   21.7577    0.0000 </r>
      </set>
      <set comment="kpoint 42">
       <r>   -9.8370    1.0000 </r>
       <r>   -4.1628    1.0000 </r>
       <r>   -4.1628    1.0000 </r>
       <r>   -3.0734    1.0000 </r>
       <r>   -0.0626    1.0000 </r>
       <r>    1.0272    1.0000 </r>
       <r>    1.0272    1.0000 </r>
       <r>    2.7830    1.0000 </r>
       <r>    3.6398    1.0000 </r>
       <r>    3.6398    1.0000 </r>
       <r>    5.1184    1.0000 </r>
       <r>    5.1184    1.0000 </r>
       <r>    5.2692    1.0000 </r>
       <r>    7.5870    1.0000 </r>
       <r>    9.5690    1.0000 </r>
[...]
       <r>   -5.2746    1.0000 </r>
       <r>   -4.8119    1.0000 </r>
       <r>   -1.7997    1.0000 </r>
       <r>   -1.3480    1.0000 </r>
       <r>   -1.3450    1.0000 </r>
       <r>   -0.8175    1.0000 </r>
       <r>    6.8733    1.0000 </r>
       <r>    7.1537    1.0000 </r>
       <r>    7.1632    1.0000 </r>
       <r>    7.5172    1.0000 </r>
       <r>    7.8529    1.0000 </r>
       <r>    7.9791    1.0000 </r>
       <r>    7.9839    1.0000 </r>
       <r>    8.2738    1.0000 </r>
       <r>   19.0617    0.0000 </r>
       <r>   19.2956    0.0000 </r>
       <r>   19.3134    0.0000 </r>
       <r>   19.4329    0.0000 </r>
       <r>   19.5525    0.0000 </r>
       <r>   19.6550    0.0000 </r>
       <r>   19.7499    0.0000 </r>
       <r>   20.1394    0.0000 </r>
      </set>
      <set comment="kpoint 194">
       <r>   -5.9081    1.0000 </r>
       <r>   -5.3638    1.0000 </r>
       <r>   -4.5955    1.0000 </r>
       <r>   -4.5955    1.0000 </r>
       <r>   -2.1803    1.0000 </r>
       <r>   -2.1803    1.0000 </r>
       <r>   -1.4286    1.0000 </r>
       <r>   -0.8983    1.0000 </r>
       <r>    7.2784    1.0000 </r>
       <r>    7.2784    1.0000 </r>
       <r>    7.7410    1.0000 </r>
       <r>    7.7410    1.0000 </r>
       <r>    7.7841    1.0000 </r>
       <r>    7.8837    1.0000 </r>
       <r>    8.1389    1.0000 </r>
       <r>    8.2142    1.0000 </r>
       <r>   19.0568    0.0000 </r>
       <r>   19.1276    0.0000 </r>
       <r>   19.1276    0.0000 </r>
       <r>   19.2395    0.0000 </r>
       <r>   19.6416    0.0000 </r>
       <r>   19.8447    0.0000 </r>
       <r>   19.8448    0.0000 </r>
       <r>   19.8610    0.0000 </r>
      </set>
      <set comment="kpoint 195">
       <r>   -5.4473    1.0000 </r>
       <r>   -4.9807    1.0000 </r>
       <r>   -4.9780    1.0000 </r>
       <r>   -4.6805    1.0000 </r>
       <r>   -2.2646    1.0000 </r>
       <r>   -1.9723    1.0000 </r>
       <r>   -1.9698    1.0000 </r>
       <r>   -1.5130    1.0000 </r>
       <r>    7.5816    1.0000 </r>
       <r>    7.7329    1.0000 </r>
       <r>    7.7570    1.0000 </r>
       <r>    7.9666    1.0000 </r>
       <r>    8.0025    1.0000 </r>
       <r>    8.0168    1.0000 </r>
       <r>    8.0381    1.0000 </r>
       <r>    8.2323    1.0000 </r>
       <r>   19.2320    0.0000 </r>
       <r>   19.3115    0.0000 </r>
       <r>   19.3149    0.0000 </r>
       <r>   19.4107    0.0000 </r>
       <r>   19.4727    0.0000 </r>
       <r>   19.5882    0.0000 </r>
       <r>   19.6620    0.0000 </r>
       <r>   19.7871    0.0000 </r>
      </set>
      <set comment="kpoint 196">
       <r>   -5.0632    1.0000 </r>
       <r>   -4.7641    1.0000 </r>
       <r>   -4.7630    1.0000 </r>
       <r>   -4.7630    1.0000 </r>
       <r>   -2.3524    1.0000 </r>
       <r>   -2.3524    1.0000 </r>
       <r>   -2.3513    1.0000 </r>
       <r>   -2.0572    1.0000 </r>
       <r>    7.9976    1.0000 </r>
       <r>    8.0286    1.0000 </r>
       <r>    8.0286    1.0000 </r>
       <r>    8.0867    1.0000 </r>
       <r>    8.0867    1.0000 </r>
       <r>    8.1167    1.0000 </r>
       <r>    8.1470    1.0000 </r>
       <r>    8.2067    1.0000 </r>
       <r>   19.3572    0.0000 </r>
       <r>   19.3572    0.0000 </r>
       <r>   19.3636    0.0000 </r>
       <r>   19.4013    0.0000 </r>
       <r>   19.4378    0.0000 </r>
       <r>   19.5375    0.0000 </r>
       <r>   19.5376    0.0000 </r>
       <r>   19.5618    0.0000 </r>
      </set>
     </set>
    </set>
   </array>
  </eigenvalues>
  <separator name="orbital magnetization" >
   <v name="MAGDIPOLOUT">      0.00000000      0.00000000      0.00000000</v>
  </separator>
  <dos>
   <i name="efermi">     11.20166090 </i>
   <total>
    <array>
     <dimension dim="1">gridpoints</dimension>
     <dimension dim="2">spin</dimension>
     <field>energy</field>
     <field>total</field>
     <field>integrated</field>
     <set>
      <set comment="spin 1">
       <r>   -12.1630     0.0000     0.0000 </r>
       <r>   -12.0407     0.0000     0.0000 </r>
       <r>   -11.9185     0.0000     0.0000 </r>
       <r>   -11.7962     0.0000     0.0000 </r>
       <r>   -11.6739     0.0000     0.0000 </r>
       <r>   -11.5516     0.0000     0.0000 </r>
       <r>   -11.4293     0.0000     0.0000 </r>
       <r>   -11.3070     0.0000     0.0000 </r>
       <r>   -11.1847     0.0000     0.0000 </r>
       <r>   -11.0624     0.0000     0.0000 </r>
       <r>   -10.9401     0.0000     0.0000 </r>
       <r>   -10.8179     0.0000     0.0000 </r>
       <r>   -10.6956     0.0000     0.0000 </r>
       <r>   -10.5733     0.0007     0.0001 </r>
       <r>   -10.4510     0.0535     0.0066 </r>
       <r>   -10.3287     0.1726     0.0277 </r>
       <r>   -10.2064     0.2182     0.0544 </r>
       <r>   -10.0841     0.3263     0.0943 </r>
       <r>    -9.9618     0.2330     0.1228 </r>
       <r>    -9.8396     0.4406     0.1767 </r>
       <r>    -9.7173     0.3450     0.2189 </r>
       <r>    -9.5950     0.3983     0.2676 </r>
       <r>    -9.4727     0.4984     0.3285 </r>
       <r>    -9.3504     0.4915     0.3886 </r>
       <r>    -9.2281     0.5385     0.4545 </r>
       <r>    -9.1058     0.3848     0.5015 </r>
       <r>    -8.9835     0.6741     0.5840 </r>
       <r>    -8.8612     0.6474     0.6632 </r>
       <r>    -8.7390     0.5220     0.7270 </r>
       <r>    -8.6167     0.4973     0.7878 </r>
       <r>    -8.4944     0.7335     0.8775 </r>
       <r>    -8.3721     0.8104     0.9766 </r>
       <r>    -8.2498     0.5800     1.0475 </r>
       <r>    -8.1275     0.7513     1.1394 </r>
       <r>    -8.0052     0.6272     1.2161 </r>
       <r>    -7.8829     0.8620     1.3215 </r>
       <r>    -7.7607     0.5613     1.3902 </r>
       <r>    -7.6384     0.9362     1.5046 </r>
       <r>    -7.5161     1.0522     1.6333 </r>
       <r>    -7.3938     0.5399     1.6993 </r>
       <r>    -7.2715     0.8185     1.7994 </r>
       <r>    -7.1492     0.7184     1.8873 </r>
       <r>    -7.0269     1.2435     2.0393 </r>
       <r>    -6.9046     0.8563     2.1441 </r>
       <r>    -6.7823     0.9435     2.2594 </r>
       <r>    -6.6601     0.7403     2.3500 </r>
       <r>    -6.5378     1.0694     2.4807 </r>
       <r>    -6.4155     0.8804     2.5884 </r>
       <r>    -6.2932     1.0743     2.7198 </r>
       <r>    -6.1709     0.9909     2.8409 </r>
       <r>    -6.0486     1.0840     2.9735 </r>
       <r>    -5.9263     1.1068     3.1089 </r>
       <r>    -5.8040     1.0928     3.2425 </r>
       <r>    -5.6818     1.3457     3.4071 </r>
       <r>    -5.5595     0.6473     3.4862 </r>
       <r>    -5.4372     0.9704     3.6049 </r>
       <r>    -5.3149     1.6573     3.8075 </r>
       <r>    -5.1926     1.3250     3.9696 </r>
       <r>    -5.0703     1.1536     4.1107 </r>
       <r>    -4.9480     1.4716     4.2906 </r>
       <r>    -4.8257     1.0602     4.4203 </r>
       <r>    -4.7034     1.4528     4.5979 </r>
       <r>    -4.5812     1.5906     4.7924 </r>
       <r>    -4.4589     1.5585     4.9830 </r>
       <r>    -4.3366     1.4108     5.1555 </r>
       <r>    -4.2143     1.4149     5.3286 </r>
       <r>    -4.0920     1.2135     5.4770 </r>
       <r>    -3.9697     2.0879     5.7323 </r>
       <r>    -3.8474     0.8981     5.8421 </r>
       <r>    -3.7251     1.2538     5.9954 </r>
       <r>    -3.6029     0.9825     6.1156 </r>
       <r>    -3.4806     0.9744     6.2348 </r>
       <r>    -3.3583     1.5826     6.4283 </r>
       <r>    -3.2360     1.5492     6.6177 </r>
       <r>    -3.1137     0.6034     6.6915 </r>
       <r>    -2.9914     1.1050     6.8267 </r>
       <r>    -2.8691     1.1204     6.9637 </r>
       <r>    -2.7468     1.2048     7.1110 </r>
       <r>    -2.6245     0.9300     7.2247 </r>
       <r>    -2.5023     0.5206     7.2884 </r>
       <r>    -2.3800     0.7614     7.3815 </r>
       <r>    -2.2577     1.0139     7.5055 </r>
       <r>    -2.1354     1.2705     7.6609 </r>
       <r>    -2.0131     1.2671     7.8158 </r>
       <r>    -1.8908     1.4652     7.9950 </r>
       <r>    -1.7685     1.2620     8.1493 </r>
       <r>    -1.6462     0.5624     8.2181 </r>
       <r>    -1.5240     0.8291     8.3195 </r>
       <r>    -1.4017     1.1811     8.4639 </r>
       <r>    -1.2794     0.8125     8.5633 </r>
       <r>    -1.1571     0.9126     8.6749 </r>
       <r>    -1.0348     1.8260     8.8982 </r>
       <r>    -0.9125     1.6211     9.0964 </r>
       <r>    -0.7902     1.7737     9.3133 </r>
       <r>    -0.6679     2.4437     9.6122 </r>
       <r>    -0.5456     2.1072     9.8699 </r>
       <r>    -0.4234     2.2556    10.1457 </r>
       <r>    -0.3011     1.2827    10.3025 </r>
       <r>    -0.1788     2.1660    10.5674 </r>
       <r>    -0.0565     2.1261    10.8274 </r>
       <r>     0.0658     2.7114    11.1590 </r>
       <r>     0.1881     1.5216    11.3451 </r>
       <r>     0.3104     1.5284    11.5320 </r>
       <r>     0.4327     0.7900    11.6286 </r>
       <r>     0.5549     1.0735    11.7598 </r>
       <r>     0.6772     1.5399    11.9482 </r>
       <r>     0.7995     0.8757    12.0553 </r>
       <r>     0.9218     1.3241    12.2172 </r>
       <r>     1.0441     1.3291    12.3797 </r>
       <r>     1.1664     1.6133    12.5770 </r>
       <r>     1.2887     0.8608    12.6823 </r>
       <r>     1.4110     0.8243    12.7831 </r>
       <r>     1.5333     1.3724    12.9509 </r>
       <r>     1.6555     1.2114    13.0990 </r>
       <r>     1.7778     1.0104    13.2226 </r>
       <r>     1.9001     1.4247    13.3968 </r>
       <r>     2.0224     1.6474    13.5983 </r>
       <r>     2.1447     2.2210    13.8699 </r>
       <r>     2.2670     1.8172    14.0921 </r>
       <r>     2.3893     2.4025    14.3859 </r>
       <r>     2.5116     1.9618    14.6258 </r>
       <r>     2.6338     2.5578    14.9386 </r>
       <r>     2.7561     1.7747    15.1556 </r>
       <r>     2.8784     1.7208    15.3660 </r>
       <r>     3.0007     1.2950    15.5244 </r>
       <r>     3.1230     2.1426    15.7864 </r>
       <r>     3.2453     2.8530    16.1353 </r>
       <r>     3.3676     3.0709    16.5109 </r>
       <r>     3.4899     1.0406    16.6381 </r>
       <r>     3.6121     1.8708    16.8669 </r>
       <r>     3.7344     2.2138    17.1376 </r>
       <r>     3.8567     2.4359    17.4355 </r>
       <r>     3.9790     2.7479    17.7715 </r>
       <r>     4.1013     2.3835    18.0630 </r>
       <r>     4.2236     2.3105    18.3455 </r>
       <r>     4.3459     1.7082    18.5544 </r>
       <r>     4.4682     2.9849    18.9194 </r>
       <r>     4.5905     3.4880    19.3460 </r>
       <r>     4.7127     3.2464    19.7430 </r>
       <r>     4.8350     2.8268    20.0887 </r>
       <r>     4.9573     2.9185    20.4456 </r>
       <r>     5.0796     2.6287    20.7670 </r>
       <r>     5.2019     2.7980    21.1092 </r>
       <r>     5.3242     4.3152    21.6369 </r>
       <r>     5.4465     4.0052    22.1267 </r>
       <r>     5.5688     2.0366    22.3757 </r>
       <r>     5.6910     1.7408    22.5886 </r>
       <r>     5.8133     3.2828    22.9901 </r>
       <r>     5.9356     3.2488    23.3873 </r>
       <r>     6.0579     4.0786    23.8861 </r>
       <r>     6.1802     2.1547    24.1496 </r>
       <r>     6.3025     2.3947    24.4424 </r>
       <r>     6.4248     3.2294    24.8374 </r>
       <r>     6.5471     2.5833    25.1533 </r>
       <r>     6.6694     2.6019    25.4715 </r>
       <r>     6.7916     3.2619    25.8703 </r>
       <r>     6.9139     2.5567    26.1830 </r>
       <r>     7.0362     2.1014    26.4400 </r>
       <r>     7.1585     3.0429    26.8121 </r>
       <r>     7.2808     3.5011    27.2402 </r>
       <r>     7.4031     2.1319    27.5009 </r>
       <r>     7.5254     2.0277    27.7489 </r>
       <r>     7.6477     2.7945    28.0906 </r>
       <r>     7.7699     1.9189    28.3253 </r>
       <r>     7.8922     3.8968    28.8018 </r>
       <r>     8.0145     2.7129    29.1336 </r>
       <r>     8.1368     1.5100    29.3182 </r>
       <r>     8.2591     1.6073    29.5148 </r>
       <r>     8.3814     2.6217    29.8354 </r>
       <r>     8.5037     1.9930    30.0791 </r>
       <r>     8.6260     1.9392    30.3162 </r>
       <r>     8.7483     1.0512    30.4448 </r>
       <r>     8.8705     0.7508    30.5366 </r>
       <r>     8.9928     1.3831    30.7057 </r>
       <r>     9.1151     1.6713    30.9101 </r>
       <r>     9.2374     1.2212    31.0595 </r>
       <r>     9.3597     0.7587    31.1522 </r>
       <r>     9.4820     0.7877    31.2486 </r>
       <r>     9.6043     0.6125    31.3235 </r>
       <r>     9.7266     1.2214    31.4728 </r>
       <r>     9.8488     0.8009    31.5708 </r>
       <r>     9.9711     0.4507    31.6259 </r>
       <r>    10.0934     0.6061    31.7000 </r>
       <r>    10.2157     0.4338    31.7531 </r>
       <r>    10.3380     0.6474    31.8322 </r>
       <r>    10.4603     0.3289    31.8724 </r>
       <r>    10.5826     0.4963    31.9331 </r>
       <r>    10.7049     0.1535    31.9519 </r>
       <r>    10.8272     0.2754    31.9856 </r>
       <r>    10.9494     0.1113    31.9992 </r>
       <r>    11.0717     0.0065    32.0000 </r>
       <r>    11.1940     0.0000    32.0000 </r>
       <r>    11.3163     0.0000    32.0000 </r>
       <r>    11.4386     0.0000    32.0000 </r>
       <r>    11.5609     0.0000    32.0000 </r>
       <r>    11.6832     0.0000    32.0000 </r>
       <r>    11.8055     0.0000    32.0000 </r>
       <r>    11.9277     0.0000    32.0000 </r>
       <r>    12.0500     0.0000    32.0000 </r>
       <r>    12.1723     0.0000    32.0000 </r>
       <r>    12.2946     0.0000    32.0000 </r>
       <r>    12.4169     0.0000    32.0000 </r>
       <r>    12.5392     0.0000    32.0000 </r>
       <r>    12.6615     0.0000    32.0000 </r>
       <r>    12.7838     0.0000    32.0000 </r>
       <r>    12.9061     0.0000    32.0000 </r>
       <r>    13.0283     0.0000    32.0000 </r>
       <r>    13.1506     0.0000    32.0000 </r>
       <r>    13.2729     0.0000    32.0000 </r>
       <r>    13.3952     0.0000    32.0000 </r>
       <r>    13.5175     0.0000    32.0000 </r>
       <r>    13.6398     0.0000    32.0000 </r>
       <r>    13.7621     0.0000    32.0000 </r>
       <r>    13.8844     0.0000    32.0000 </r>
       <r>    14.0066     0.0000    32.0000 </r>
       <r>    14.1289     0.0000    32.0000 </r>
       <r>    14.2512     0.0000    32.0000 </r>
       <r>    14.3735     0.0000    32.0000 </r>
       <r>    14.4958     0.0000    32.0000 </r>
       <r>    14.6181     0.0000    32.0000 </r>
       <r>    14.7404     0.0000    32.0000 </r>
       <r>    14.8627     0.0000    32.0000 </r>
       <r>    14.9850     0.0000    32.0000 </r>
       <r>    15.1072     0.0049    32.0006 </r>
       <r>    15.2295     0.2520    32.0314 </r>
       <r>    15.3518     0.3167    32.0701 </r>
       <r>    15.4741     0.2454    32.1001 </r>
       <r>    15.5964     0.5712    32.1700 </r>
       <r>    15.7187     0.8969    32.2797 </r>
       <r>    15.8410     0.9715    32.3985 </r>
       <r>    15.9633     0.8331    32.5003 </r>
       <r>    16.0855     0.6266    32.5770 </r>
       <r>    16.2078     0.9353    32.6914 </r>
       <r>    16.3301     1.8477    32.9173 </r>
       <r>    16.4524     1.6602    33.1203 </r>
       <r>    16.5747     1.7090    33.3293 </r>
       <r>    16.6970     1.6128    33.5265 </r>
       <r>    16.8193     1.3396    33.6904 </r>
       <r>    16.9416     1.8723    33.9193 </r>
       <r>    17.0639     1.3805    34.0881 </r>
       <r>    17.1861     1.9399    34.3254 </r>
       <r>    17.3084     2.9545    34.6867 </r>
       <r>    17.4307     2.2977    34.9677 </r>
       <r>    17.5530     2.0958    35.2239 </r>
       <r>    17.6753     1.4624    35.4028 </r>
       <r>    17.7976     2.1480    35.6655 </r>
       <r>    17.9199     3.1847    36.0549 </r>
       <r>    18.0422     2.3416    36.3413 </r>
       <r>    18.1644     2.2266    36.6136 </r>
       <r>    18.2867     1.8102    36.8349 </r>
       <r>    18.4090     3.0233    37.2046 </r>
       <r>    18.5313     3.2779    37.6055 </r>
       <r>    18.6536     3.4110    38.0226 </r>
       <r>    18.7759     3.8214    38.4899 </r>
       <r>    18.8982     3.3299    38.8971 </r>
       <r>    19.0205     3.2691    39.2969 </r>
       <r>    19.1428     3.1577    39.6830 </r>
       <r>    19.2650     3.7046    40.1361 </r>
       <r>    19.3873     3.8000    40.6008 </r>
       <r>    19.5096     3.9345    41.0819 </r>
       <r>    19.6319     4.5313    41.6360 </r>
       <r>    19.7542     5.8487    42.3512 </r>
       <r>    19.8765     3.3149    42.7566 </r>
       <r>    19.9988     2.8761    43.1083 </r>
       <r>    20.1211     3.5737    43.5454 </r>
       <r>    20.2433     2.4383    43.8435 </r>
       <r>    20.3656     2.5400    44.1541 </r>
       <r>    20.4879     2.0155    44.4006 </r>
       <r>    20.6102     2.7452    44.7363 </r>
       <r>    20.7325     4.1686    45.2461 </r>
       <r>    20.8548     2.8665    45.5966 </r>
       <r>    20.9771     3.2576    45.9950 </r>
       <r>    21.0994     1.9679    46.2356 </r>
       <r>    21.2217     2.5676    46.5496 </r>
       <r>    21.3439     2.4388    46.8479 </r>
       <r>    21.4662     1.1626    46.9900 </r>
       <r>    21.5885     1.1127    47.1261 </r>
       <r>    21.7108     1.9935    47.3699 </r>
       <r>    21.8331     1.4773    47.5505 </r>
       <r>    21.9554     1.3011    47.7097 </r>
       <r>    22.0777     1.0825    47.8420 </r>
       <r>    22.2000     0.4819    47.9010 </r>
       <r>    22.3222     0.4247    47.9529 </r>
       <r>    22.4445     0.0918    47.9641 </r>
       <r>    22.5668     0.0073    47.9650 </r>
       <r>    22.6891     0.0005    47.9651 </r>
       <r>    22.8114     0.1192    47.9797 </r>
       <r>    22.9337     0.1649    47.9998 </r>
       <r>    23.0560     0.0014    48.0000 </r>
       <r>    23.1783     0.0000    48.0000 </r>
       <r>    23.3005     0.0000    48.0000 </r>
       <r>    23.4228     0.0000    48.0000 </r>
       <r>    23.5451     0.0000    48.0000 </r>
       <r>    23.6674     0.0000    48.0000 </r>
       <r>    23.7897     0.0000    48.0000 </r>
       <r>    23.9120     0.0000    48.0000 </r>
       <r>    24.0343     0.0000    48.0000 </r>
       <r>    24.1566     0.0000    48.0000 </r>
       <r>    24.2789     0.0000    48.0000 </r>
       <r>    24.4011     0.0000    48.0000 </r>
       <r>    24.5234     0.0000    48.0000 </r>
      </set>
     </set>
    </array>
   </total>
  </dos>
 </calculation>
 <structure name="finalpos" >
  <crystal>
   <varray name="basis" >
    <v>       3.56169305       0.00000000       0.00000000 </v>
    <v>       0.00000000       3.56169305       0.00000000 </v>
    <v>       0.00000000       0.00000000       3.57360507 </v>
   </varray>
   <i name="volume">     45.33352965 </i>
   <varray name="rec_basis" >
    <v>       0.28076535       0.00000000       0.00000000 </v>
    <v>       0.00000000       0.28076535       0.00000000 </v>
    <v>       0.00000000       0.00000000       0.27982947 </v>
   </varray>
  </crystal>
  <varray name="positions" >
   <v>       0.25000000       0.25000000       0.25000000 </v>
   <v>       0.00000000       0.00000000       0.00000000 </v>
   <v>       0.25000000       0.75000000       0.75000000 </v>
   <v>       0.00000000       0.50000000       0.50000000 </v>
   <v>       0.75000000       0.25000000       0.75000000 </v>
   <v>       0.50000000       0.00000000       0.50000000 </v>
   <v>       0.75000000       0.75000000       0.25000000 </v>
   <v>       0.50000000       0.50000000       0.00000000 </v>
  </varray>
 </structure>
</modeling>
