   4   4   0   0
  0.1995098E+02  0.4382874E-09  0.4382873E-09  0.4154382E-09  0.2000000E-15
  1.000000000000000E-004
  CAR 
 unknown system                          
     17.02485138     -2.24098215  301      7.06210736      1.00000000
     -2.241  0.0000E+00  0.0000E+00
     -2.177  0.0000E+00  0.0000E+00
     -2.113  0.0000E+00  0.0000E+00
     -2.048  0.0000E+00  0.0000E+00
     -1.984  0.0000E+00  0.0000E+00
     -1.920  0.0000E+00  0.0000E+00
     -1.856  0.0000E+00  0.0000E+00
     -1.791  0.3227E-18  0.2072E-19
     -1.727  0.2990E-15  0.1922E-16
     -1.663  0.1216E-12  0.7829E-14
     -1.599  0.2273E-10  0.1468E-11
     -1.535  0.1996E-08  0.1296E-09
     -1.470  0.8479E-07  0.5575E-08
     -1.406  0.1808E-05  0.1217E-06
     -1.342  0.2012E-04  0.1414E-05
     -1.278  0.1211E-03  0.9193E-05
     -1.213  0.4109E-03  0.3558E-04
     -1.149  0.8491E-03  0.9011E-04
     -1.085  0.1287E-02  0.1727E-03
     -1.021  0.1738E-02  0.2844E-03
     -0.957  0.2013E-02  0.4136E-03
     -0.892  0.2120E-02  0.5498E-03
     -0.828  0.2509E-02  0.7109E-03
     -0.764  0.2874E-02  0.8955E-03
     -0.700  0.3006E-02  0.1089E-02
     -0.635  0.3150E-02  0.1291E-02
     -0.571  0.3176E-02  0.1495E-02
     -0.507  0.3443E-02  0.1716E-02
     -0.443  0.4065E-02  0.1977E-02
     -0.379  0.4400E-02  0.2259E-02
     -0.314  0.4221E-02  0.2530E-02
     -0.250  0.3902E-02  0.2781E-02
     -0.186  0.4299E-02  0.3057E-02
     -0.122  0.5211E-02  0.3392E-02
     -0.058  0.5616E-02  0.3752E-02
      0.007  0.5385E-02  0.4098E-02
      0.071  0.5194E-02  0.4432E-02
      0.135  0.5752E-02  0.4801E-02
      0.199  0.6324E-02  0.5207E-02
      0.264  0.6375E-02  0.5617E-02
      0.328  0.6400E-02  0.6028E-02
      0.392  0.7019E-02  0.6478E-02
      0.456  0.7918E-02  0.6987E-02
      0.520  0.8336E-02  0.7522E-02
      0.585  0.8095E-02  0.8042E-02
      0.649  0.7993E-02  0.8555E-02
      0.713  0.9162E-02  0.9144E-02
      0.777  0.1105E-01  0.9853E-02
      0.842  0.1182E-01  0.1061E-01
      0.906  0.1183E-01  0.1137E-01
      0.970  0.1391E-01  0.1227E-01
      1.034  0.1890E-01  0.1348E-01
      1.098  0.2492E-01  0.1508E-01
      1.163  0.2901E-01  0.1694E-01
      1.227  0.3014E-01  0.1888E-01
      1.291  0.3263E-01  0.2097E-01
      1.355  0.3846E-01  0.2344E-01
      1.420  0.4487E-01  0.2632E-01
      1.484  0.5131E-01  0.2962E-01
      1.548  0.5845E-01  0.3337E-01
      1.612  0.6784E-01  0.3773E-01
      1.676  0.7843E-01  0.4277E-01
      1.741  0.8644E-01  0.4832E-01
      1.805  0.9105E-01  0.5417E-01
      1.869  0.9166E-01  0.6005E-01
      1.933  0.8963E-01  0.6581E-01
      1.998  0.8609E-01  0.7134E-01
      2.062  0.8290E-01  0.7666E-01
      2.126  0.8086E-01  0.8185E-01
      2.190  0.7741E-01  0.8682E-01
      2.254  0.7299E-01  0.9151E-01
      2.319  0.6759E-01  0.9585E-01
      2.383  0.6328E-01  0.9992E-01
      2.447  0.6526E-01  0.1041E+00
      2.511  0.7332E-01  0.1088E+00
      2.575  0.8361E-01  0.1142E+00
      2.640  0.9521E-01  0.1203E+00
      2.704  0.1049E+00  0.1270E+00
      2.768  0.1085E+00  0.1340E+00
      2.832  0.1083E+00  0.1410E+00
      2.897  0.1101E+00  0.1480E+00
      2.961  0.1129E+00  0.1553E+00
      3.025  0.1116E+00  0.1624E+00
      3.089  0.1076E+00  0.1694E+00
      3.153  0.1077E+00  0.1763E+00
      3.218  0.1181E+00  0.1839E+00
      3.282  0.1334E+00  0.1924E+00
      3.346  0.1408E+00  0.2015E+00
      3.410  0.1380E+00  0.2103E+00
      3.475  0.1327E+00  0.2188E+00
      3.539  0.1259E+00  0.2269E+00
      3.603  0.1143E+00  0.2343E+00
      3.667  0.1010E+00  0.2408E+00
      3.731  0.9231E-01  0.2467E+00
      3.796  0.8947E-01  0.2524E+00
      3.860  0.9074E-01  0.2583E+00
      3.924  0.9481E-01  0.2643E+00
      3.988  0.1002E+00  0.2708E+00
      4.053  0.1061E+00  0.2776E+00
      4.117  0.1110E+00  0.2847E+00
      4.181  0.1124E+00  0.2919E+00
      4.245  0.1099E+00  0.2990E+00
      4.309  0.1044E+00  0.3057E+00
      4.374  0.9972E-01  0.3121E+00
      4.438  0.9960E-01  0.3185E+00
      4.502  0.9997E-01  0.3249E+00
      4.566  0.9546E-01  0.3311E+00
      4.630  0.8963E-01  0.3368E+00
      4.695  0.8851E-01  0.3425E+00
      4.759  0.9094E-01  0.3483E+00
      4.823  0.9316E-01  0.3543E+00
      4.887  0.9826E-01  0.3606E+00
      4.952  0.1086E+00  0.3676E+00
      5.016  0.1202E+00  0.3753E+00
      5.080  0.1332E+00  0.3839E+00
      5.144  0.1441E+00  0.3931E+00
      5.208  0.1371E+00  0.4019E+00
      5.273  0.1080E+00  0.4089E+00
      5.337  0.7306E-01  0.4136E+00
      5.401  0.4820E-01  0.4167E+00
      5.465  0.3449E-01  0.4189E+00
      5.530  0.2563E-01  0.4205E+00
      5.594  0.1933E-01  0.4218E+00
      5.658  0.1459E-01  0.4227E+00
      5.722  0.1246E-01  0.4235E+00
      5.786  0.1178E-01  0.4243E+00
      5.851  0.1084E-01  0.4250E+00
      5.915  0.1177E-01  0.4257E+00
      5.979  0.1362E-01  0.4266E+00
      6.043  0.1378E-01  0.4275E+00
      6.108  0.1236E-01  0.4283E+00
      6.172  0.1062E-01  0.4289E+00
      6.236  0.1016E-01  0.4296E+00
      6.300  0.1187E-01  0.4304E+00
      6.364  0.1423E-01  0.4313E+00
      6.429  0.1475E-01  0.4322E+00
      6.493  0.1333E-01  0.4331E+00
      6.557  0.1103E-01  0.4338E+00
      6.621  0.9352E-02  0.4344E+00
      6.686  0.9187E-02  0.4350E+00
      6.750  0.1134E-01  0.4357E+00
      6.814  0.1498E-01  0.4367E+00
      6.878  0.1649E-01  0.4377E+00
      6.942  0.1466E-01  0.4387E+00
      7.007  0.1182E-01  0.4394E+00
      7.071  0.1030E-01  0.4401E+00
      7.135  0.1007E-01  0.4407E+00
      7.199  0.1051E-01  0.4414E+00
      7.263  0.1241E-01  0.4422E+00
      7.328  0.1457E-01  0.4431E+00
      7.392  0.1468E-01  0.4441E+00
      7.456  0.1350E-01  0.4450E+00
      7.520  0.1274E-01  0.4458E+00
      7.585  0.1233E-01  0.4466E+00
      7.649  0.1115E-01  0.4473E+00
      7.713  0.1024E-01  0.4479E+00
      7.777  0.1134E-01  0.4487E+00
      7.841  0.1254E-01  0.4495E+00
      7.906  0.1273E-01  0.4503E+00
      7.970  0.1296E-01  0.4511E+00
      8.034  0.1312E-01  0.4520E+00
      8.098  0.1262E-01  0.4528E+00
      8.163  0.1207E-01  0.4535E+00
      8.227  0.1207E-01  0.4543E+00
      8.291  0.1226E-01  0.4551E+00
      8.355  0.1219E-01  0.4559E+00
      8.419  0.1223E-01  0.4567E+00
      8.484  0.1232E-01  0.4575E+00
      8.548  0.1212E-01  0.4582E+00
      8.612  0.1179E-01  0.4590E+00
      8.676  0.1126E-01  0.4597E+00
      8.741  0.1092E-01  0.4604E+00
      8.805  0.1120E-01  0.4611E+00
      8.869  0.1247E-01  0.4619E+00
      8.933  0.1334E-01  0.4628E+00
      8.997  0.1259E-01  0.4636E+00
      9.062  0.1210E-01  0.4644E+00
      9.126  0.1238E-01  0.4652E+00
      9.190  0.1133E-01  0.4659E+00
      9.254  0.1025E-01  0.4666E+00
      9.319  0.1189E-01  0.4673E+00
      9.383  0.1542E-01  0.4683E+00
      9.447  0.1938E-01  0.4696E+00
      9.511  0.2147E-01  0.4710E+00
      9.575  0.1927E-01  0.4722E+00
      9.640  0.1599E-01  0.4732E+00
      9.704  0.1476E-01  0.4742E+00
      9.768  0.1488E-01  0.4751E+00
      9.832  0.1564E-01  0.4761E+00
      9.896  0.1571E-01  0.4771E+00
      9.961  0.1535E-01  0.4781E+00
     10.025  0.1593E-01  0.4791E+00
     10.089  0.1551E-01  0.4801E+00
     10.153  0.1235E-01  0.4809E+00
     10.218  0.9740E-02  0.4816E+00
     10.282  0.1073E-01  0.4822E+00
     10.346  0.1293E-01  0.4831E+00
     10.410  0.1287E-01  0.4839E+00
     10.474  0.1153E-01  0.4846E+00
     10.539  0.1094E-01  0.4853E+00
     10.603  0.1017E-01  0.4860E+00
     10.667  0.9358E-02  0.4866E+00
     10.731  0.9750E-02  0.4872E+00
     10.796  0.1047E-01  0.4879E+00
     10.860  0.1062E-01  0.4886E+00
     10.924  0.1101E-01  0.4893E+00
     10.988  0.1182E-01  0.4900E+00
     11.052  0.1238E-01  0.4908E+00
     11.117  0.1266E-01  0.4917E+00
     11.181  0.1225E-01  0.4924E+00
     11.245  0.1093E-01  0.4931E+00
     11.309  0.1086E-01  0.4938E+00
     11.374  0.1313E-01  0.4947E+00
     11.438  0.1555E-01  0.4957E+00
     11.502  0.1613E-01  0.4967E+00
     11.566  0.1551E-01  0.4977E+00
     11.630  0.1524E-01  0.4987E+00
     11.695  0.1592E-01  0.4997E+00
     11.759  0.1712E-01  0.5008E+00
     11.823  0.1717E-01  0.5019E+00
     11.887  0.1512E-01  0.5029E+00
     11.952  0.1315E-01  0.5037E+00
     12.016  0.1387E-01  0.5046E+00
     12.080  0.1617E-01  0.5057E+00
     12.144  0.1644E-01  0.5067E+00
     12.208  0.1389E-01  0.5076E+00
     12.273  0.1156E-01  0.5084E+00
     12.337  0.1162E-01  0.5091E+00
     12.401  0.1285E-01  0.5099E+00
     12.465  0.1383E-01  0.5108E+00
     12.529  0.1424E-01  0.5117E+00
     12.594  0.1367E-01  0.5126E+00
     12.658  0.1278E-01  0.5134E+00
     12.722  0.1237E-01  0.5142E+00
     12.786  0.1286E-01  0.5150E+00
     12.851  0.1420E-01  0.5160E+00
     12.915  0.1500E-01  0.5169E+00
     12.979  0.1404E-01  0.5178E+00
     13.043  0.1233E-01  0.5186E+00
     13.107  0.1126E-01  0.5193E+00
     13.172  0.1086E-01  0.5200E+00
     13.236  0.1067E-01  0.5207E+00
     13.300  0.1052E-01  0.5214E+00
     13.364  0.1071E-01  0.5221E+00
     13.429  0.1038E-01  0.5227E+00
     13.493  0.9343E-02  0.5233E+00
     13.557  0.9746E-02  0.5240E+00
     13.621  0.1107E-01  0.5247E+00
     13.685  0.1050E-01  0.5254E+00
     13.750  0.8820E-02  0.5259E+00
     13.814  0.9179E-02  0.5265E+00
     13.878  0.1253E-01  0.5273E+00
     13.942  0.1645E-01  0.5284E+00
     14.007  0.1705E-01  0.5295E+00
     14.071  0.1524E-01  0.5305E+00
     14.135  0.1362E-01  0.5313E+00
     14.199  0.1157E-01  0.5321E+00
     14.263  0.8408E-02  0.5326E+00
     14.328  0.6418E-02  0.5330E+00
     14.392  0.7065E-02  0.5335E+00
     14.456  0.8697E-02  0.5340E+00
     14.520  0.9460E-02  0.5346E+00
     14.585  0.9115E-02  0.5352E+00
     14.649  0.8080E-02  0.5357E+00
     14.713  0.6982E-02  0.5362E+00
     14.777  0.6439E-02  0.5366E+00
     14.841  0.6739E-02  0.5370E+00
     14.906  0.7323E-02  0.5375E+00
     14.970  0.6679E-02  0.5379E+00
     15.034  0.5017E-02  0.5383E+00
     15.098  0.3788E-02  0.5385E+00
     15.162  0.2955E-02  0.5387E+00
     15.227  0.2564E-02  0.5389E+00
     15.291  0.2977E-02  0.5390E+00
     15.355  0.3574E-02  0.5393E+00
     15.419  0.3094E-02  0.5395E+00
     15.484  0.1695E-02  0.5396E+00
     15.548  0.9553E-03  0.5396E+00
     15.612  0.9593E-03  0.5397E+00
     15.676  0.8974E-03  0.5398E+00
     15.740  0.6564E-03  0.5398E+00
     15.805  0.5656E-03  0.5398E+00
     15.869  0.5547E-03  0.5399E+00
     15.933  0.4472E-03  0.5399E+00
     15.997  0.4826E-03  0.5399E+00
     16.062  0.5216E-03  0.5400E+00
     16.126  0.3056E-03  0.5400E+00
     16.190  0.8452E-04  0.5400E+00
     16.254  0.1081E-04  0.5400E+00
     16.318  0.6335E-06  0.5400E+00
     16.383  0.1690E-07  0.5400E+00
     16.447  0.2039E-09  0.5400E+00
     16.511  0.1106E-11  0.5400E+00
     16.575  0.2686E-14  0.5400E+00
     16.640  0.2930E-17  0.5400E+00
     16.704  0.0000E+00  0.5400E+00
     16.768  0.0000E+00  0.5400E+00
     16.832  0.0000E+00  0.5400E+00
     16.896  0.0000E+00  0.5400E+00
     16.961  0.0000E+00  0.5400E+00
     17.025  0.0000E+00  0.5400E+00
