<?xml version="1.0" encoding="ISO-8859-1"?>
<modeling>
 <generator>
  <i name="program" type="string">vasp </i>
  <i name="version" type="string">5.4.4.18Apr17-6-g9f103f2a35  </i>
  <i name="subversion" type="string">(build Jan 14 2019 14:48:31) complex            parallel </i>
  <i name="platform" type="string">LinuxIFC </i>
  <i name="date" type="string">2019 09 29 </i>
  <i name="time" type="string">20:28:11 </i>
 </generator>
 <incar>
  <i type="int" name="ISTART">     0</i>
  <i type="string" name="PREC">accurate</i>
  <i type="string" name="ALGO"> Fast</i>
  <i type="int" name="ICHARG">     2</i>
  <i type="int" name="NELMIN">     4</i>
  <i type="int" name="IBRION">     2</i>
  <i name="EDIFF">      0.00000100</i>
  <i name="EDIFFG">     -0.02000000</i>
  <i type="int" name="NSW">   100</i>
  <i type="int" name="ISIF">     2</i>
  <i type="int" name="ISYM">     0</i>
  <i name="ENCUT">    500.00000000</i>
  <i name="POTIM">      0.20000000</i>
  <i type="int" name="ISMEAR">     0</i>
  <i name="SIGMA">      0.10000000</i>
  <i type="logical" name="LWAVE"> F  </i>
  <i type="logical" name="LCHARG"> F  </i>
  <v type="int" name="KPOINT_BSE">    -1     0     0     0</v>
 </incar>
 <structure name="primitive_cell" >
  <crystal>
   <varray name="basis" >
    <v>       4.38287366      -0.00000003      -0.00000006 </v>
    <v>      -0.00000003       4.38287323       0.00000014 </v>
    <v>      -0.00000006       0.00000015       4.15438227 </v>
   </varray>
   <i name="volume">     79.80393715 </i>
   <varray name="rec_basis" >
    <v>       0.22816081       0.00000000       0.00000000 </v>
    <v>       0.00000000       0.22816083      -0.00000001 </v>
    <v>       0.00000000      -0.00000001       0.24070967 </v>
   </varray>
  </crystal>
  <varray name="positions" >
   <v>      -0.00000000       0.00000000       0.00000000 </v>
   <v>       0.00000000       0.50000000      -0.50000000 </v>
   <v>      -0.50000000      -0.00000000       0.50000000 </v>
   <v>       0.50000000      -0.50000000      -0.00000000 </v>
  </varray>
 </structure>
 <varray name="primitive_index" >
  <v type="int" >        1 </v>
  <v type="int" >        2 </v>
  <v type="int" >        3 </v>
  <v type="int" >        4 </v>
 </varray>
 <kpoints>
  <generation param="Gamma">
   <v type="int" name="divisions">      15       15       15 </v>
   <v name="usershift">      0.00000000       0.00000000       0.00000000 </v>
   <v name="genvec1">      0.06666667       0.00000000       0.00000000 </v>
   <v name="genvec2">      0.00000000       0.06666667      -0.00000000 </v>
   <v name="genvec3">      0.00000000       0.00000000       0.06666667 </v>
   <v name="shift">      0.00000000       0.00000000       0.00000000 </v>
  </generation>
  <varray name="kpointlist" >
   <v>       0.00000000       0.00000000       0.00000000 </v>
   <v>       0.06666667      -0.00000000      -0.00000000 </v>
   <v>       0.13333333      -0.00000000       0.00000000 </v>
   <v>       0.20000000      -0.00000000       0.00000000 </v>
   <v>       0.26666667      -0.00000000       0.00000000 </v>
   <v>       0.33333333      -0.00000000       0.00000000 </v>
   <v>       0.40000000      -0.00000000       0.00000000 </v>
   <v>       0.46666667      -0.00000000       0.00000000 </v>
   <v>       0.00000000       0.06666667       0.00000000 </v>
   <v>       0.06666667       0.06666667      -0.00000000 </v>
   <v>       0.13333333       0.06666667       0.00000000 </v>
   <v>       0.20000000       0.06666667       0.00000000 </v>
   <v>       0.26666667       0.06666667       0.00000000 </v>
   <v>       0.33333333       0.06666667       0.00000000 </v>
   <v>       0.40000000       0.06666667       0.00000000 </v>
   <v>       0.46666667       0.06666667       0.00000000 </v>
   <v>      -0.46666667       0.06666667      -0.00000000 </v>
   <v>      -0.40000000       0.06666667       0.00000000 </v>
   <v>      -0.33333333       0.06666667       0.00000000 </v>
   <v>      -0.26666667       0.06666667       0.00000000 </v>
   <v>      -0.20000000       0.06666667       0.00000000 </v>
   <v>      -0.13333333       0.06666667       0.00000000 </v>
   <v>      -0.06666667       0.06666667       0.00000000 </v>
   <v>      -0.00000000       0.13333333       0.00000000 </v>
   <v>       0.06666667       0.13333333      -0.00000000 </v>
   <v>       0.13333333       0.13333333      -0.00000000 </v>
   <v>       0.20000000       0.13333333       0.00000000 </v>
   <v>       0.26666667       0.13333333       0.00000000 </v>
   <v>       0.33333333       0.13333333       0.00000000 </v>
   <v>       0.40000000       0.13333333       0.00000000 </v>
   <v>       0.46666667       0.13333333       0.00000000 </v>
   <v>      -0.46666667       0.13333333      -0.00000000 </v>
   <v>      -0.40000000       0.13333333      -0.00000000 </v>
   <v>      -0.33333333       0.13333333       0.00000000 </v>
   <v>      -0.26666667       0.13333333      -0.00000000 </v>
   <v>      -0.20000000       0.13333333      -0.00000000 </v>
   <v>      -0.13333333       0.13333333       0.00000000 </v>
   <v>      -0.06666667       0.13333333       0.00000000 </v>
   <v>      -0.00000000       0.20000000      -0.00000000 </v>
   <v>       0.06666667       0.20000000       0.00000000 </v>
   <v>       0.13333333       0.20000000       0.00000000 </v>
   <v>       0.20000000       0.20000000       0.00000000 </v>
   <v>       0.26666667       0.20000000      -0.00000000 </v>
   <v>       0.33333333       0.20000000       0.00000000 </v>
   <v>       0.40000000       0.20000000       0.00000000 </v>
   <v>       0.46666667       0.20000000       0.00000000 </v>
   <v>      -0.46666667       0.20000000      -0.00000000 </v>
   <v>      -0.40000000       0.20000000       0.00000000 </v>
   <v>      -0.33333333       0.20000000       0.00000000 </v>
   <v>      -0.26666667       0.20000000       0.00000000 </v>
   <v>      -0.20000000       0.20000000      -0.00000000 </v>
   <v>      -0.13333333       0.20000000       0.00000000 </v>
   <v>      -0.06666667       0.20000000       0.00000000 </v>
   <v>       0.00000000       0.26666667      -0.00000000 </v>
   <v>       0.06666667       0.26666667       0.00000000 </v>
   <v>       0.13333333       0.26666667      -0.00000000 </v>
   <v>       0.20000000       0.26666667       0.00000000 </v>
   <v>       0.26666667       0.26666667      -0.00000000 </v>
   <v>       0.33333333       0.26666667      -0.00000000 </v>
   <v>       0.40000000       0.26666667       0.00000000 </v>
   <v>       0.46666667       0.26666667       0.00000000 </v>
   <v>      -0.46666667       0.26666667      -0.00000000 </v>
   <v>      -0.40000000       0.26666667      -0.00000000 </v>
   <v>      -0.33333333       0.26666667      -0.00000000 </v>
   <v>      -0.26666667       0.26666667       0.00000000 </v>
   <v>      -0.20000000       0.26666667      -0.00000000 </v>
   <v>      -0.13333333       0.26666667      -0.00000000 </v>
   <v>      -0.06666667       0.26666667       0.00000000 </v>
   <v>      -0.00000000       0.33333333       0.00000000 </v>
   <v>       0.06666667       0.33333333       0.00000000 </v>
   <v>       0.13333333       0.33333333       0.00000000 </v>
   <v>       0.20000000       0.33333333      -0.00000000 </v>
   <v>       0.26666667       0.33333333       0.00000000 </v>
   <v>       0.33333333       0.33333333       0.00000000 </v>
   <v>       0.40000000       0.33333333       0.00000000 </v>
   <v>       0.46666667       0.33333333       0.00000000 </v>
   <v>      -0.46666667       0.33333333      -0.00000000 </v>
   <v>      -0.40000000       0.33333333       0.00000000 </v>
   <v>      -0.33333333       0.33333333      -0.00000000 </v>
   <v>      -0.26666667       0.33333333       0.00000000 </v>
   <v>      -0.20000000       0.33333333       0.00000000 </v>
   <v>      -0.13333333       0.33333333      -0.00000000 </v>
   <v>      -0.06666667       0.33333333       0.00000000 </v>
   <v>      -0.00000000       0.40000000      -0.00000000 </v>
   <v>       0.06666667       0.40000000       0.00000000 </v>
   <v>       0.13333333       0.40000000       0.00000000 </v>
   <v>       0.20000000       0.40000000      -0.00000000 </v>
   <v>       0.26666667       0.40000000       0.00000000 </v>
   <v>       0.33333333       0.40000000       0.00000000 </v>
   <v>       0.40000000       0.40000000       0.00000000 </v>
   <v>       0.46666667       0.40000000       0.00000000 </v>
   <v>      -0.46666667       0.40000000       0.00000000 </v>
   <v>      -0.40000000       0.40000000      -0.00000000 </v>
   <v>      -0.33333333       0.40000000       0.00000000 </v>
   <v>      -0.26666667       0.40000000       0.00000000 </v>
   <v>      -0.20000000       0.40000000       0.00000000 </v>
   <v>      -0.13333333       0.40000000       0.00000000 </v>
   <v>      -0.06666667       0.40000000       0.00000000 </v>
   <v>      -0.00000000       0.46666667       0.00000000 </v>
   <v>       0.06666667       0.46666667       0.00000000 </v>
   <v>       0.13333333       0.46666667       0.00000000 </v>
   <v>       0.20000000       0.46666667      -0.00000000 </v>
   <v>       0.26666667       0.46666667      -0.00000000 </v>
   <v>       0.33333333       0.46666667       0.00000000 </v>
   <v>       0.40000000       0.46666667       0.00000000 </v>
   <v>       0.46666667       0.46666667       0.00000000 </v>
   <v>      -0.46666667       0.46666667       0.00000000 </v>
   <v>      -0.40000000       0.46666667       0.00000000 </v>
   <v>      -0.33333333       0.46666667      -0.00000000 </v>
   <v>      -0.26666667       0.46666667       0.00000000 </v>
   <v>      -0.20000000       0.46666667       0.00000000 </v>
   <v>      -0.13333333       0.46666667       0.00000000 </v>
   <v>      -0.06666667       0.46666667      -0.00000000 </v>
   <v>      -0.00000000       0.00000000       0.06666667 </v>
   <v>       0.06666667       0.00000000       0.06666667 </v>
   <v>       0.13333333       0.00000000       0.06666667 </v>
   <v>       0.20000000      -0.00000000       0.06666667 </v>
   <v>       0.26666667      -0.00000000       0.06666667 </v>
   <v>       0.33333333      -0.00000000       0.06666667 </v>
   <v>       0.40000000      -0.00000000       0.06666667 </v>
   <v>       0.46666667      -0.00000000       0.06666667 </v>
   <v>      -0.46666667       0.00000000       0.06666667 </v>
   <v>      -0.40000000       0.00000000       0.06666667 </v>
   <v>      -0.33333333       0.00000000       0.06666667 </v>
   <v>      -0.26666667       0.00000000       0.06666667 </v>
   <v>      -0.20000000      -0.00000000       0.06666667 </v>
   <v>      -0.13333333       0.00000000       0.06666667 </v>
   <v>      -0.06666667       0.00000000       0.06666667 </v>
   <v>       0.00000000       0.06666667       0.06666667 </v>
   <v>       0.06666667       0.06666667       0.06666667 </v>
   <v>       0.13333333       0.06666667       0.06666667 </v>
   <v>       0.20000000       0.06666667       0.06666667 </v>
   <v>       0.26666667       0.06666667       0.06666667 </v>
   <v>       0.33333333       0.06666667       0.06666667 </v>
   <v>       0.40000000       0.06666667       0.06666667 </v>
   <v>       0.46666667       0.06666667       0.06666667 </v>
   <v>      -0.46666667       0.06666667       0.06666667 </v>
   <v>      -0.40000000       0.06666667       0.06666667 </v>
   <v>      -0.33333333       0.06666667       0.06666667 </v>
   <v>      -0.26666667       0.06666667       0.06666667 </v>
   <v>      -0.20000000       0.06666667       0.06666667 </v>
   <v>      -0.13333333       0.06666667       0.06666667 </v>
   <v>      -0.06666667       0.06666667       0.06666667 </v>
   <v>       0.00000000       0.13333333       0.06666667 </v>
   <v>       0.06666667       0.13333333       0.06666667 </v>
   <v>       0.13333333       0.13333333       0.06666667 </v>
   <v>       0.20000000       0.13333333       0.06666667 </v>
   <v>       0.26666667       0.13333333       0.06666667 </v>
   <v>       0.33333333       0.13333333       0.06666667 </v>
   <v>       0.40000000       0.13333333       0.06666667 </v>
   <v>       0.46666667       0.13333333       0.06666667 </v>
   <v>      -0.46666667       0.13333333       0.06666667 </v>
   <v>      -0.40000000       0.13333333       0.06666667 </v>
   <v>      -0.33333333       0.13333333       0.06666667 </v>
   <v>      -0.26666667       0.13333333       0.06666667 </v>
   <v>      -0.20000000       0.13333333       0.06666667 </v>
   <v>      -0.13333333       0.13333333       0.06666667 </v>
   <v>      -0.06666667       0.13333333       0.06666667 </v>
   <v>      -0.00000000       0.20000000       0.06666667 </v>
   <v>       0.06666667       0.20000000       0.06666667 </v>
   <v>       0.13333333       0.20000000       0.06666667 </v>
   <v>       0.20000000       0.20000000       0.06666667 </v>
   <v>       0.26666667       0.20000000       0.06666667 </v>
   <v>       0.33333333       0.20000000       0.06666667 </v>
   <v>       0.40000000       0.20000000       0.06666667 </v>
   <v>       0.46666667       0.20000000       0.06666667 </v>
   <v>      -0.46666667       0.20000000       0.06666667 </v>
   <v>      -0.40000000       0.20000000       0.06666667 </v>
   <v>      -0.33333333       0.20000000       0.06666667 </v>
   <v>      -0.26666667       0.20000000       0.06666667 </v>
   <v>      -0.20000000       0.20000000       0.06666667 </v>
   <v>      -0.13333333       0.20000000       0.06666667 </v>
   <v>      -0.06666667       0.20000000       0.06666667 </v>
   <v>       0.00000000       0.26666667       0.06666667 </v>
   <v>       0.06666667       0.26666667       0.06666667 </v>
   <v>       0.13333333       0.26666667       0.06666667 </v>
   <v>       0.20000000       0.26666667       0.06666667 </v>
   <v>       0.26666667       0.26666667       0.06666667 </v>
   <v>       0.33333333       0.26666667       0.06666667 </v>
   <v>       0.40000000       0.26666667       0.06666667 </v>
   <v>       0.46666667       0.26666667       0.06666667 </v>
   <v>      -0.46666667       0.26666667       0.06666667 </v>
   <v>      -0.40000000       0.26666667       0.06666667 </v>
   <v>      -0.33333333       0.26666667       0.06666667 </v>
   <v>      -0.26666667       0.26666667       0.06666667 </v>
   <v>      -0.20000000       0.26666667       0.06666667 </v>
   <v>      -0.13333333       0.26666667       0.06666667 </v>
   <v>      -0.06666667       0.26666667       0.06666667 </v>
   <v>      -0.00000000       0.33333333       0.06666667 </v>
   <v>       0.06666667       0.33333333       0.06666667 </v>
   <v>       0.13333333       0.33333333       0.06666667 </v>
   <v>       0.20000000       0.33333333       0.06666667 </v>
   <v>       0.26666667       0.33333333       0.06666667 </v>
   <v>       0.33333333       0.33333333       0.06666667 </v>
   <v>       0.40000000       0.33333333       0.06666667 </v>
   <v>       0.46666667       0.33333333       0.06666667 </v>
   <v>      -0.46666667       0.33333333       0.06666667 </v>
   <v>      -0.40000000       0.33333333       0.06666667 </v>
   <v>      -0.33333333       0.33333333       0.06666667 </v>
   <v>      -0.26666667       0.33333333       0.06666667 </v>
   <v>      -0.20000000       0.33333333       0.06666667 </v>
   <v>      -0.13333333       0.33333333       0.06666667 </v>
   <v>      -0.06666667       0.33333333       0.06666667 </v>
   <v>       0.00000000       0.40000000       0.06666667 </v>
   <v>       0.06666667       0.40000000       0.06666667 </v>
   <v>       0.13333333       0.40000000       0.06666667 </v>
   <v>       0.20000000       0.40000000       0.06666667 </v>
   <v>       0.26666667       0.40000000       0.06666667 </v>
   <v>       0.33333333       0.40000000       0.06666667 </v>
   <v>       0.40000000       0.40000000       0.06666667 </v>
   <v>       0.46666667       0.40000000       0.06666667 </v>
   <v>      -0.46666667       0.40000000       0.06666667 </v>
   <v>      -0.40000000       0.40000000       0.06666667 </v>
   <v>      -0.33333333       0.40000000       0.06666667 </v>
   <v>      -0.26666667       0.40000000       0.06666667 </v>
   <v>      -0.20000000       0.40000000       0.06666667 </v>
   <v>      -0.13333333       0.40000000       0.06666667 </v>
   <v>      -0.06666667       0.40000000       0.06666667 </v>
   <v>      -0.00000000       0.46666667       0.06666667 </v>
   <v>       0.06666667       0.46666667       0.06666667 </v>
   <v>       0.13333333       0.46666667       0.06666667 </v>
   <v>       0.20000000       0.46666667       0.06666667 </v>
   <v>       0.26666667       0.46666667       0.06666667 </v>
   <v>       0.33333333       0.46666667       0.06666667 </v>
   <v>       0.40000000       0.46666667       0.06666667 </v>
   <v>       0.46666667       0.46666667       0.06666667 </v>
   <v>      -0.46666667       0.46666667       0.06666667 </v>
   <v>      -0.40000000       0.46666667       0.06666667 </v>
   <v>      -0.33333333       0.46666667       0.06666667 </v>
   <v>      -0.26666667       0.46666667       0.06666667 </v>
   <v>      -0.20000000       0.46666667       0.06666667 </v>
   <v>      -0.13333333       0.46666667       0.06666667 </v>
   <v>      -0.06666667       0.46666667       0.06666667 </v>
   <v>       0.00000000      -0.46666667       0.06666667 </v>
   <v>       0.06666667      -0.46666667       0.06666667 </v>
   <v>       0.13333333      -0.46666667       0.06666667 </v>
   <v>       0.20000000      -0.46666667       0.06666667 </v>
   <v>       0.26666667      -0.46666667       0.06666667 </v>
   <v>       0.33333333      -0.46666667       0.06666667 </v>
   <v>       0.40000000      -0.46666667       0.06666667 </v>
   <v>       0.46666667      -0.46666667       0.06666667 </v>
   <v>      -0.46666667      -0.46666667       0.06666667 </v>
   <v>      -0.40000000      -0.46666667       0.06666667 </v>
   <v>      -0.33333333      -0.46666667       0.06666667 </v>
   <v>      -0.26666667      -0.46666667       0.06666667 </v>
   <v>      -0.20000000      -0.46666667       0.06666667 </v>
   <v>      -0.13333333      -0.46666667       0.06666667 </v>
   <v>      -0.06666667      -0.46666667       0.06666667 </v>
   <v>       0.00000000      -0.40000000       0.06666667 </v>
   <v>       0.06666667      -0.40000000       0.06666667 </v>
   <v>       0.13333333      -0.40000000       0.06666667 </v>
   <v>       0.20000000      -0.40000000       0.06666667 </v>
   <v>       0.26666667      -0.40000000       0.06666667 </v>
   <v>       0.33333333      -0.40000000       0.06666667 </v>
   <v>       0.40000000      -0.40000000       0.06666667 </v>
   <v>       0.46666667      -0.40000000       0.06666667 </v>
   <v>      -0.46666667      -0.40000000       0.06666667 </v>
   <v>      -0.40000000      -0.40000000       0.06666667 </v>
   <v>      -0.33333333      -0.40000000       0.06666667 </v>
   <v>      -0.26666667      -0.40000000       0.06666667 </v>
   <v>      -0.20000000      -0.40000000       0.06666667 </v>
   <v>      -0.13333333      -0.40000000       0.06666667 </v>
   <v>      -0.06666667      -0.40000000       0.06666667 </v>
   <v>       0.00000000      -0.33333333       0.06666667 </v>
   <v>       0.06666667      -0.33333333       0.06666667 </v>
   <v>       0.13333333      -0.33333333       0.06666667 </v>
   <v>       0.20000000      -0.33333333       0.06666667 </v>
   <v>       0.26666667      -0.33333333       0.06666667 </v>
   <v>       0.33333333      -0.33333333       0.06666667 </v>
   <v>       0.40000000      -0.33333333       0.06666667 </v>
   <v>       0.46666667      -0.33333333       0.06666667 </v>
   <v>      -0.46666667      -0.33333333       0.06666667 </v>
   <v>      -0.40000000      -0.33333333       0.06666667 </v>
   <v>      -0.33333333      -0.33333333       0.06666667 </v>
   <v>      -0.26666667      -0.33333333       0.06666667 </v>
   <v>      -0.20000000      -0.33333333       0.06666667 </v>
   <v>      -0.13333333      -0.33333333       0.06666667 </v>
   <v>      -0.06666667      -0.33333333       0.06666667 </v>
   <v>       0.00000000      -0.26666667       0.06666667 </v>
   <v>       0.06666667      -0.26666667       0.06666667 </v>
   <v>       0.13333333      -0.26666667       0.06666667 </v>
   <v>       0.20000000      -0.26666667       0.06666667 </v>
   <v>       0.26666667      -0.26666667       0.06666667 </v>
   <v>       0.33333333      -0.26666667       0.06666667 </v>
   <v>       0.40000000      -0.26666667       0.06666667 </v>
   <v>       0.46666667      -0.26666667       0.06666667 </v>
   <v>      -0.46666667      -0.26666667       0.06666667 </v>
   <v>      -0.40000000      -0.26666667       0.06666667 </v>
   <v>      -0.33333333      -0.26666667       0.06666667 </v>
   <v>      -0.26666667      -0.26666667       0.06666667 </v>
   <v>      -0.20000000      -0.26666667       0.06666667 </v>
   <v>      -0.13333333      -0.26666667       0.06666667 </v>
   <v>      -0.06666667      -0.26666667       0.06666667 </v>
   <v>       0.00000000      -0.20000000       0.06666667 </v>
   <v>       0.06666667      -0.20000000       0.06666667 </v>
   <v>       0.13333333      -0.20000000       0.06666667 </v>
   <v>       0.20000000      -0.20000000       0.06666667 </v>
   <v>       0.26666667      -0.20000000       0.06666667 </v>
   <v>       0.33333333      -0.20000000       0.06666667 </v>
   <v>       0.40000000      -0.20000000       0.06666667 </v>
   <v>       0.46666667      -0.20000000       0.06666667 </v>
   <v>      -0.46666667      -0.20000000       0.06666667 </v>
   <v>      -0.40000000      -0.20000000       0.06666667 </v>
   <v>      -0.33333333      -0.20000000       0.06666667 </v>
   <v>      -0.26666667      -0.20000000       0.06666667 </v>
   <v>      -0.20000000      -0.20000000       0.06666667 </v>
   <v>      -0.13333333      -0.20000000       0.06666667 </v>
   <v>      -0.06666667      -0.20000000       0.06666667 </v>
   <v>       0.00000000      -0.13333333       0.06666667 </v>
   <v>       0.06666667      -0.13333333       0.06666667 </v>
   <v>       0.13333333      -0.13333333       0.06666667 </v>
   <v>       0.20000000      -0.13333333       0.06666667 </v>
   <v>       0.26666667      -0.13333333       0.06666667 </v>
   <v>       0.33333333      -0.13333333       0.06666667 </v>
   <v>       0.40000000      -0.13333333       0.06666667 </v>
   <v>       0.46666667      -0.13333333       0.06666667 </v>
   <v>      -0.46666667      -0.13333333       0.06666667 </v>
   <v>      -0.40000000      -0.13333333       0.06666667 </v>
   <v>      -0.33333333      -0.13333333       0.06666667 </v>
   <v>      -0.26666667      -0.13333333       0.06666667 </v>
   <v>      -0.20000000      -0.13333333       0.06666667 </v>
   <v>      -0.13333333      -0.13333333       0.06666667 </v>
   <v>      -0.06666667      -0.13333333       0.06666667 </v>
   <v>       0.00000000      -0.06666667       0.06666667 </v>
   <v>       0.06666667      -0.06666667       0.06666667 </v>
   <v>       0.13333333      -0.06666667       0.06666667 </v>
   <v>       0.20000000      -0.06666667       0.06666667 </v>
   <v>       0.26666667      -0.06666667       0.06666667 </v>
   <v>       0.33333333      -0.06666667       0.06666667 </v>
   <v>       0.40000000      -0.06666667       0.06666667 </v>
   <v>       0.46666667      -0.06666667       0.06666667 </v>
   <v>      -0.46666667      -0.06666667       0.06666667 </v>
   <v>      -0.40000000      -0.06666667       0.06666667 </v>
   <v>      -0.33333333      -0.06666667       0.06666667 </v>
   <v>      -0.26666667      -0.06666667       0.06666667 </v>
   <v>      -0.20000000      -0.06666667       0.06666667 </v>
   <v>      -0.13333333      -0.06666667       0.06666667 </v>
   <v>      -0.06666667      -0.06666667       0.06666667 </v>
   <v>       0.00000000       0.00000000       0.13333333 </v>
   <v>       0.06666667       0.00000000       0.13333333 </v>
   <v>       0.13333333       0.00000000       0.13333333 </v>
   <v>       0.20000000      -0.00000000       0.13333333 </v>
   <v>       0.26666667       0.00000000       0.13333333 </v>
   <v>       0.33333333      -0.00000000       0.13333333 </v>
   <v>       0.40000000       0.00000000       0.13333333 </v>
   <v>       0.46666667      -0.00000000       0.13333333 </v>
   <v>      -0.46666667       0.00000000       0.13333333 </v>
   <v>      -0.40000000       0.00000000       0.13333333 </v>
   <v>      -0.33333333       0.00000000       0.13333333 </v>
   <v>      -0.26666667       0.00000000       0.13333333 </v>
   <v>      -0.20000000       0.00000000       0.13333333 </v>
   <v>      -0.13333333       0.00000000       0.13333333 </v>
   <v>      -0.06666667       0.00000000       0.13333333 </v>
   <v>       0.00000000       0.06666667       0.13333333 </v>
   <v>       0.06666667       0.06666667       0.13333333 </v>
   <v>       0.13333333       0.06666667       0.13333333 </v>
   <v>       0.20000000       0.06666667       0.13333333 </v>
   <v>       0.26666667       0.06666667       0.13333333 </v>
   <v>       0.33333333       0.06666667       0.13333333 </v>
   <v>       0.40000000       0.06666667       0.13333333 </v>
   <v>       0.46666667       0.06666667       0.13333333 </v>
   <v>      -0.46666667       0.06666667       0.13333333 </v>
   <v>      -0.40000000       0.06666667       0.13333333 </v>
   <v>      -0.33333333       0.06666667       0.13333333 </v>
   <v>      -0.26666667       0.06666667       0.13333333 </v>
   <v>      -0.20000000       0.06666667       0.13333333 </v>
   <v>      -0.13333333       0.06666667       0.13333333 </v>
   <v>      -0.06666667       0.06666667       0.13333333 </v>
   <v>       0.00000000       0.13333333       0.13333333 </v>
   <v>       0.06666667       0.13333333       0.13333333 </v>
   <v>       0.13333333       0.13333333       0.13333333 </v>
   <v>       0.20000000       0.13333333       0.13333333 </v>
   <v>       0.26666667       0.13333333       0.13333333 </v>
   <v>       0.33333333       0.13333333       0.13333333 </v>
   <v>       0.40000000       0.13333333       0.13333333 </v>
   <v>       0.46666667       0.13333333       0.13333333 </v>
   <v>      -0.46666667       0.13333333       0.13333333 </v>
   <v>      -0.40000000       0.13333333       0.13333333 </v>
   <v>      -0.33333333       0.13333333       0.13333333 </v>
   <v>      -0.26666667       0.13333333       0.13333333 </v>
   <v>      -0.20000000       0.13333333       0.13333333 </v>
   <v>      -0.13333333       0.13333333       0.13333333 </v>
   <v>      -0.06666667       0.13333333       0.13333333 </v>
   <v>       0.00000000       0.20000000       0.13333333 </v>
   <v>       0.06666667       0.20000000       0.13333333 </v>
   <v>       0.13333333       0.20000000       0.13333333 </v>
   <v>       0.20000000       0.20000000       0.13333333 </v>
   <v>       0.26666667       0.20000000       0.13333333 </v>
   <v>       0.33333333       0.20000000       0.13333333 </v>
   <v>       0.40000000       0.20000000       0.13333333 </v>
   <v>       0.46666667       0.20000000       0.13333333 </v>
   <v>      -0.46666667       0.20000000       0.13333333 </v>
   <v>      -0.40000000       0.20000000       0.13333333 </v>
   <v>      -0.33333333       0.20000000       0.13333333 </v>
   <v>      -0.26666667       0.20000000       0.13333333 </v>
   <v>      -0.20000000       0.20000000       0.13333333 </v>
   <v>      -0.13333333       0.20000000       0.13333333 </v>
   <v>      -0.06666667       0.20000000       0.13333333 </v>
   <v>      -0.00000000       0.26666667       0.13333333 </v>
   <v>       0.06666667       0.26666667       0.13333333 </v>
   <v>       0.13333333       0.26666667       0.13333333 </v>
   <v>       0.20000000       0.26666667       0.13333333 </v>
   <v>       0.26666667       0.26666667       0.13333333 </v>
   <v>       0.33333333       0.26666667       0.13333333 </v>
   <v>       0.40000000       0.26666667       0.13333333 </v>
   <v>       0.46666667       0.26666667       0.13333333 </v>
   <v>      -0.46666667       0.26666667       0.13333333 </v>
   <v>      -0.40000000       0.26666667       0.13333333 </v>
   <v>      -0.33333333       0.26666667       0.13333333 </v>
   <v>      -0.26666667       0.26666667       0.13333333 </v>
   <v>      -0.20000000       0.26666667       0.13333333 </v>
   <v>      -0.13333333       0.26666667       0.13333333 </v>
   <v>      -0.06666667       0.26666667       0.13333333 </v>
   <v>      -0.00000000       0.33333333       0.13333333 </v>
   <v>       0.06666667       0.33333333       0.13333333 </v>
   <v>       0.13333333       0.33333333       0.13333333 </v>
   <v>       0.20000000       0.33333333       0.13333333 </v>
   <v>       0.26666667       0.33333333       0.13333333 </v>
   <v>       0.33333333       0.33333333       0.13333333 </v>
   <v>       0.40000000       0.33333333       0.13333333 </v>
   <v>       0.46666667       0.33333333       0.13333333 </v>
   <v>      -0.46666667       0.33333333       0.13333333 </v>
   <v>      -0.40000000       0.33333333       0.13333333 </v>
   <v>      -0.33333333       0.33333333       0.13333333 </v>
   <v>      -0.26666667       0.33333333       0.13333333 </v>
   <v>      -0.20000000       0.33333333       0.13333333 </v>
   <v>      -0.13333333       0.33333333       0.13333333 </v>
   <v>      -0.06666667       0.33333333       0.13333333 </v>
   <v>       0.00000000       0.40000000       0.13333333 </v>
   <v>       0.06666667       0.40000000       0.13333333 </v>
   <v>       0.13333333       0.40000000       0.13333333 </v>
   <v>       0.20000000       0.40000000       0.13333333 </v>
   <v>       0.26666667       0.40000000       0.13333333 </v>
   <v>       0.33333333       0.40000000       0.13333333 </v>
   <v>       0.40000000       0.40000000       0.13333333 </v>
   <v>       0.46666667       0.40000000       0.13333333 </v>
   <v>      -0.46666667       0.40000000       0.13333333 </v>
   <v>      -0.40000000       0.40000000       0.13333333 </v>
   <v>      -0.33333333       0.40000000       0.13333333 </v>
   <v>      -0.26666667       0.40000000       0.13333333 </v>
   <v>      -0.20000000       0.40000000       0.13333333 </v>
   <v>      -0.13333333       0.40000000       0.13333333 </v>
   <v>      -0.06666667       0.40000000       0.13333333 </v>
   <v>       0.00000000       0.46666667       0.13333333 </v>
   <v>       0.06666667       0.46666667       0.13333333 </v>
   <v>       0.13333333       0.46666667       0.13333333 </v>
   <v>       0.20000000       0.46666667       0.13333333 </v>
   <v>       0.26666667       0.46666667       0.13333333 </v>
   <v>       0.33333333       0.46666667       0.13333333 </v>
   <v>       0.40000000       0.46666667       0.13333333 </v>
   <v>       0.46666667       0.46666667       0.13333333 </v>
   <v>      -0.46666667       0.46666667       0.13333333 </v>
   <v>      -0.40000000       0.46666667       0.13333333 </v>
   <v>      -0.33333333       0.46666667       0.13333333 </v>
   <v>      -0.26666667       0.46666667       0.13333333 </v>
   <v>      -0.20000000       0.46666667       0.13333333 </v>
   <v>      -0.13333333       0.46666667       0.13333333 </v>
   <v>      -0.06666667       0.46666667       0.13333333 </v>
   <v>       0.00000000      -0.46666667       0.13333333 </v>
   <v>       0.06666667      -0.46666667       0.13333333 </v>
   <v>       0.13333333      -0.46666667       0.13333333 </v>
   <v>       0.20000000      -0.46666667       0.13333333 </v>
   <v>       0.26666667      -0.46666667       0.13333333 </v>
   <v>       0.33333333      -0.46666667       0.13333333 </v>
   <v>       0.40000000      -0.46666667       0.13333333 </v>
   <v>       0.46666667      -0.46666667       0.13333333 </v>
   <v>      -0.46666667      -0.46666667       0.13333333 </v>
   <v>      -0.40000000      -0.46666667       0.13333333 </v>
   <v>      -0.33333333      -0.46666667       0.13333333 </v>
   <v>      -0.26666667      -0.46666667       0.13333333 </v>
   <v>      -0.20000000      -0.46666667       0.13333333 </v>
   <v>      -0.13333333      -0.46666667       0.13333333 </v>
   <v>      -0.06666667      -0.46666667       0.13333333 </v>
   <v>       0.00000000      -0.40000000       0.13333333 </v>
   <v>       0.06666667      -0.40000000       0.13333333 </v>
   <v>       0.13333333      -0.40000000       0.13333333 </v>
   <v>       0.20000000      -0.40000000       0.13333333 </v>
   <v>       0.26666667      -0.40000000       0.13333333 </v>
   <v>       0.33333333      -0.40000000       0.13333333 </v>
   <v>       0.40000000      -0.40000000       0.13333333 </v>
   <v>       0.46666667      -0.40000000       0.13333333 </v>
   <v>      -0.46666667      -0.40000000       0.13333333 </v>
   <v>      -0.40000000      -0.40000000       0.13333333 </v>
   <v>      -0.33333333      -0.40000000       0.13333333 </v>
   <v>      -0.26666667      -0.40000000       0.13333333 </v>
   <v>      -0.20000000      -0.40000000       0.13333333 </v>
   <v>      -0.13333333      -0.40000000       0.13333333 </v>
   <v>      -0.06666667      -0.40000000       0.13333333 </v>
   <v>       0.00000000      -0.33333333       0.13333333 </v>
   <v>       0.06666667      -0.33333333       0.13333333 </v>
   <v>       0.13333333      -0.33333333       0.13333333 </v>
   <v>       0.20000000      -0.33333333       0.13333333 </v>
   <v>       0.26666667      -0.33333333       0.13333333 </v>
   <v>       0.33333333      -0.33333333       0.13333333 </v>
   <v>       0.40000000      -0.33333333       0.13333333 </v>
   <v>       0.46666667      -0.33333333       0.13333333 </v>
   <v>      -0.46666667      -0.33333333       0.13333333 </v>
   <v>      -0.40000000      -0.33333333       0.13333333 </v>
   <v>      -0.33333333      -0.33333333       0.13333333 </v>
   <v>      -0.26666667      -0.33333333       0.13333333 </v>
   <v>      -0.20000000      -0.33333333       0.13333333 </v>
   <v>      -0.13333333      -0.33333333       0.13333333 </v>
   <v>      -0.06666667      -0.33333333       0.13333333 </v>
   <v>       0.00000000      -0.26666667       0.13333333 </v>
   <v>       0.06666667      -0.26666667       0.13333333 </v>
   <v>       0.13333333      -0.26666667       0.13333333 </v>
   <v>       0.20000000      -0.26666667       0.13333333 </v>
   <v>       0.26666667      -0.26666667       0.13333333 </v>
   <v>       0.33333333      -0.26666667       0.13333333 </v>
   <v>       0.40000000      -0.26666667       0.13333333 </v>
   <v>       0.46666667      -0.26666667       0.13333333 </v>
   <v>      -0.46666667      -0.26666667       0.13333333 </v>
   <v>      -0.40000000      -0.26666667       0.13333333 </v>
   <v>      -0.33333333      -0.26666667       0.13333333 </v>
   <v>      -0.26666667      -0.26666667       0.13333333 </v>
   <v>      -0.20000000      -0.26666667       0.13333333 </v>
   <v>      -0.13333333      -0.26666667       0.13333333 </v>
   <v>      -0.06666667      -0.26666667       0.13333333 </v>
   <v>       0.00000000      -0.20000000       0.13333333 </v>
   <v>       0.06666667      -0.20000000       0.13333333 </v>
   <v>       0.13333333      -0.20000000       0.13333333 </v>
   <v>       0.20000000      -0.20000000       0.13333333 </v>
   <v>       0.26666667      -0.20000000       0.13333333 </v>
   <v>       0.33333333      -0.20000000       0.13333333 </v>
   <v>       0.40000000      -0.20000000       0.13333333 </v>
   <v>       0.46666667      -0.20000000       0.13333333 </v>
   <v>      -0.46666667      -0.20000000       0.13333333 </v>
   <v>      -0.40000000      -0.20000000       0.13333333 </v>
   <v>      -0.33333333      -0.20000000       0.13333333 </v>
   <v>      -0.26666667      -0.20000000       0.13333333 </v>
   <v>      -0.20000000      -0.20000000       0.13333333 </v>
   <v>      -0.13333333      -0.20000000       0.13333333 </v>
   <v>      -0.06666667      -0.20000000       0.13333333 </v>
   <v>       0.00000000      -0.13333333       0.13333333 </v>
   <v>       0.06666667      -0.13333333       0.13333333 </v>
   <v>       0.13333333      -0.13333333       0.13333333 </v>
   <v>       0.20000000      -0.13333333       0.13333333 </v>
   <v>       0.26666667      -0.13333333       0.13333333 </v>
   <v>       0.33333333      -0.13333333       0.13333333 </v>
   <v>       0.40000000      -0.13333333       0.13333333 </v>
   <v>       0.46666667      -0.13333333       0.13333333 </v>
   <v>      -0.46666667      -0.13333333       0.13333333 </v>
   <v>      -0.40000000      -0.13333333       0.13333333 </v>
   <v>      -0.33333333      -0.13333333       0.13333333 </v>
   <v>      -0.26666667      -0.13333333       0.13333333 </v>
   <v>      -0.20000000      -0.13333333       0.13333333 </v>
   <v>      -0.13333333      -0.13333333       0.13333333 </v>
   <v>      -0.06666667      -0.13333333       0.13333333 </v>
   <v>       0.00000000      -0.06666667       0.13333333 </v>
   <v>       0.06666667      -0.06666667       0.13333333 </v>
   <v>       0.13333333      -0.06666667       0.13333333 </v>
   <v>       0.20000000      -0.06666667       0.13333333 </v>
   <v>       0.26666667      -0.06666667       0.13333333 </v>
   <v>       0.33333333      -0.06666667       0.13333333 </v>
   <v>       0.40000000      -0.06666667       0.13333333 </v>
   <v>       0.46666667      -0.06666667       0.13333333 </v>
   <v>      -0.46666667      -0.06666667       0.13333333 </v>
   <v>      -0.40000000      -0.06666667       0.13333333 </v>
   <v>      -0.33333333      -0.06666667       0.13333333 </v>
   <v>      -0.26666667      -0.06666667       0.13333333 </v>
   <v>      -0.20000000      -0.06666667       0.13333333 </v>
   <v>      -0.13333333      -0.06666667       0.13333333 </v>
   <v>      -0.06666667      -0.06666667       0.13333333 </v>
   <v>      -0.00000000       0.00000000       0.20000000 </v>
   <v>       0.06666667       0.00000000       0.20000000 </v>
   <v>       0.13333333       0.00000000       0.20000000 </v>
   <v>       0.20000000       0.00000000       0.20000000 </v>
   <v>       0.26666667       0.00000000       0.20000000 </v>
   <v>       0.33333333      -0.00000000       0.20000000 </v>
   <v>       0.40000000       0.00000000       0.20000000 </v>
   <v>       0.46666667      -0.00000000       0.20000000 </v>
   <v>      -0.46666667       0.00000000       0.20000000 </v>
   <v>      -0.40000000       0.00000000       0.20000000 </v>
   <v>      -0.33333333       0.00000000       0.20000000 </v>
   <v>      -0.26666667       0.00000000       0.20000000 </v>
   <v>      -0.20000000       0.00000000       0.20000000 </v>
   <v>      -0.13333333       0.00000000       0.20000000 </v>
   <v>      -0.06666667       0.00000000       0.20000000 </v>
   <v>      -0.00000000       0.06666667       0.20000000 </v>
   <v>       0.06666667       0.06666667       0.20000000 </v>
   <v>       0.13333333       0.06666667       0.20000000 </v>
   <v>       0.20000000       0.06666667       0.20000000 </v>
   <v>       0.26666667       0.06666667       0.20000000 </v>
   <v>       0.33333333       0.06666667       0.20000000 </v>
   <v>       0.40000000       0.06666667       0.20000000 </v>
   <v>       0.46666667       0.06666667       0.20000000 </v>
   <v>      -0.46666667       0.06666667       0.20000000 </v>
   <v>      -0.40000000       0.06666667       0.20000000 </v>
   <v>      -0.33333333       0.06666667       0.20000000 </v>
   <v>      -0.26666667       0.06666667       0.20000000 </v>
   <v>      -0.20000000       0.06666667       0.20000000 </v>
   <v>      -0.13333333       0.06666667       0.20000000 </v>
   <v>      -0.06666667       0.06666667       0.20000000 </v>
   <v>      -0.00000000       0.13333333       0.20000000 </v>
   <v>       0.06666667       0.13333333       0.20000000 </v>
   <v>       0.13333333       0.13333333       0.20000000 </v>
   <v>       0.20000000       0.13333333       0.20000000 </v>
   <v>       0.26666667       0.13333333       0.20000000 </v>
   <v>       0.33333333       0.13333333       0.20000000 </v>
   <v>       0.40000000       0.13333333       0.20000000 </v>
   <v>       0.46666667       0.13333333       0.20000000 </v>
   <v>      -0.46666667       0.13333333       0.20000000 </v>
   <v>      -0.40000000       0.13333333       0.20000000 </v>
   <v>      -0.33333333       0.13333333       0.20000000 </v>
   <v>      -0.26666667       0.13333333       0.20000000 </v>
   <v>      -0.20000000       0.13333333       0.20000000 </v>
   <v>      -0.13333333       0.13333333       0.20000000 </v>
   <v>      -0.06666667       0.13333333       0.20000000 </v>
   <v>      -0.00000000       0.20000000       0.20000000 </v>
   <v>       0.06666667       0.20000000       0.20000000 </v>
   <v>       0.13333333       0.20000000       0.20000000 </v>
   <v>       0.20000000       0.20000000       0.20000000 </v>
   <v>       0.26666667       0.20000000       0.20000000 </v>
   <v>       0.33333333       0.20000000       0.20000000 </v>
   <v>       0.40000000       0.20000000       0.20000000 </v>
   <v>       0.46666667       0.20000000       0.20000000 </v>
   <v>      -0.46666667       0.20000000       0.20000000 </v>
   <v>      -0.40000000       0.20000000       0.20000000 </v>
   <v>      -0.33333333       0.20000000       0.20000000 </v>
   <v>      -0.26666667       0.20000000       0.20000000 </v>
   <v>      -0.20000000       0.20000000       0.20000000 </v>
   <v>      -0.13333333       0.20000000       0.20000000 </v>
   <v>      -0.06666667       0.20000000       0.20000000 </v>
   <v>       0.00000000       0.26666667       0.20000000 </v>
   <v>       0.06666667       0.26666667       0.20000000 </v>
   <v>       0.13333333       0.26666667       0.20000000 </v>
   <v>       0.20000000       0.26666667       0.20000000 </v>
   <v>       0.26666667       0.26666667       0.20000000 </v>
   <v>       0.33333333       0.26666667       0.20000000 </v>
   <v>       0.40000000       0.26666667       0.20000000 </v>
   <v>       0.46666667       0.26666667       0.20000000 </v>
   <v>      -0.46666667       0.26666667       0.20000000 </v>
   <v>      -0.40000000       0.26666667       0.20000000 </v>
   <v>      -0.33333333       0.26666667       0.20000000 </v>
   <v>      -0.26666667       0.26666667       0.20000000 </v>
   <v>      -0.20000000       0.26666667       0.20000000 </v>
   <v>      -0.13333333       0.26666667       0.20000000 </v>
   <v>      -0.06666667       0.26666667       0.20000000 </v>
   <v>      -0.00000000       0.33333333       0.20000000 </v>
   <v>       0.06666667       0.33333333       0.20000000 </v>
   <v>       0.13333333       0.33333333       0.20000000 </v>
   <v>       0.20000000       0.33333333       0.20000000 </v>
   <v>       0.26666667       0.33333333       0.20000000 </v>
   <v>       0.33333333       0.33333333       0.20000000 </v>
   <v>       0.40000000       0.33333333       0.20000000 </v>
   <v>       0.46666667       0.33333333       0.20000000 </v>
   <v>      -0.46666667       0.33333333       0.20000000 </v>
   <v>      -0.40000000       0.33333333       0.20000000 </v>
   <v>      -0.33333333       0.33333333       0.20000000 </v>
   <v>      -0.26666667       0.33333333       0.20000000 </v>
   <v>      -0.20000000       0.33333333       0.20000000 </v>
   <v>      -0.13333333       0.33333333       0.20000000 </v>
   <v>      -0.06666667       0.33333333       0.20000000 </v>
   <v>      -0.00000000       0.40000000       0.20000000 </v>
   <v>       0.06666667       0.40000000       0.20000000 </v>
   <v>       0.13333333       0.40000000       0.20000000 </v>
   <v>       0.20000000       0.40000000       0.20000000 </v>
   <v>       0.26666667       0.40000000       0.20000000 </v>
   <v>       0.33333333       0.40000000       0.20000000 </v>
   <v>       0.40000000       0.40000000       0.20000000 </v>
   <v>       0.46666667       0.40000000       0.20000000 </v>
   <v>      -0.46666667       0.40000000       0.20000000 </v>
   <v>      -0.40000000       0.40000000       0.20000000 </v>
   <v>      -0.33333333       0.40000000       0.20000000 </v>
   <v>      -0.26666667       0.40000000       0.20000000 </v>
   <v>      -0.20000000       0.40000000       0.20000000 </v>
   <v>      -0.13333333       0.40000000       0.20000000 </v>
   <v>      -0.06666667       0.40000000       0.20000000 </v>
   <v>      -0.00000000       0.46666667       0.20000000 </v>
   <v>       0.06666667       0.46666667       0.20000000 </v>
   <v>       0.13333333       0.46666667       0.20000000 </v>
   <v>       0.20000000       0.46666667       0.20000000 </v>
   <v>       0.26666667       0.46666667       0.20000000 </v>
   <v>       0.33333333       0.46666667       0.20000000 </v>
   <v>       0.40000000       0.46666667       0.20000000 </v>
   <v>       0.46666667       0.46666667       0.20000000 </v>
   <v>      -0.46666667       0.46666667       0.20000000 </v>
   <v>      -0.40000000       0.46666667       0.20000000 </v>
   <v>      -0.33333333       0.46666667       0.20000000 </v>
   <v>      -0.26666667       0.46666667       0.20000000 </v>
   <v>      -0.20000000       0.46666667       0.20000000 </v>
   <v>      -0.13333333       0.46666667       0.20000000 </v>
   <v>      -0.06666667       0.46666667       0.20000000 </v>
   <v>       0.00000000      -0.46666667       0.20000000 </v>
   <v>       0.06666667      -0.46666667       0.20000000 </v>
   <v>       0.13333333      -0.46666667       0.20000000 </v>
   <v>       0.20000000      -0.46666667       0.20000000 </v>
   <v>       0.26666667      -0.46666667       0.20000000 </v>
   <v>       0.33333333      -0.46666667       0.20000000 </v>
   <v>       0.40000000      -0.46666667       0.20000000 </v>
   <v>       0.46666667      -0.46666667       0.20000000 </v>
   <v>      -0.46666667      -0.46666667       0.20000000 </v>
   <v>      -0.40000000      -0.46666667       0.20000000 </v>
   <v>      -0.33333333      -0.46666667       0.20000000 </v>
   <v>      -0.26666667      -0.46666667       0.20000000 </v>
   <v>      -0.20000000      -0.46666667       0.20000000 </v>
   <v>      -0.13333333      -0.46666667       0.20000000 </v>
   <v>      -0.06666667      -0.46666667       0.20000000 </v>
   <v>       0.00000000      -0.40000000       0.20000000 </v>
   <v>       0.06666667      -0.40000000       0.20000000 </v>
   <v>       0.13333333      -0.40000000       0.20000000 </v>
   <v>       0.20000000      -0.40000000       0.20000000 </v>
   <v>       0.26666667      -0.40000000       0.20000000 </v>
   <v>       0.33333333      -0.40000000       0.20000000 </v>
   <v>       0.40000000      -0.40000000       0.20000000 </v>
   <v>       0.46666667      -0.40000000       0.20000000 </v>
   <v>      -0.46666667      -0.40000000       0.20000000 </v>
   <v>      -0.40000000      -0.40000000       0.20000000 </v>
   <v>      -0.33333333      -0.40000000       0.20000000 </v>
   <v>      -0.26666667      -0.40000000       0.20000000 </v>
   <v>      -0.20000000      -0.40000000       0.20000000 </v>
   <v>      -0.13333333      -0.40000000       0.20000000 </v>
   <v>      -0.06666667      -0.40000000       0.20000000 </v>
   <v>       0.00000000      -0.33333333       0.20000000 </v>
   <v>       0.06666667      -0.33333333       0.20000000 </v>
   <v>       0.13333333      -0.33333333       0.20000000 </v>
   <v>       0.20000000      -0.33333333       0.20000000 </v>
   <v>       0.26666667      -0.33333333       0.20000000 </v>
   <v>       0.33333333      -0.33333333       0.20000000 </v>
   <v>       0.40000000      -0.33333333       0.20000000 </v>
   <v>       0.46666667      -0.33333333       0.20000000 </v>
   <v>      -0.46666667      -0.33333333       0.20000000 </v>
   <v>      -0.40000000      -0.33333333       0.20000000 </v>
   <v>      -0.33333333      -0.33333333       0.20000000 </v>
   <v>      -0.26666667      -0.33333333       0.20000000 </v>
   <v>      -0.20000000      -0.33333333       0.20000000 </v>
   <v>      -0.13333333      -0.33333333       0.20000000 </v>
   <v>      -0.06666667      -0.33333333       0.20000000 </v>
   <v>       0.00000000      -0.26666667       0.20000000 </v>
   <v>       0.06666667      -0.26666667       0.20000000 </v>
   <v>       0.13333333      -0.26666667       0.20000000 </v>
   <v>       0.20000000      -0.26666667       0.20000000 </v>
   <v>       0.26666667      -0.26666667       0.20000000 </v>
   <v>       0.33333333      -0.26666667       0.20000000 </v>
   <v>       0.40000000      -0.26666667       0.20000000 </v>
   <v>       0.46666667      -0.26666667       0.20000000 </v>
   <v>      -0.46666667      -0.26666667       0.20000000 </v>
   <v>      -0.40000000      -0.26666667       0.20000000 </v>
   <v>      -0.33333333      -0.26666667       0.20000000 </v>
   <v>      -0.26666667      -0.26666667       0.20000000 </v>
   <v>      -0.20000000      -0.26666667       0.20000000 </v>
   <v>      -0.13333333      -0.26666667       0.20000000 </v>
   <v>      -0.06666667      -0.26666667       0.20000000 </v>
   <v>      -0.00000000      -0.20000000       0.20000000 </v>
   <v>       0.06666667      -0.20000000       0.20000000 </v>
   <v>       0.13333333      -0.20000000       0.20000000 </v>
   <v>       0.20000000      -0.20000000       0.20000000 </v>
   <v>       0.26666667      -0.20000000       0.20000000 </v>
   <v>       0.33333333      -0.20000000       0.20000000 </v>
   <v>       0.40000000      -0.20000000       0.20000000 </v>
   <v>       0.46666667      -0.20000000       0.20000000 </v>
   <v>      -0.46666667      -0.20000000       0.20000000 </v>
   <v>      -0.40000000      -0.20000000       0.20000000 </v>
   <v>      -0.33333333      -0.20000000       0.20000000 </v>
   <v>      -0.26666667      -0.20000000       0.20000000 </v>
   <v>      -0.20000000      -0.20000000       0.20000000 </v>
   <v>      -0.13333333      -0.20000000       0.20000000 </v>
   <v>      -0.06666667      -0.20000000       0.20000000 </v>
   <v>       0.00000000      -0.13333333       0.20000000 </v>
   <v>       0.06666667      -0.13333333       0.20000000 </v>
   <v>       0.13333333      -0.13333333       0.20000000 </v>
   <v>       0.20000000      -0.13333333       0.20000000 </v>
   <v>       0.26666667      -0.13333333       0.20000000 </v>
   <v>       0.33333333      -0.13333333       0.20000000 </v>
   <v>       0.40000000      -0.13333333       0.20000000 </v>
   <v>       0.46666667      -0.13333333       0.20000000 </v>
   <v>      -0.46666667      -0.13333333       0.20000000 </v>
   <v>      -0.40000000      -0.13333333       0.20000000 </v>
   <v>      -0.33333333      -0.13333333       0.20000000 </v>
   <v>      -0.26666667      -0.13333333       0.20000000 </v>
   <v>      -0.20000000      -0.13333333       0.20000000 </v>
   <v>      -0.13333333      -0.13333333       0.20000000 </v>
   <v>      -0.06666667      -0.13333333       0.20000000 </v>
   <v>       0.00000000      -0.06666667       0.20000000 </v>
   <v>       0.06666667      -0.06666667       0.20000000 </v>
   <v>       0.13333333      -0.06666667       0.20000000 </v>
   <v>       0.20000000      -0.06666667       0.20000000 </v>
   <v>       0.26666667      -0.06666667       0.20000000 </v>
   <v>       0.33333333      -0.06666667       0.20000000 </v>
   <v>       0.40000000      -0.06666667       0.20000000 </v>
   <v>       0.46666667      -0.06666667       0.20000000 </v>
   <v>      -0.46666667      -0.06666667       0.20000000 </v>
   <v>      -0.40000000      -0.06666667       0.20000000 </v>
   <v>      -0.33333333      -0.06666667       0.20000000 </v>
   <v>      -0.26666667      -0.06666667       0.20000000 </v>
   <v>      -0.20000000      -0.06666667       0.20000000 </v>
   <v>      -0.13333333      -0.06666667       0.20000000 </v>
   <v>      -0.06666667      -0.06666667       0.20000000 </v>
   <v>      -0.00000000       0.00000000       0.26666667 </v>
   <v>       0.06666667       0.00000000       0.26666667 </v>
   <v>       0.13333333       0.00000000       0.26666667 </v>
   <v>       0.20000000       0.00000000       0.26666667 </v>
   <v>       0.26666667       0.00000000       0.26666667 </v>
   <v>       0.33333333       0.00000000       0.26666667 </v>
   <v>       0.40000000       0.00000000       0.26666667 </v>
   <v>       0.46666667       0.00000000       0.26666667 </v>
   <v>      -0.46666667       0.00000000       0.26666667 </v>
   <v>      -0.40000000       0.00000000       0.26666667 </v>
   <v>      -0.33333333       0.00000000       0.26666667 </v>
   <v>      -0.26666667       0.00000000       0.26666667 </v>
   <v>      -0.20000000       0.00000000       0.26666667 </v>
   <v>      -0.13333333       0.00000000       0.26666667 </v>
   <v>      -0.06666667       0.00000000       0.26666667 </v>
   <v>       0.00000000       0.06666667       0.26666667 </v>
   <v>       0.06666667       0.06666667       0.26666667 </v>
   <v>       0.13333333       0.06666667       0.26666667 </v>
   <v>       0.20000000       0.06666667       0.26666667 </v>
   <v>       0.26666667       0.06666667       0.26666667 </v>
   <v>       0.33333333       0.06666667       0.26666667 </v>
   <v>       0.40000000       0.06666667       0.26666667 </v>
   <v>       0.46666667       0.06666667       0.26666667 </v>
   <v>      -0.46666667       0.06666667       0.26666667 </v>
   <v>      -0.40000000       0.06666667       0.26666667 </v>
   <v>      -0.33333333       0.06666667       0.26666667 </v>
   <v>      -0.26666667       0.06666667       0.26666667 </v>
   <v>      -0.20000000       0.06666667       0.26666667 </v>
   <v>      -0.13333333       0.06666667       0.26666667 </v>
   <v>      -0.06666667       0.06666667       0.26666667 </v>
   <v>      -0.00000000       0.13333333       0.26666667 </v>
   <v>       0.06666667       0.13333333       0.26666667 </v>
   <v>       0.13333333       0.13333333       0.26666667 </v>
   <v>       0.20000000       0.13333333       0.26666667 </v>
   <v>       0.26666667       0.13333333       0.26666667 </v>
   <v>       0.33333333       0.13333333       0.26666667 </v>
   <v>       0.40000000       0.13333333       0.26666667 </v>
   <v>       0.46666667       0.13333333       0.26666667 </v>
   <v>      -0.46666667       0.13333333       0.26666667 </v>
   <v>      -0.40000000       0.13333333       0.26666667 </v>
   <v>      -0.33333333       0.13333333       0.26666667 </v>
   <v>      -0.26666667       0.13333333       0.26666667 </v>
   <v>      -0.20000000       0.13333333       0.26666667 </v>
   <v>      -0.13333333       0.13333333       0.26666667 </v>
   <v>      -0.06666667       0.13333333       0.26666667 </v>
   <v>      -0.00000000       0.20000000       0.26666667 </v>
   <v>       0.06666667       0.20000000       0.26666667 </v>
   <v>       0.13333333       0.20000000       0.26666667 </v>
   <v>       0.20000000       0.20000000       0.26666667 </v>
   <v>       0.26666667       0.20000000       0.26666667 </v>
   <v>       0.33333333       0.20000000       0.26666667 </v>
   <v>       0.40000000       0.20000000       0.26666667 </v>
   <v>       0.46666667       0.20000000       0.26666667 </v>
   <v>      -0.46666667       0.20000000       0.26666667 </v>
   <v>      -0.40000000       0.20000000       0.26666667 </v>
   <v>      -0.33333333       0.20000000       0.26666667 </v>
   <v>      -0.26666667       0.20000000       0.26666667 </v>
   <v>      -0.20000000       0.20000000       0.26666667 </v>
   <v>      -0.13333333       0.20000000       0.26666667 </v>
   <v>      -0.06666667       0.20000000       0.26666667 </v>
   <v>      -0.00000000       0.26666667       0.26666667 </v>
   <v>       0.06666667       0.26666667       0.26666667 </v>
   <v>       0.13333333       0.26666667       0.26666667 </v>
   <v>       0.20000000       0.26666667       0.26666667 </v>
   <v>       0.26666667       0.26666667       0.26666667 </v>
   <v>       0.33333333       0.26666667       0.26666667 </v>
   <v>       0.40000000       0.26666667       0.26666667 </v>
   <v>       0.46666667       0.26666667       0.26666667 </v>
   <v>      -0.46666667       0.26666667       0.26666667 </v>
   <v>      -0.40000000       0.26666667       0.26666667 </v>
   <v>      -0.33333333       0.26666667       0.26666667 </v>
   <v>      -0.26666667       0.26666667       0.26666667 </v>
   <v>      -0.20000000       0.26666667       0.26666667 </v>
   <v>      -0.13333333       0.26666667       0.26666667 </v>
   <v>      -0.06666667       0.26666667       0.26666667 </v>
   <v>      -0.00000000       0.33333333       0.26666667 </v>
   <v>       0.06666667       0.33333333       0.26666667 </v>
   <v>       0.13333333       0.33333333       0.26666667 </v>
   <v>       0.20000000       0.33333333       0.26666667 </v>
   <v>       0.26666667       0.33333333       0.26666667 </v>
   <v>       0.33333333       0.33333333       0.26666667 </v>
   <v>       0.40000000       0.33333333       0.26666667 </v>
   <v>       0.46666667       0.33333333       0.26666667 </v>
   <v>      -0.46666667       0.33333333       0.26666667 </v>
   <v>      -0.40000000       0.33333333       0.26666667 </v>
   <v>      -0.33333333       0.33333333       0.26666667 </v>
   <v>      -0.26666667       0.33333333       0.26666667 </v>
   <v>      -0.20000000       0.33333333       0.26666667 </v>
   <v>      -0.13333333       0.33333333       0.26666667 </v>
   <v>      -0.06666667       0.33333333       0.26666667 </v>
   <v>       0.00000000       0.40000000       0.26666667 </v>
   <v>       0.06666667       0.40000000       0.26666667 </v>
   <v>       0.13333333       0.40000000       0.26666667 </v>
   <v>       0.20000000       0.40000000       0.26666667 </v>
   <v>       0.26666667       0.40000000       0.26666667 </v>
   <v>       0.33333333       0.40000000       0.26666667 </v>
   <v>       0.40000000       0.40000000       0.26666667 </v>
   <v>       0.46666667       0.40000000       0.26666667 </v>
   <v>      -0.46666667       0.40000000       0.26666667 </v>
   <v>      -0.40000000       0.40000000       0.26666667 </v>
   <v>      -0.33333333       0.40000000       0.26666667 </v>
   <v>      -0.26666667       0.40000000       0.26666667 </v>
   <v>      -0.20000000       0.40000000       0.26666667 </v>
   <v>      -0.13333333       0.40000000       0.26666667 </v>
   <v>      -0.06666667       0.40000000       0.26666667 </v>
   <v>      -0.00000000       0.46666667       0.26666667 </v>
   <v>       0.06666667       0.46666667       0.26666667 </v>
   <v>       0.13333333       0.46666667       0.26666667 </v>
   <v>       0.20000000       0.46666667       0.26666667 </v>
   <v>       0.26666667       0.46666667       0.26666667 </v>
   <v>       0.33333333       0.46666667       0.26666667 </v>
   <v>       0.40000000       0.46666667       0.26666667 </v>
   <v>       0.46666667       0.46666667       0.26666667 </v>
   <v>      -0.46666667       0.46666667       0.26666667 </v>
   <v>      -0.40000000       0.46666667       0.26666667 </v>
   <v>      -0.33333333       0.46666667       0.26666667 </v>
   <v>      -0.26666667       0.46666667       0.26666667 </v>
   <v>      -0.20000000       0.46666667       0.26666667 </v>
   <v>      -0.13333333       0.46666667       0.26666667 </v>
   <v>      -0.06666667       0.46666667       0.26666667 </v>
   <v>       0.00000000      -0.46666667       0.26666667 </v>
   <v>       0.06666667      -0.46666667       0.26666667 </v>
   <v>       0.13333333      -0.46666667       0.26666667 </v>
   <v>       0.20000000      -0.46666667       0.26666667 </v>
   <v>       0.26666667      -0.46666667       0.26666667 </v>
   <v>       0.33333333      -0.46666667       0.26666667 </v>
   <v>       0.40000000      -0.46666667       0.26666667 </v>
   <v>       0.46666667      -0.46666667       0.26666667 </v>
   <v>      -0.46666667      -0.46666667       0.26666667 </v>
   <v>      -0.40000000      -0.46666667       0.26666667 </v>
   <v>      -0.33333333      -0.46666667       0.26666667 </v>
   <v>      -0.26666667      -0.46666667       0.26666667 </v>
   <v>      -0.20000000      -0.46666667       0.26666667 </v>
   <v>      -0.13333333      -0.46666667       0.26666667 </v>
   <v>      -0.06666667      -0.46666667       0.26666667 </v>
   <v>      -0.00000000      -0.40000000       0.26666667 </v>
   <v>       0.06666667      -0.40000000       0.26666667 </v>
   <v>       0.13333333      -0.40000000       0.26666667 </v>
   <v>       0.20000000      -0.40000000       0.26666667 </v>
   <v>       0.26666667      -0.40000000       0.26666667 </v>
   <v>       0.33333333      -0.40000000       0.26666667 </v>
   <v>       0.40000000      -0.40000000       0.26666667 </v>
   <v>       0.46666667      -0.40000000       0.26666667 </v>
   <v>      -0.46666667      -0.40000000       0.26666667 </v>
   <v>      -0.40000000      -0.40000000       0.26666667 </v>
   <v>      -0.33333333      -0.40000000       0.26666667 </v>
   <v>      -0.26666667      -0.40000000       0.26666667 </v>
   <v>      -0.20000000      -0.40000000       0.26666667 </v>
   <v>      -0.13333333      -0.40000000       0.26666667 </v>
   <v>      -0.06666667      -0.40000000       0.26666667 </v>
   <v>      -0.00000000      -0.33333333       0.26666667 </v>
   <v>       0.06666667      -0.33333333       0.26666667 </v>
   <v>       0.13333333      -0.33333333       0.26666667 </v>
   <v>       0.20000000      -0.33333333       0.26666667 </v>
   <v>       0.26666667      -0.33333333       0.26666667 </v>
   <v>       0.33333333      -0.33333333       0.26666667 </v>
   <v>       0.40000000      -0.33333333       0.26666667 </v>
   <v>       0.46666667      -0.33333333       0.26666667 </v>
   <v>      -0.46666667      -0.33333333       0.26666667 </v>
   <v>      -0.40000000      -0.33333333       0.26666667 </v>
   <v>      -0.33333333      -0.33333333       0.26666667 </v>
   <v>      -0.26666667      -0.33333333       0.26666667 </v>
   <v>      -0.20000000      -0.33333333       0.26666667 </v>
   <v>      -0.13333333      -0.33333333       0.26666667 </v>
   <v>      -0.06666667      -0.33333333       0.26666667 </v>
   <v>       0.00000000      -0.26666667       0.26666667 </v>
   <v>       0.06666667      -0.26666667       0.26666667 </v>
   <v>       0.13333333      -0.26666667       0.26666667 </v>
   <v>       0.20000000      -0.26666667       0.26666667 </v>
   <v>       0.26666667      -0.26666667       0.26666667 </v>
   <v>       0.33333333      -0.26666667       0.26666667 </v>
   <v>       0.40000000      -0.26666667       0.26666667 </v>
   <v>       0.46666667      -0.26666667       0.26666667 </v>
   <v>      -0.46666667      -0.26666667       0.26666667 </v>
   <v>      -0.40000000      -0.26666667       0.26666667 </v>
   <v>      -0.33333333      -0.26666667       0.26666667 </v>
   <v>      -0.26666667      -0.26666667       0.26666667 </v>
   <v>      -0.20000000      -0.26666667       0.26666667 </v>
   <v>      -0.13333333      -0.26666667       0.26666667 </v>
   <v>      -0.06666667      -0.26666667       0.26666667 </v>
   <v>      -0.00000000      -0.20000000       0.26666667 </v>
   <v>       0.06666667      -0.20000000       0.26666667 </v>
   <v>       0.13333333      -0.20000000       0.26666667 </v>
   <v>       0.20000000      -0.20000000       0.26666667 </v>
   <v>       0.26666667      -0.20000000       0.26666667 </v>
   <v>       0.33333333      -0.20000000       0.26666667 </v>
   <v>       0.40000000      -0.20000000       0.26666667 </v>
   <v>       0.46666667      -0.20000000       0.26666667 </v>
   <v>      -0.46666667      -0.20000000       0.26666667 </v>
   <v>      -0.40000000      -0.20000000       0.26666667 </v>
   <v>      -0.33333333      -0.20000000       0.26666667 </v>
   <v>      -0.26666667      -0.20000000       0.26666667 </v>
   <v>      -0.20000000      -0.20000000       0.26666667 </v>
   <v>      -0.13333333      -0.20000000       0.26666667 </v>
   <v>      -0.06666667      -0.20000000       0.26666667 </v>
   <v>       0.00000000      -0.13333333       0.26666667 </v>
   <v>       0.06666667      -0.13333333       0.26666667 </v>
   <v>       0.13333333      -0.13333333       0.26666667 </v>
   <v>       0.20000000      -0.13333333       0.26666667 </v>
   <v>       0.26666667      -0.13333333       0.26666667 </v>
   <v>       0.33333333      -0.13333333       0.26666667 </v>
   <v>       0.40000000      -0.13333333       0.26666667 </v>
   <v>       0.46666667      -0.13333333       0.26666667 </v>
   <v>      -0.46666667      -0.13333333       0.26666667 </v>
   <v>      -0.40000000      -0.13333333       0.26666667 </v>
   <v>      -0.33333333      -0.13333333       0.26666667 </v>
   <v>      -0.26666667      -0.13333333       0.26666667 </v>
   <v>      -0.20000000      -0.13333333       0.26666667 </v>
   <v>      -0.13333333      -0.13333333       0.26666667 </v>
   <v>      -0.06666667      -0.13333333       0.26666667 </v>
   <v>      -0.00000000      -0.06666667       0.26666667 </v>
   <v>       0.06666667      -0.06666667       0.26666667 </v>
   <v>       0.13333333      -0.06666667       0.26666667 </v>
   <v>       0.20000000      -0.06666667       0.26666667 </v>
   <v>       0.26666667      -0.06666667       0.26666667 </v>
   <v>       0.33333333      -0.06666667       0.26666667 </v>
   <v>       0.40000000      -0.06666667       0.26666667 </v>
   <v>       0.46666667      -0.06666667       0.26666667 </v>
   <v>      -0.46666667      -0.06666667       0.26666667 </v>
   <v>      -0.40000000      -0.06666667       0.26666667 </v>
   <v>      -0.33333333      -0.06666667       0.26666667 </v>
   <v>      -0.26666667      -0.06666667       0.26666667 </v>
   <v>      -0.20000000      -0.06666667       0.26666667 </v>
   <v>      -0.13333333      -0.06666667       0.26666667 </v>
   <v>      -0.06666667      -0.06666667       0.26666667 </v>
   <v>      -0.00000000       0.00000000       0.33333333 </v>
   <v>       0.06666667       0.00000000       0.33333333 </v>
   <v>       0.13333333       0.00000000       0.33333333 </v>
   <v>       0.20000000       0.00000000       0.33333333 </v>
   <v>       0.26666667       0.00000000       0.33333333 </v>
   <v>       0.33333333       0.00000000       0.33333333 </v>
   <v>       0.40000000       0.00000000       0.33333333 </v>
   <v>       0.46666667       0.00000000       0.33333333 </v>
   <v>      -0.46666667       0.00000000       0.33333333 </v>
   <v>      -0.40000000       0.00000000       0.33333333 </v>
   <v>      -0.33333333       0.00000000       0.33333333 </v>
   <v>      -0.26666667       0.00000000       0.33333333 </v>
   <v>      -0.20000000       0.00000000       0.33333333 </v>
   <v>      -0.13333333       0.00000000       0.33333333 </v>
   <v>      -0.06666667       0.00000000       0.33333333 </v>
   <v>       0.00000000       0.06666667       0.33333333 </v>
   <v>       0.06666667       0.06666667       0.33333333 </v>
   <v>       0.13333333       0.06666667       0.33333333 </v>
   <v>       0.20000000       0.06666667       0.33333333 </v>
   <v>       0.26666667       0.06666667       0.33333333 </v>
   <v>       0.33333333       0.06666667       0.33333333 </v>
   <v>       0.40000000       0.06666667       0.33333333 </v>
   <v>       0.46666667       0.06666667       0.33333333 </v>
   <v>      -0.46666667       0.06666667       0.33333333 </v>
   <v>      -0.40000000       0.06666667       0.33333333 </v>
   <v>      -0.33333333       0.06666667       0.33333333 </v>
   <v>      -0.26666667       0.06666667       0.33333333 </v>
   <v>      -0.20000000       0.06666667       0.33333333 </v>
   <v>      -0.13333333       0.06666667       0.33333333 </v>
   <v>      -0.06666667       0.06666667       0.33333333 </v>
   <v>       0.00000000       0.13333333       0.33333333 </v>
   <v>       0.06666667       0.13333333       0.33333333 </v>
   <v>       0.13333333       0.13333333       0.33333333 </v>
   <v>       0.20000000       0.13333333       0.33333333 </v>
   <v>       0.26666667       0.13333333       0.33333333 </v>
   <v>       0.33333333       0.13333333       0.33333333 </v>
   <v>       0.40000000       0.13333333       0.33333333 </v>
   <v>       0.46666667       0.13333333       0.33333333 </v>
   <v>      -0.46666667       0.13333333       0.33333333 </v>
   <v>      -0.40000000       0.13333333       0.33333333 </v>
   <v>      -0.33333333       0.13333333       0.33333333 </v>
   <v>      -0.26666667       0.13333333       0.33333333 </v>
   <v>      -0.20000000       0.13333333       0.33333333 </v>
   <v>      -0.13333333       0.13333333       0.33333333 </v>
   <v>      -0.06666667       0.13333333       0.33333333 </v>
   <v>      -0.00000000       0.20000000       0.33333333 </v>
   <v>       0.06666667       0.20000000       0.33333333 </v>
   <v>       0.13333333       0.20000000       0.33333333 </v>
   <v>       0.20000000       0.20000000       0.33333333 </v>
   <v>       0.26666667       0.20000000       0.33333333 </v>
   <v>       0.33333333       0.20000000       0.33333333 </v>
   <v>       0.40000000       0.20000000       0.33333333 </v>
   <v>       0.46666667       0.20000000       0.33333333 </v>
   <v>      -0.46666667       0.20000000       0.33333333 </v>
   <v>      -0.40000000       0.20000000       0.33333333 </v>
   <v>      -0.33333333       0.20000000       0.33333333 </v>
   <v>      -0.26666667       0.20000000       0.33333333 </v>
   <v>      -0.20000000       0.20000000       0.33333333 </v>
   <v>      -0.13333333       0.20000000       0.33333333 </v>
   <v>      -0.06666667       0.20000000       0.33333333 </v>
   <v>      -0.00000000       0.26666667       0.33333333 </v>
   <v>       0.06666667       0.26666667       0.33333333 </v>
   <v>       0.13333333       0.26666667       0.33333333 </v>
   <v>       0.20000000       0.26666667       0.33333333 </v>
   <v>       0.26666667       0.26666667       0.33333333 </v>
   <v>       0.33333333       0.26666667       0.33333333 </v>
   <v>       0.40000000       0.26666667       0.33333333 </v>
   <v>       0.46666667       0.26666667       0.33333333 </v>
   <v>      -0.46666667       0.26666667       0.33333333 </v>
   <v>      -0.40000000       0.26666667       0.33333333 </v>
   <v>      -0.33333333       0.26666667       0.33333333 </v>
   <v>      -0.26666667       0.26666667       0.33333333 </v>
   <v>      -0.20000000       0.26666667       0.33333333 </v>
   <v>      -0.13333333       0.26666667       0.33333333 </v>
   <v>      -0.06666667       0.26666667       0.33333333 </v>
   <v>      -0.00000000       0.33333333       0.33333333 </v>
   <v>       0.06666667       0.33333333       0.33333333 </v>
   <v>       0.13333333       0.33333333       0.33333333 </v>
   <v>       0.20000000       0.33333333       0.33333333 </v>
   <v>       0.26666667       0.33333333       0.33333333 </v>
   <v>       0.33333333       0.33333333       0.33333333 </v>
   <v>       0.40000000       0.33333333       0.33333333 </v>
   <v>       0.46666667       0.33333333       0.33333333 </v>
   <v>      -0.46666667       0.33333333       0.33333333 </v>
   <v>      -0.40000000       0.33333333       0.33333333 </v>
   <v>      -0.33333333       0.33333333       0.33333333 </v>
   <v>      -0.26666667       0.33333333       0.33333333 </v>
   <v>      -0.20000000       0.33333333       0.33333333 </v>
   <v>      -0.13333333       0.33333333       0.33333333 </v>
   <v>      -0.06666667       0.33333333       0.33333333 </v>
   <v>      -0.00000000       0.40000000       0.33333333 </v>
   <v>       0.06666667       0.40000000       0.33333333 </v>
   <v>       0.13333333       0.40000000       0.33333333 </v>
   <v>       0.20000000       0.40000000       0.33333333 </v>
   <v>       0.26666667       0.40000000       0.33333333 </v>
   <v>       0.33333333       0.40000000       0.33333333 </v>
   <v>       0.40000000       0.40000000       0.33333333 </v>
   <v>       0.46666667       0.40000000       0.33333333 </v>
   <v>      -0.46666667       0.40000000       0.33333333 </v>
   <v>      -0.40000000       0.40000000       0.33333333 </v>
   <v>      -0.33333333       0.40000000       0.33333333 </v>
   <v>      -0.26666667       0.40000000       0.33333333 </v>
   <v>      -0.20000000       0.40000000       0.33333333 </v>
   <v>      -0.13333333       0.40000000       0.33333333 </v>
   <v>      -0.06666667       0.40000000       0.33333333 </v>
   <v>      -0.00000000       0.46666667       0.33333333 </v>
   <v>       0.06666667       0.46666667       0.33333333 </v>
   <v>       0.13333333       0.46666667       0.33333333 </v>
   <v>       0.20000000       0.46666667       0.33333333 </v>
   <v>       0.26666667       0.46666667       0.33333333 </v>
   <v>       0.33333333       0.46666667       0.33333333 </v>
   <v>       0.40000000       0.46666667       0.33333333 </v>
   <v>       0.46666667       0.46666667       0.33333333 </v>
   <v>      -0.46666667       0.46666667       0.33333333 </v>
   <v>      -0.40000000       0.46666667       0.33333333 </v>
   <v>      -0.33333333       0.46666667       0.33333333 </v>
   <v>      -0.26666667       0.46666667       0.33333333 </v>
   <v>      -0.20000000       0.46666667       0.33333333 </v>
   <v>      -0.13333333       0.46666667       0.33333333 </v>
   <v>      -0.06666667       0.46666667       0.33333333 </v>
   <v>      -0.00000000      -0.46666667       0.33333333 </v>
   <v>       0.06666667      -0.46666667       0.33333333 </v>
   <v>       0.13333333      -0.46666667       0.33333333 </v>
   <v>       0.20000000      -0.46666667       0.33333333 </v>
   <v>       0.26666667      -0.46666667       0.33333333 </v>
   <v>       0.33333333      -0.46666667       0.33333333 </v>
   <v>       0.40000000      -0.46666667       0.33333333 </v>
   <v>       0.46666667      -0.46666667       0.33333333 </v>
   <v>      -0.46666667      -0.46666667       0.33333333 </v>
   <v>      -0.40000000      -0.46666667       0.33333333 </v>
   <v>      -0.33333333      -0.46666667       0.33333333 </v>
   <v>      -0.26666667      -0.46666667       0.33333333 </v>
   <v>      -0.20000000      -0.46666667       0.33333333 </v>
   <v>      -0.13333333      -0.46666667       0.33333333 </v>
   <v>      -0.06666667      -0.46666667       0.33333333 </v>
   <v>      -0.00000000      -0.40000000       0.33333333 </v>
   <v>       0.06666667      -0.40000000       0.33333333 </v>
   <v>       0.13333333      -0.40000000       0.33333333 </v>
   <v>       0.20000000      -0.40000000       0.33333333 </v>
   <v>       0.26666667      -0.40000000       0.33333333 </v>
   <v>       0.33333333      -0.40000000       0.33333333 </v>
   <v>       0.40000000      -0.40000000       0.33333333 </v>
   <v>       0.46666667      -0.40000000       0.33333333 </v>
   <v>      -0.46666667      -0.40000000       0.33333333 </v>
   <v>      -0.40000000      -0.40000000       0.33333333 </v>
   <v>      -0.33333333      -0.40000000       0.33333333 </v>
   <v>      -0.26666667      -0.40000000       0.33333333 </v>
   <v>      -0.20000000      -0.40000000       0.33333333 </v>
   <v>      -0.13333333      -0.40000000       0.33333333 </v>
   <v>      -0.06666667      -0.40000000       0.33333333 </v>
   <v>      -0.00000000      -0.33333333       0.33333333 </v>
   <v>       0.06666667      -0.33333333       0.33333333 </v>
   <v>       0.13333333      -0.33333333       0.33333333 </v>
   <v>       0.20000000      -0.33333333       0.33333333 </v>
   <v>       0.26666667      -0.33333333       0.33333333 </v>
   <v>       0.33333333      -0.33333333       0.33333333 </v>
   <v>       0.40000000      -0.33333333       0.33333333 </v>
   <v>       0.46666667      -0.33333333       0.33333333 </v>
   <v>      -0.46666667      -0.33333333       0.33333333 </v>
   <v>      -0.40000000      -0.33333333       0.33333333 </v>
   <v>      -0.33333333      -0.33333333       0.33333333 </v>
   <v>      -0.26666667      -0.33333333       0.33333333 </v>
   <v>      -0.20000000      -0.33333333       0.33333333 </v>
   <v>      -0.13333333      -0.33333333       0.33333333 </v>
   <v>      -0.06666667      -0.33333333       0.33333333 </v>
   <v>       0.00000000      -0.26666667       0.33333333 </v>
   <v>       0.06666667      -0.26666667       0.33333333 </v>
   <v>       0.13333333      -0.26666667       0.33333333 </v>
   <v>       0.20000000      -0.26666667       0.33333333 </v>
   <v>       0.26666667      -0.26666667       0.33333333 </v>
   <v>       0.33333333      -0.26666667       0.33333333 </v>
   <v>       0.40000000      -0.26666667       0.33333333 </v>
   <v>       0.46666667      -0.26666667       0.33333333 </v>
   <v>      -0.46666667      -0.26666667       0.33333333 </v>
   <v>      -0.40000000      -0.26666667       0.33333333 </v>
   <v>      -0.33333333      -0.26666667       0.33333333 </v>
   <v>      -0.26666667      -0.26666667       0.33333333 </v>
   <v>      -0.20000000      -0.26666667       0.33333333 </v>
   <v>      -0.13333333      -0.26666667       0.33333333 </v>
   <v>      -0.06666667      -0.26666667       0.33333333 </v>
   <v>      -0.00000000      -0.20000000       0.33333333 </v>
   <v>       0.06666667      -0.20000000       0.33333333 </v>
   <v>       0.13333333      -0.20000000       0.33333333 </v>
   <v>       0.20000000      -0.20000000       0.33333333 </v>
   <v>       0.26666667      -0.20000000       0.33333333 </v>
   <v>       0.33333333      -0.20000000       0.33333333 </v>
   <v>       0.40000000      -0.20000000       0.33333333 </v>
   <v>       0.46666667      -0.20000000       0.33333333 </v>
   <v>      -0.46666667      -0.20000000       0.33333333 </v>
   <v>      -0.40000000      -0.20000000       0.33333333 </v>
   <v>      -0.33333333      -0.20000000       0.33333333 </v>
   <v>      -0.26666667      -0.20000000       0.33333333 </v>
   <v>      -0.20000000      -0.20000000       0.33333333 </v>
   <v>      -0.13333333      -0.20000000       0.33333333 </v>
   <v>      -0.06666667      -0.20000000       0.33333333 </v>
   <v>       0.00000000      -0.13333333       0.33333333 </v>
   <v>       0.06666667      -0.13333333       0.33333333 </v>
   <v>       0.13333333      -0.13333333       0.33333333 </v>
   <v>       0.20000000      -0.13333333       0.33333333 </v>
   <v>       0.26666667      -0.13333333       0.33333333 </v>
   <v>       0.33333333      -0.13333333       0.33333333 </v>
   <v>       0.40000000      -0.13333333       0.33333333 </v>
   <v>       0.46666667      -0.13333333       0.33333333 </v>
   <v>      -0.46666667      -0.13333333       0.33333333 </v>
   <v>      -0.40000000      -0.13333333       0.33333333 </v>
   <v>      -0.33333333      -0.13333333       0.33333333 </v>
   <v>      -0.26666667      -0.13333333       0.33333333 </v>
   <v>      -0.20000000      -0.13333333       0.33333333 </v>
   <v>      -0.13333333      -0.13333333       0.33333333 </v>
   <v>      -0.06666667      -0.13333333       0.33333333 </v>
   <v>      -0.00000000      -0.06666667       0.33333333 </v>
   <v>       0.06666667      -0.06666667       0.33333333 </v>
[...]
       <r>    2.6645    1.0000 </r>
       <r>    2.9172    1.0000 </r>
       <r>    3.0634    1.0000 </r>
       <r>    3.1773    1.0000 </r>
       <r>    3.2648    1.0000 </r>
       <r>    3.7705    1.0000 </r>
       <r>    3.9300    1.0000 </r>
       <r>    4.1315    1.0000 </r>
       <r>    4.1815    1.0000 </r>
       <r>    4.2294    1.0000 </r>
       <r>    4.4533    1.0000 </r>
       <r>    4.8863    1.0000 </r>
       <r>    4.8963    1.0000 </r>
       <r>    5.2302    1.0000 </r>
       <r>    5.5688    1.0000 </r>
       <r>    8.4948    0.0000 </r>
       <r>    8.9287    0.0000 </r>
       <r>   12.1872    0.0000 </r>
       <r>   12.5662    0.0000 </r>
       <r>   14.5651    0.0000 </r>
      </set>
      <set comment="kpoint 1686">
       <r>    1.0923    1.0000 </r>
       <r>    1.4723    1.0000 </r>
       <r>    2.2683    1.0000 </r>
       <r>    2.4218    1.0000 </r>
       <r>    2.4414    1.0000 </r>
       <r>    2.4985    1.0000 </r>
       <r>    2.5848    1.0000 </r>
       <r>    2.6192    1.0000 </r>
       <r>    2.9054    1.0000 </r>
       <r>    3.0194    1.0000 </r>
       <r>    3.3306    1.0000 </r>
       <r>    3.3665    1.0000 </r>
       <r>    3.7649    1.0000 </r>
       <r>    3.9419    1.0000 </r>
       <r>    4.1978    1.0000 </r>
       <r>    4.2356    1.0000 </r>
       <r>    4.2663    1.0000 </r>
       <r>    4.5064    1.0000 </r>
       <r>    4.9337    1.0000 </r>
       <r>    5.0265    1.0000 </r>
       <r>    5.0297    1.0000 </r>
       <r>    5.2100    1.0000 </r>
       <r>    9.1756    0.0000 </r>
       <r>    9.5295    0.0000 </r>
       <r>   12.0263    0.0000 </r>
       <r>   12.3133    0.0000 </r>
       <r>   14.2221    0.0000 </r>
      </set>
      <set comment="kpoint 1687">
       <r>    0.9700    1.0000 </r>
       <r>    1.3649    1.0000 </r>
       <r>    2.2927    1.0000 </r>
       <r>    2.3443    1.0000 </r>
       <r>    2.3725    1.0000 </r>
       <r>    2.5391    1.0000 </r>
       <r>    2.5793    1.0000 </r>
       <r>    2.6062    1.0000 </r>
       <r>    2.9181    1.0000 </r>
       <r>    2.9780    1.0000 </r>
       <r>    3.4989    1.0000 </r>
       <r>    3.5165    1.0000 </r>
       <r>    3.7658    1.0000 </r>
       <r>    3.9584    1.0000 </r>
       <r>    4.2353    1.0000 </r>
       <r>    4.2537    1.0000 </r>
       <r>    4.2584    1.0000 </r>
       <r>    4.5289    1.0000 </r>
       <r>    4.7025    1.0000 </r>
       <r>    4.8946    1.0000 </r>
       <r>    5.1414    1.0000 </r>
       <r>    5.1420    1.0000 </r>
       <r>    9.8213    0.0000 </r>
       <r>   10.0205    0.0000 </r>
       <r>   12.0764    0.0000 </r>
       <r>   12.2220    0.0000 </r>
       <r>   13.9280    0.0000 </r>
      </set>
      <set comment="kpoint 1688">
       <r>    0.8925    1.0000 </r>
       <r>    1.2949    1.0000 </r>
       <r>    2.2941    1.0000 </r>
       <r>    2.2941    1.0000 </r>
       <r>    2.3312    1.0000 </r>
       <r>    2.5103    1.0000 </r>
       <r>    2.6220    1.0000 </r>
       <r>    2.6220    1.0000 </r>
       <r>    2.9433    1.0000 </r>
       <r>    2.9433    1.0000 </r>
       <r>    3.6292    1.0000 </r>
       <r>    3.6935    1.0000 </r>
       <r>    3.7974    1.0000 </r>
       <r>    4.0090    1.0000 </r>
       <r>    4.1494    1.0000 </r>
       <r>    4.2516    1.0000 </r>
       <r>    4.2516    1.0000 </r>
       <r>    4.4234    1.0000 </r>
       <r>    4.5901    1.0000 </r>
       <r>    4.7216    1.0000 </r>
       <r>    5.2182    1.0000 </r>
       <r>    5.2182    1.0000 </r>
       <r>   10.2904    0.0000 </r>
       <r>   10.2904    0.0000 </r>
       <r>   12.3801    0.0000 </r>
       <r>   12.3801    0.0000 </r>
       <r>   13.6443    0.0000 </r>
      </set>
     </set>
    </set>
   </array>
  </eigenvalues>
  <separator name="orbital magnetization" >
   <v name="MAGDIPOLOUT">      0.00000000      0.00000000      0.00000000</v>
  </separator>
  <dos>
   <i name="efermi">      7.06210736 </i>
   <total>
    <array>
     <dimension dim="1">gridpoints</dimension>
     <dimension dim="2">spin</dimension>
     <field>energy</field>
     <field>total</field>
     <field>integrated</field>
     <set>
      <set comment="spin 1">
       <r>    -2.2410     0.0000     0.0000 </r>
       <r>    -2.1768     0.0000     0.0000 </r>
       <r>    -2.1125     0.0000     0.0000 </r>
       <r>    -2.0483     0.0000     0.0000 </r>
       <r>    -1.9841     0.0000     0.0000 </r>
       <r>    -1.9199     0.0000     0.0000 </r>
       <r>    -1.8557     0.0000     0.0000 </r>
       <r>    -1.7914     0.0000     0.0000 </r>
       <r>    -1.7272     0.0000     0.0000 </r>
       <r>    -1.6630     0.0000     0.0000 </r>
       <r>    -1.5988     0.0000     0.0000 </r>
       <r>    -1.5346     0.0000     0.0000 </r>
       <r>    -1.4703     0.0000     0.0000 </r>
       <r>    -1.4061     0.0002     0.0000 </r>
       <r>    -1.3419     0.0020     0.0001 </r>
       <r>    -1.2777     0.0121     0.0009 </r>
       <r>    -1.2135     0.0411     0.0036 </r>
       <r>    -1.1493     0.0849     0.0090 </r>
       <r>    -1.0850     0.1287     0.0173 </r>
       <r>    -1.0208     0.1738     0.0284 </r>
       <r>    -0.9566     0.2013     0.0414 </r>
       <r>    -0.8924     0.2120     0.0550 </r>
       <r>    -0.8282     0.2509     0.0711 </r>
       <r>    -0.7639     0.2874     0.0895 </r>
       <r>    -0.6997     0.3006     0.1089 </r>
       <r>    -0.6355     0.3150     0.1291 </r>
       <r>    -0.5713     0.3176     0.1495 </r>
       <r>    -0.5071     0.3443     0.1716 </r>
       <r>    -0.4428     0.4065     0.1977 </r>
       <r>    -0.3786     0.4400     0.2259 </r>
       <r>    -0.3144     0.4221     0.2530 </r>
       <r>    -0.2502     0.3902     0.2781 </r>
       <r>    -0.1860     0.4299     0.3057 </r>
       <r>    -0.1217     0.5211     0.3392 </r>
       <r>    -0.0575     0.5616     0.3752 </r>
       <r>     0.0067     0.5385     0.4098 </r>
       <r>     0.0709     0.5194     0.4432 </r>
       <r>     0.1351     0.5752     0.4801 </r>
       <r>     0.1994     0.6324     0.5207 </r>
       <r>     0.2636     0.6375     0.5617 </r>
       <r>     0.3278     0.6400     0.6028 </r>
       <r>     0.3920     0.7019     0.6478 </r>
       <r>     0.4562     0.7918     0.6987 </r>
       <r>     0.5205     0.8336     0.7522 </r>
       <r>     0.5847     0.8095     0.8042 </r>
       <r>     0.6489     0.7993     0.8555 </r>
       <r>     0.7131     0.9162     0.9144 </r>
       <r>     0.7773     1.1047     0.9853 </r>
       <r>     0.8416     1.1817     1.0612 </r>
       <r>     0.9058     1.1826     1.1372 </r>
       <r>     0.9700     1.3914     1.2265 </r>
       <r>     1.0342     1.8904     1.3479 </r>
       <r>     1.0984     2.4918     1.5079 </r>
       <r>     1.1626     2.9007     1.6942 </r>
       <r>     1.2269     3.0144     1.8878 </r>
       <r>     1.2911     3.2625     2.0973 </r>
       <r>     1.3553     3.8462     2.3443 </r>
       <r>     1.4195     4.4874     2.6325 </r>
       <r>     1.4837     5.1309     2.9620 </r>
       <r>     1.5480     5.8447     3.3373 </r>
       <r>     1.6122     6.7840     3.7730 </r>
       <r>     1.6764     7.8427     4.2767 </r>
       <r>     1.7406     8.6444     4.8318 </r>
       <r>     1.8048     9.1050     5.4165 </r>
       <r>     1.8691     9.1663     6.0052 </r>
       <r>     1.9333     8.9631     6.5808 </r>
       <r>     1.9975     8.6088     7.1336 </r>
       <r>     2.0617     8.2905     7.6660 </r>
       <r>     2.1259     8.0856     8.1853 </r>
       <r>     2.1902     7.7414     8.6824 </r>
       <r>     2.2544     7.2991     9.1512 </r>
       <r>     2.3186     6.7591     9.5853 </r>
       <r>     2.3828     6.3282     9.9916 </r>
       <r>     2.4470     6.5255    10.4107 </r>
       <r>     2.5113     7.3316    10.8815 </r>
       <r>     2.5755     8.3609    11.4185 </r>
       <r>     2.6397     9.5214    12.0299 </r>
       <r>     2.7039    10.4891    12.7035 </r>
       <r>     2.7681    10.8495    13.4003 </r>
       <r>     2.8324    10.8281    14.0957 </r>
       <r>     2.8966    11.0082    14.8026 </r>
       <r>     2.9608    11.2916    15.5277 </r>
       <r>     3.0250    11.1634    16.2446 </r>
       <r>     3.0892    10.7565    16.9354 </r>
       <r>     3.1535    10.7746    17.6274 </r>
       <r>     3.2177    11.8082    18.3857 </r>
       <r>     3.2819    13.3380    19.2422 </r>
       <r>     3.3461    14.0811    20.1465 </r>
       <r>     3.4103    13.7992    21.0327 </r>
       <r>     3.4745    13.2657    21.8846 </r>
       <r>     3.5388    12.5911    22.6932 </r>
       <r>     3.6030    11.4280    23.4271 </r>
       <r>     3.6672    10.0999    24.0757 </r>
       <r>     3.7314     9.2313    24.6685 </r>
       <r>     3.7956     8.9467    25.2431 </r>
       <r>     3.8599     9.0743    25.8258 </r>
       <r>     3.9241     9.4812    26.4347 </r>
       <r>     3.9883    10.0244    27.0785 </r>
       <r>     4.0525    10.6080    27.7597 </r>
       <r>     4.1167    11.1018    28.4727 </r>
       <r>     4.1810    11.2400    29.1945 </r>
       <r>     4.2452    10.9908    29.9003 </r>
       <r>     4.3094    10.4436    30.5710 </r>
       <r>     4.3736     9.9723    31.2114 </r>
       <r>     4.4378     9.9596    31.8510 </r>
       <r>     4.5021     9.9967    32.4930 </r>
       <r>     4.5663     9.5462    33.1060 </r>
       <r>     4.6305     8.9633    33.6817 </r>
       <r>     4.6947     8.8506    34.2500 </r>
       <r>     4.7589     9.0939    34.8340 </r>
       <r>     4.8232     9.3155    35.4323 </r>
       <r>     4.8874     9.8259    36.0633 </r>
       <r>     4.9516    10.8563    36.7605 </r>
       <r>     5.0158    12.0160    37.5321 </r>
       <r>     5.0800    13.3220    38.3877 </r>
       <r>     5.1443    14.4138    39.3133 </r>
       <r>     5.2085    13.7134    40.1940 </r>
       <r>     5.2727    10.7990    40.8875 </r>
       <r>     5.3369     7.3057    41.3566 </r>
       <r>     5.4011     4.8204    41.6662 </r>
       <r>     5.4654     3.4495    41.8877 </r>
       <r>     5.5296     2.5632    42.0523 </r>
       <r>     5.5938     1.9332    42.1765 </r>
       <r>     5.6580     1.4591    42.2702 </r>
       <r>     5.7222     1.2463    42.3502 </r>
       <r>     5.7864     1.1780    42.4259 </r>
       <r>     5.8507     1.0845    42.4955 </r>
       <r>     5.9149     1.1765    42.5711 </r>
       <r>     5.9791     1.3621    42.6585 </r>
       <r>     6.0433     1.3777    42.7470 </r>
       <r>     6.1075     1.2364    42.8264 </r>
       <r>     6.1718     1.0615    42.8946 </r>
       <r>     6.2360     1.0160    42.9598 </r>
       <r>     6.3002     1.1871    43.0361 </r>
       <r>     6.3644     1.4225    43.1274 </r>
       <r>     6.4286     1.4748    43.2222 </r>
       <r>     6.4929     1.3330    43.3078 </r>
       <r>     6.5571     1.1032    43.3786 </r>
       <r>     6.6213     0.9352    43.4387 </r>
       <r>     6.6855     0.9187    43.4977 </r>
       <r>     6.7497     1.1337    43.5705 </r>
       <r>     6.8140     1.4983    43.6667 </r>
       <r>     6.8782     1.6492    43.7726 </r>
       <r>     6.9424     1.4660    43.8667 </r>
       <r>     7.0066     1.1817    43.9426 </r>
       <r>     7.0708     1.0305    44.0088 </r>
       <r>     7.1351     1.0073    44.0735 </r>
       <r>     7.1993     1.0515    44.1410 </r>
       <r>     7.2635     1.2409    44.2207 </r>
       <r>     7.3277     1.4571    44.3143 </r>
       <r>     7.3919     1.4680    44.4086 </r>
       <r>     7.4562     1.3501    44.4953 </r>
       <r>     7.5204     1.2742    44.5771 </r>
       <r>     7.5846     1.2326    44.6563 </r>
       <r>     7.6488     1.1153    44.7279 </r>
       <r>     7.7130     1.0241    44.7936 </r>
       <r>     7.7773     1.1345    44.8665 </r>
       <r>     7.8415     1.2541    44.9470 </r>
       <r>     7.9057     1.2728    45.0288 </r>
       <r>     7.9699     1.2958    45.1120 </r>
       <r>     8.0341     1.3119    45.1962 </r>
       <r>     8.0983     1.2619    45.2773 </r>
       <r>     8.1626     1.2073    45.3548 </r>
       <r>     8.2268     1.2069    45.4323 </r>
       <r>     8.2910     1.2258    45.5110 </r>
       <r>     8.3552     1.2186    45.5893 </r>
       <r>     8.4194     1.2232    45.6678 </r>
       <r>     8.4837     1.2318    45.7469 </r>
       <r>     8.5479     1.2122    45.8248 </r>
       <r>     8.6121     1.1790    45.9005 </r>
       <r>     8.6763     1.1265    45.9729 </r>
       <r>     8.7405     1.0918    46.0430 </r>
       <r>     8.8048     1.1199    46.1149 </r>
       <r>     8.8690     1.2469    46.1950 </r>
       <r>     8.9332     1.3336    46.2806 </r>
       <r>     8.9974     1.2593    46.3615 </r>
       <r>     9.0616     1.2105    46.4392 </r>
       <r>     9.1259     1.2384    46.5187 </r>
       <r>     9.1901     1.1328    46.5915 </r>
       <r>     9.2543     1.0250    46.6573 </r>
       <r>     9.3185     1.1887    46.7337 </r>
       <r>     9.3827     1.5421    46.8327 </r>
       <r>     9.4470     1.9381    46.9571 </r>
       <r>     9.5112     2.1467    47.0950 </r>
       <r>     9.5754     1.9267    47.2187 </r>
       <r>     9.6396     1.5987    47.3214 </r>
       <r>     9.7038     1.4762    47.4162 </r>
       <r>     9.7681     1.4878    47.5118 </r>
       <r>     9.8323     1.5644    47.6122 </r>
       <r>     9.8965     1.5713    47.7131 </r>
       <r>     9.9607     1.5348    47.8117 </r>
       <r>    10.0249     1.5930    47.9140 </r>
       <r>    10.0892     1.5513    48.0136 </r>
       <r>    10.1534     1.2350    48.0929 </r>
       <r>    10.2176     0.9740    48.1555 </r>
       <r>    10.2818     1.0731    48.2244 </r>
       <r>    10.3460     1.2928    48.3074 </r>
       <r>    10.4102     1.2875    48.3901 </r>
       <r>    10.4745     1.1527    48.4641 </r>
       <r>    10.5387     1.0940    48.5344 </r>
       <r>    10.6029     1.0168    48.5997 </r>
       <r>    10.6671     0.9358    48.6598 </r>
       <r>    10.7313     0.9750    48.7224 </r>
       <r>    10.7956     1.0472    48.7896 </r>
       <r>    10.8598     1.0621    48.8578 </r>
       <r>    10.9240     1.1006    48.9285 </r>
       <r>    10.9882     1.1818    49.0044 </r>
       <r>    11.0524     1.2382    49.0839 </r>
       <r>    11.1167     1.2662    49.1653 </r>
       <r>    11.1809     1.2247    49.2439 </r>
       <r>    11.2451     1.0926    49.3141 </r>
       <r>    11.3093     1.0856    49.3838 </r>
       <r>    11.3735     1.3134    49.4681 </r>
       <r>    11.4378     1.5554    49.5680 </r>
       <r>    11.5020     1.6129    49.6716 </r>
       <r>    11.5662     1.5507    49.7712 </r>
       <r>    11.6304     1.5245    49.8691 </r>
       <r>    11.6946     1.5924    49.9713 </r>
       <r>    11.7589     1.7122    50.0813 </r>
       <r>    11.8231     1.7169    50.1916 </r>
       <r>    11.8873     1.5119    50.2887 </r>
       <r>    11.9515     1.3150    50.3731 </r>
       <r>    12.0157     1.3868    50.4622 </r>
       <r>    12.0800     1.6168    50.5660 </r>
       <r>    12.1442     1.6441    50.6716 </r>
       <r>    12.2084     1.3894    50.7608 </r>
       <r>    12.2726     1.1562    50.8351 </r>
       <r>    12.3368     1.1623    50.9097 </r>
       <r>    12.4011     1.2849    50.9922 </r>
       <r>    12.4653     1.3829    51.0810 </r>
       <r>    12.5295     1.4245    51.1725 </r>
       <r>    12.5937     1.3672    51.2603 </r>
       <r>    12.6579     1.2777    51.3424 </r>
       <r>    12.7221     1.2374    51.4218 </r>
       <r>    12.7864     1.2862    51.5044 </r>
       <r>    12.8506     1.4199    51.5956 </r>
       <r>    12.9148     1.4997    51.6919 </r>
       <r>    12.9790     1.4044    51.7821 </r>
       <r>    13.0432     1.2332    51.8613 </r>
       <r>    13.1075     1.1256    51.9336 </r>
       <r>    13.1717     1.0862    52.0034 </r>
       <r>    13.2359     1.0671    52.0719 </r>
       <r>    13.3001     1.0522    52.1395 </r>
       <r>    13.3643     1.0706    52.2082 </r>
       <r>    13.4286     1.0382    52.2749 </r>
       <r>    13.4928     0.9343    52.3349 </r>
       <r>    13.5570     0.9746    52.3975 </r>
       <r>    13.6212     1.1071    52.4686 </r>
       <r>    13.6854     1.0499    52.5360 </r>
       <r>    13.7497     0.8820    52.5926 </r>
       <r>    13.8139     0.9179    52.6516 </r>
       <r>    13.8781     1.2530    52.7321 </r>
       <r>    13.9423     1.6454    52.8377 </r>
       <r>    14.0065     1.7051    52.9472 </r>
       <r>    14.0708     1.5236    53.0451 </r>
       <r>    14.1350     1.3623    53.1325 </r>
       <r>    14.1992     1.1565    53.2068 </r>
       <r>    14.2634     0.8408    53.2608 </r>
       <r>    14.3276     0.6418    53.3020 </r>
       <r>    14.3919     0.7065    53.3474 </r>
       <r>    14.4561     0.8697    53.4033 </r>
       <r>    14.5203     0.9460    53.4640 </r>
       <r>    14.5845     0.9115    53.5226 </r>
       <r>    14.6487     0.8080    53.5744 </r>
       <r>    14.7130     0.6982    53.6193 </r>
       <r>    14.7772     0.6439    53.6606 </r>
       <r>    14.8414     0.6739    53.7039 </r>
       <r>    14.9056     0.7323    53.7509 </r>
       <r>    14.9698     0.6679    53.7938 </r>
       <r>    15.0340     0.5017    53.8260 </r>
       <r>    15.0983     0.3788    53.8504 </r>
       <r>    15.1625     0.2955    53.8693 </r>
       <r>    15.2267     0.2564    53.8858 </r>
       <r>    15.2909     0.2977    53.9049 </r>
       <r>    15.3551     0.3574    53.9279 </r>
       <r>    15.4194     0.3094    53.9477 </r>
       <r>    15.4836     0.1695    53.9586 </r>
       <r>    15.5478     0.0955    53.9648 </r>
       <r>    15.6120     0.0959    53.9709 </r>
       <r>    15.6762     0.0897    53.9767 </r>
       <r>    15.7405     0.0656    53.9809 </r>
       <r>    15.8047     0.0566    53.9845 </r>
       <r>    15.8689     0.0555    53.9881 </r>
       <r>    15.9331     0.0447    53.9910 </r>
       <r>    15.9973     0.0483    53.9941 </r>
       <r>    16.0616     0.0522    53.9974 </r>
       <r>    16.1258     0.0306    53.9994 </r>
       <r>    16.1900     0.0085    53.9999 </r>
       <r>    16.2542     0.0011    54.0000 </r>
       <r>    16.3184     0.0001    54.0000 </r>
       <r>    16.3827     0.0000    54.0000 </r>
       <r>    16.4469     0.0000    54.0000 </r>
       <r>    16.5111     0.0000    54.0000 </r>
       <r>    16.5753     0.0000    54.0000 </r>
       <r>    16.6395     0.0000    54.0000 </r>
       <r>    16.7038     0.0000    54.0000 </r>
       <r>    16.7680     0.0000    54.0000 </r>
       <r>    16.8322     0.0000    54.0000 </r>
       <r>    16.8964     0.0000    54.0000 </r>
       <r>    16.9606     0.0000    54.0000 </r>
       <r>    17.0249     0.0000    54.0000 </r>
      </set>
     </set>
    </array>
   </total>
  </dos>
 </calculation>
 <structure name="finalpos" >
  <crystal>
   <varray name="basis" >
    <v>       4.38287366      -0.00000003      -0.00000006 </v>
    <v>      -0.00000003       4.38287323       0.00000014 </v>
    <v>      -0.00000006       0.00000015       4.15438227 </v>
   </varray>
   <i name="volume">     79.80393715 </i>
   <varray name="rec_basis" >
    <v>       0.22816081       0.00000000       0.00000000 </v>
    <v>       0.00000000       0.22816083      -0.00000001 </v>
    <v>       0.00000000      -0.00000001       0.24070967 </v>
   </varray>
  </crystal>
  <varray name="positions" >
   <v>       1.00000000       0.00000000       0.00000000 </v>
   <v>       0.00000000       0.50000000       0.50000000 </v>
   <v>       0.50000000       1.00000000       0.50000000 </v>
   <v>       0.50000000       0.50000000       1.00000000 </v>
  </varray>
 </structure>
</modeling>
