   4   4   0   0
  0.1595326E+02  0.3697401E-09  0.4154382E-09  0.4154382E-09  0.2000000E-15
  1.000000000000000E-004
  CAR 
 unknown system                          
     22.48495599     -1.02478741  301     10.66655953      1.00000000
     -1.025  0.0000E+00  0.0000E+00
     -0.946  0.0000E+00  0.0000E+00
     -0.868  0.0000E+00  0.0000E+00
     -0.790  0.0000E+00  0.0000E+00
     -0.711  0.0000E+00  0.0000E+00
     -0.633  0.0000E+00  0.0000E+00
     -0.555  0.0000E+00  0.0000E+00
     -0.476  0.7338E-17  0.5750E-18
     -0.398  0.1640E-13  0.1286E-14
     -0.319  0.1128E-10  0.8849E-12
     -0.241  0.2468E-08  0.1943E-09
     -0.163  0.1825E-06  0.1449E-07
     -0.084  0.4976E-05  0.4044E-06
     -0.006  0.5551E-04  0.4755E-05
      0.072  0.2781E-03  0.2654E-04
      0.151  0.6845E-03  0.8018E-04
      0.229  0.1023E-02  0.1603E-03
      0.307  0.1398E-02  0.2699E-03
      0.386  0.1703E-02  0.4033E-03
      0.464  0.1693E-02  0.5360E-03
      0.543  0.2075E-02  0.6986E-03
      0.621  0.2324E-02  0.8807E-03
      0.699  0.2379E-02  0.1067E-02
      0.778  0.2665E-02  0.1276E-02
      0.856  0.2777E-02  0.1494E-02
      0.934  0.2911E-02  0.1722E-02
      1.013  0.3118E-02  0.1966E-02
      1.091  0.3505E-02  0.2241E-02
      1.169  0.3474E-02  0.2513E-02
      1.248  0.3528E-02  0.2790E-02
      1.326  0.3967E-02  0.3100E-02
      1.405  0.4320E-02  0.3439E-02
      1.483  0.4545E-02  0.3795E-02
      1.561  0.4086E-02  0.4115E-02
      1.640  0.4114E-02  0.4438E-02
      1.718  0.5292E-02  0.4852E-02
      1.796  0.5983E-02  0.5321E-02
      1.875  0.5609E-02  0.5761E-02
      1.953  0.5713E-02  0.6209E-02
      2.031  0.5656E-02  0.6652E-02
      2.110  0.5942E-02  0.7117E-02
      2.188  0.7323E-02  0.7691E-02
      2.267  0.7810E-02  0.8303E-02
      2.345  0.7702E-02  0.8907E-02
      2.423  0.8924E-02  0.9606E-02
      2.502  0.1026E-01  0.1041E-01
      2.580  0.1047E-01  0.1123E-01
      2.658  0.1410E-01  0.1234E-01
      2.737  0.1965E-01  0.1388E-01
      2.815  0.2422E-01  0.1577E-01
      2.894  0.2778E-01  0.1795E-01
      2.972  0.3064E-01  0.2035E-01
      3.050  0.3529E-01  0.2312E-01
      3.129  0.3847E-01  0.2613E-01
      3.207  0.4057E-01  0.2931E-01
      3.285  0.4588E-01  0.3291E-01
      3.364  0.5046E-01  0.3686E-01
      3.442  0.5768E-01  0.4138E-01
      3.520  0.6487E-01  0.4646E-01
      3.599  0.6847E-01  0.5183E-01
      3.677  0.7146E-01  0.5743E-01
      3.756  0.7167E-01  0.6305E-01
      3.834  0.6740E-01  0.6833E-01
      3.912  0.6453E-01  0.7338E-01
      3.991  0.6448E-01  0.7844E-01
      4.069  0.6159E-01  0.8326E-01
      4.147  0.5548E-01  0.8761E-01
      4.226  0.5209E-01  0.9169E-01
      4.304  0.4997E-01  0.9561E-01
      4.382  0.4614E-01  0.9923E-01
      4.461  0.4472E-01  0.1027E+00
      4.539  0.5205E-01  0.1068E+00
      4.618  0.6200E-01  0.1117E+00
      4.696  0.7000E-01  0.1172E+00
      4.774  0.7807E-01  0.1233E+00
      4.853  0.8033E-01  0.1296E+00
      4.931  0.8042E-01  0.1359E+00
      5.009  0.8152E-01  0.1423E+00
      5.088  0.8153E-01  0.1486E+00
      5.166  0.8018E-01  0.1549E+00
      5.244  0.7586E-01  0.1609E+00
      5.323  0.7315E-01  0.1666E+00
      5.401  0.7459E-01  0.1725E+00
      5.480  0.8029E-01  0.1787E+00
      5.558  0.8667E-01  0.1855E+00
      5.636  0.8535E-01  0.1922E+00
      5.715  0.7500E-01  0.1981E+00
      5.793  0.6704E-01  0.2034E+00
      5.871  0.6497E-01  0.2084E+00
      5.950  0.6261E-01  0.2134E+00
      6.028  0.5997E-01  0.2181E+00
      6.107  0.5971E-01  0.2227E+00
      6.185  0.6496E-01  0.2278E+00
      6.263  0.7097E-01  0.2334E+00
      6.342  0.7483E-01  0.2392E+00
      6.420  0.7642E-01  0.2452E+00
      6.498  0.7525E-01  0.2511E+00
      6.577  0.7529E-01  0.2570E+00
      6.655  0.7613E-01  0.2630E+00
      6.733  0.7482E-01  0.2689E+00
      6.812  0.6921E-01  0.2743E+00
      6.890  0.6735E-01  0.2796E+00
      6.969  0.7075E-01  0.2851E+00
      7.047  0.7653E-01  0.2911E+00
      7.125  0.7903E-01  0.2973E+00
      7.204  0.7570E-01  0.3032E+00
      7.282  0.7025E-01  0.3087E+00
      7.360  0.6399E-01  0.3138E+00
      7.439  0.6283E-01  0.3187E+00
      7.517  0.6329E-01  0.3236E+00
      7.595  0.6357E-01  0.3286E+00
      7.674  0.6719E-01  0.3339E+00
      7.752  0.6717E-01  0.3391E+00
      7.831  0.6537E-01  0.3443E+00
      7.909  0.6448E-01  0.3493E+00
      7.987  0.6518E-01  0.3544E+00
      8.066  0.6577E-01  0.3596E+00
      8.144  0.7039E-01  0.3651E+00
      8.222  0.8097E-01  0.3714E+00
      8.301  0.8553E-01  0.3781E+00
      8.379  0.8716E-01  0.3850E+00
      8.457  0.9148E-01  0.3921E+00
      8.536  0.8963E-01  0.3992E+00
      8.614  0.7254E-01  0.4049E+00
      8.693  0.5557E-01  0.4092E+00
      8.771  0.4718E-01  0.4129E+00
      8.849  0.3852E-01  0.4159E+00
      8.928  0.3048E-01  0.4183E+00
      9.006  0.2902E-01  0.4206E+00
      9.084  0.2772E-01  0.4228E+00
      9.163  0.1803E-01  0.4242E+00
      9.241  0.9526E-02  0.4249E+00
      9.319  0.8065E-02  0.4256E+00
      9.398  0.9337E-02  0.4263E+00
      9.476  0.1019E-01  0.4271E+00
      9.555  0.1180E-01  0.4280E+00
      9.633  0.1376E-01  0.4291E+00
      9.711  0.1312E-01  0.4301E+00
      9.790  0.1207E-01  0.4311E+00
      9.868  0.9847E-02  0.4318E+00
      9.946  0.7716E-02  0.4324E+00
     10.025  0.8091E-02  0.4331E+00
     10.103  0.9751E-02  0.4338E+00
     10.182  0.1236E-01  0.4348E+00
     10.260  0.1326E-01  0.4358E+00
     10.338  0.1188E-01  0.4368E+00
     10.417  0.9722E-02  0.4375E+00
     10.495  0.8529E-02  0.4382E+00
     10.573  0.9455E-02  0.4389E+00
     10.652  0.1125E-01  0.4398E+00
     10.730  0.1235E-01  0.4408E+00
     10.808  0.1267E-01  0.4418E+00
     10.887  0.1110E-01  0.4427E+00
     10.965  0.9232E-02  0.4434E+00
     11.044  0.1004E-01  0.4442E+00
     11.122  0.1039E-01  0.4450E+00
     11.200  0.9019E-02  0.4457E+00
     11.279  0.9870E-02  0.4465E+00
     11.357  0.1212E-01  0.4474E+00
     11.435  0.1281E-01  0.4484E+00
     11.514  0.1142E-01  0.4493E+00
     11.592  0.9429E-02  0.4500E+00
     11.670  0.7973E-02  0.4507E+00
     11.749  0.8459E-02  0.4513E+00
     11.827  0.1096E-01  0.4522E+00
     11.906  0.1292E-01  0.4532E+00
     11.984  0.1277E-01  0.4542E+00
     12.062  0.1049E-01  0.4550E+00
     12.141  0.8388E-02  0.4557E+00
     12.219  0.8122E-02  0.4563E+00
     12.297  0.8137E-02  0.4570E+00
     12.376  0.8802E-02  0.4576E+00
     12.454  0.1028E-01  0.4585E+00
     12.532  0.1178E-01  0.4594E+00
     12.611  0.1143E-01  0.4603E+00
     12.689  0.9878E-02  0.4610E+00
     12.768  0.9209E-02  0.4618E+00
     12.846  0.9057E-02  0.4625E+00
     12.924  0.9163E-02  0.4632E+00
     13.003  0.9191E-02  0.4639E+00
     13.081  0.8820E-02  0.4646E+00
     13.159  0.8303E-02  0.4653E+00
     13.238  0.8258E-02  0.4659E+00
     13.316  0.9226E-02  0.4666E+00
     13.395  0.1074E-01  0.4675E+00
     13.473  0.1038E-01  0.4683E+00
     13.551  0.8572E-02  0.4690E+00
     13.630  0.7817E-02  0.4696E+00
     13.708  0.8059E-02  0.4702E+00
     13.786  0.8299E-02  0.4708E+00
     13.865  0.9273E-02  0.4716E+00
     13.943  0.1088E-01  0.4724E+00
     14.021  0.1338E-01  0.4735E+00
     14.100  0.1646E-01  0.4748E+00
     14.178  0.1714E-01  0.4761E+00
     14.257  0.1722E-01  0.4775E+00
     14.335  0.1709E-01  0.4788E+00
     14.413  0.1525E-01  0.4800E+00
     14.492  0.1275E-01  0.4810E+00
     14.570  0.1134E-01  0.4819E+00
     14.648  0.1153E-01  0.4828E+00
     14.727  0.1181E-01  0.4837E+00
     14.805  0.1205E-01  0.4847E+00
     14.883  0.1122E-01  0.4855E+00
     14.962  0.1067E-01  0.4864E+00
     15.040  0.1068E-01  0.4872E+00
     15.119  0.1022E-01  0.4880E+00
     15.197  0.9245E-02  0.4887E+00
     15.275  0.9467E-02  0.4895E+00
     15.354  0.1124E-01  0.4904E+00
     15.432  0.1286E-01  0.4914E+00
     15.510  0.1295E-01  0.4924E+00
     15.589  0.1171E-01  0.4933E+00
     15.667  0.1188E-01  0.4942E+00
     15.745  0.1428E-01  0.4953E+00
     15.824  0.1524E-01  0.4965E+00
     15.902  0.1339E-01  0.4976E+00
     15.981  0.1282E-01  0.4986E+00
     16.059  0.1307E-01  0.4996E+00
     16.137  0.1219E-01  0.5006E+00
     16.216  0.1327E-01  0.5016E+00
     16.294  0.1566E-01  0.5028E+00
     16.372  0.1570E-01  0.5041E+00
     16.451  0.1411E-01  0.5052E+00
     16.529  0.1403E-01  0.5063E+00
     16.608  0.1331E-01  0.5073E+00
     16.686  0.1115E-01  0.5082E+00
     16.764  0.9784E-02  0.5090E+00
     16.843  0.8921E-02  0.5097E+00
     16.921  0.9049E-02  0.5104E+00
     16.999  0.1129E-01  0.5113E+00
     17.078  0.1396E-01  0.5123E+00
     17.156  0.1251E-01  0.5133E+00
     17.234  0.1018E-01  0.5141E+00
     17.313  0.1122E-01  0.5150E+00
     17.391  0.1315E-01  0.5160E+00
     17.470  0.1338E-01  0.5171E+00
     17.548  0.1331E-01  0.5181E+00
     17.626  0.1221E-01  0.5191E+00
     17.705  0.1036E-01  0.5199E+00
     17.783  0.9662E-02  0.5207E+00
     17.861  0.8309E-02  0.5213E+00
     17.940  0.6600E-02  0.5218E+00
     18.018  0.6190E-02  0.5223E+00
     18.096  0.7945E-02  0.5229E+00
     18.175  0.1056E-01  0.5238E+00
     18.253  0.1334E-01  0.5248E+00
     18.332  0.1411E-01  0.5259E+00
     18.410  0.1206E-01  0.5268E+00
     18.488  0.9923E-02  0.5276E+00
     18.567  0.9258E-02  0.5284E+00
     18.645  0.8482E-02  0.5290E+00
     18.723  0.8215E-02  0.5297E+00
     18.802  0.1014E-01  0.5305E+00
     18.880  0.1149E-01  0.5314E+00
     18.958  0.9786E-02  0.5321E+00
     19.037  0.6926E-02  0.5327E+00
     19.115  0.5123E-02  0.5331E+00
     19.194  0.4395E-02  0.5334E+00
     19.272  0.4301E-02  0.5337E+00
     19.350  0.4548E-02  0.5341E+00
     19.429  0.5431E-02  0.5345E+00
     19.507  0.6756E-02  0.5351E+00
     19.585  0.6981E-02  0.5356E+00
     19.664  0.6188E-02  0.5361E+00
     19.742  0.5364E-02  0.5365E+00
     19.821  0.4503E-02  0.5369E+00
     19.899  0.3547E-02  0.5371E+00
     19.977  0.3021E-02  0.5374E+00
     20.056  0.3217E-02  0.5376E+00
     20.134  0.4100E-02  0.5380E+00
     20.212  0.3864E-02  0.5383E+00
     20.291  0.2591E-02  0.5385E+00
     20.369  0.1949E-02  0.5386E+00
     20.447  0.1965E-02  0.5388E+00
     20.526  0.1866E-02  0.5389E+00
     20.604  0.1356E-02  0.5390E+00
     20.683  0.1250E-02  0.5391E+00
     20.761  0.1669E-02  0.5392E+00
     20.839  0.1987E-02  0.5394E+00
     20.918  0.2021E-02  0.5396E+00
     20.996  0.1613E-02  0.5397E+00
     21.074  0.1216E-02  0.5398E+00
     21.153  0.9516E-03  0.5399E+00
     21.231  0.4882E-03  0.5399E+00
     21.309  0.2221E-03  0.5399E+00
     21.388  0.4021E-03  0.5399E+00
     21.466  0.4803E-03  0.5400E+00
     21.545  0.1966E-03  0.5400E+00
     21.623  0.2659E-04  0.5400E+00
     21.701  0.1165E-05  0.5400E+00
     21.780  0.1620E-07  0.5400E+00
     21.858  0.7035E-10  0.5400E+00
     21.936  0.9419E-13  0.5400E+00
     22.015  0.3852E-16  0.5400E+00
     22.093  0.0000E+00  0.5400E+00
     22.171  0.0000E+00  0.5400E+00
     22.250  0.0000E+00  0.5400E+00
     22.328  0.0000E+00  0.5400E+00
     22.407  0.0000E+00  0.5400E+00
     22.485  0.0000E+00  0.5400E+00
