    4    4  100    1
  0.1595326E+02  0.3697401E-09  0.4154382E-09  0.4154382E-09  0.2000000E-15
  1.000000000000000E-004
  CAR 
 unknown system                          
     44   1688     27
 
  0.0000000E+00  0.0000000E+00  0.0000000E+00  0.2962963E-03
    1        0.043837   1.000000
    2        2.841931   1.000000
    3        2.841931   1.000000
    4        3.000011   1.000000
    5        3.242310   1.000000
    6        3.335607   1.000000
    7        3.335607   1.000000
    8        5.262790   1.000000
    9        5.262791   1.000000
   10        6.286364   1.000000
   11        6.602994   1.000000
   12        7.727807   1.000000
   13        8.416327   1.000000
   14        8.416327   1.000000
   15        8.500461   1.000000
   16        8.500461   1.000000
   17        8.561166   1.000000
   18        8.980389   1.000000
   19        8.980390   1.000000
   20        9.269245   1.000000
   21        9.269245   1.000000
   22       10.790154   0.040241
   23       10.790154   0.040241
   24       13.011555   0.000000
   25       16.076198   0.000000
   26       16.076198   0.000000
   27       18.899375   0.000000
 
  0.6666667E-01  0.2240346E-24  0.0000000E+00  0.5925926E-03
    1        0.108488   1.000000
    2        2.889525   1.000000
    3        2.889525   1.000000
    4        3.029866   1.000000
    5        3.269122   1.000000
    6        3.363553   1.000000
    7        3.363553   1.000000
    8        5.287065   1.000000
    9        5.287066   1.000000
   10        6.243803   1.000000
   11        6.621752   1.000000
   12        7.700104   1.000000
   13        8.386231   1.000000
   14        8.386232   1.000000
   15        8.500822   1.000000
   16        8.500823   1.000000
   17        8.536532   1.000000
   18        8.888698   1.000000
   19        8.888698   1.000000
   20        8.904736   1.000000
   21        8.904736   1.000000
   22       11.218070   0.000000
   23       11.218070   0.000000
   24       12.576133   0.000000
   25       16.016321   0.000000
   26       16.016322   0.000000
   27       19.600010   0.000000
 
  0.1333333E+00  0.2412745E-24  0.0000000E+00  0.5925926E-03
    1        0.300843   1.000000
    2        3.029110   1.000000
    3        3.029110   1.000000
    4        3.114996   1.000000
    5        3.348987   1.000000
    6        3.447203   1.000000
    7        3.447203   1.000000
    8        5.360092   1.000000
    9        5.360093   1.000000
   10        6.119478   1.000000
   11        6.677559   1.000000
   12        7.618085   1.000000
   13        8.207538   1.000000
   14        8.207538   1.000000
   15        8.294796   1.000000
   16        8.294796   1.000000
   17        8.464153   1.000000
   18        8.501784   1.000000
   19        8.501784   1.000000
   20        8.691767   1.000000
   21        8.691767   1.000000
   22       11.574454   0.000000
   23       12.039985   0.000000
   24       12.039985   0.000000
   25       15.846014   0.000000
   26       15.846014   0.000000
   27       20.036916   0.000000
 
  0.2000000E+00  0.7755019E-24  0.0000000E+00  0.5925926E-03
    1        0.615566   1.000000
    2        3.240301   1.000000
    3        3.250753   1.000000
    4        3.250753   1.000000
    5        3.480137   1.000000
    6        3.587326   1.000000
    7        3.587326   1.000000
    8        5.482013   1.000000
    9        5.482013   1.000000
   10        5.923756   1.000000
   11        6.768707   1.000000
   12        7.486020   1.000000
   13        7.506606   1.000000
   14        7.506606   1.000000
   15        8.140566   1.000000
   16        8.140566   1.000000
   17        8.348649   1.000000
   18        8.375957   1.000000
   19        8.375957   1.000000
   20        8.503154   1.000000
   21        8.503154   1.000000
   22       10.397799   0.999928
   23       12.971385   0.000000
   24       12.971385   0.000000
   25       15.593812   0.000000
   26       15.593813   0.000000
   27       20.742759   0.000000
 
  0.2666667E+00  0.8961389E-24  0.0000000E+00  0.5925926E-03
    1        1.042206   1.000000
    2        3.375969   1.000000
    3        3.535626   1.000000
    4        3.535626   1.000000
    5        3.659533   1.000000
    6        3.784797   1.000000
    7        3.784797   1.000000
    8        5.652909   1.000000
    9        5.652909   1.000000
   10        5.671472   1.000000
   11        6.840831   1.000000
   12        6.840831   1.000000
   13        6.892451   1.000000
   14        7.313941   1.000000
   15        7.927113   1.000000
   16        7.927114   1.000000
   17        7.997810   1.000000
   18        7.997810   1.000000
   19        8.197135   1.000000
   20        8.504754   1.000000
   21        8.504754   1.000000
   22        9.242741   1.000000
   23       13.950914   0.000000
   24       13.950914   0.000000
   25       15.305470   0.000000
   26       15.305470   0.000000
   27       20.233012   0.000000
 
  0.3333333E+00  0.6031856E-24  0.8271806E-24  0.5925926E-03
    1        1.561838   1.000000
    2        3.468295   1.000000
    3        3.850960   1.000000
    4        3.850960   1.000000
    5        3.882786   1.000000
    6        4.040802   1.000000
    7        4.040802   1.000000
    8        5.379749   1.000000
    9        5.872430   1.000000
   10        5.872430   1.000000
   11        6.225856   1.000000
   12        6.225856   1.000000
   13        7.044835   1.000000
   14        7.122419   1.000000
   15        7.593063   1.000000
   16        7.593064   1.000000
   17        7.673049   1.000000
   18        7.673049   1.000000
   19        8.018288   1.000000
   20        8.223735   1.000000
   21        8.506279   1.000000
   22        8.506279   1.000000
   23       14.953399   0.000000
   24       14.953399   0.000000
   25       15.034474   0.000000
   26       15.034475   0.000000
   27       19.567042   0.000000
 
  0.4000000E+00  0.1551004E-23  0.0000000E+00  0.5925926E-03
    1        2.140147   1.000000
    2        3.431597   1.000000
    3        4.142020   1.000000
    4        4.142020   1.000000
    5        4.143827   1.000000
    6        4.356377   1.000000
    7        4.356377   1.000000
    8        5.066003   1.000000
    9        5.667903   1.000000
   10        5.667903   1.000000
   11        6.139581   1.000000
   12        6.139582   1.000000
   13        6.951049   1.000000
   14        7.188796   1.000000
   15        7.188796   1.000000
   16        7.220847   1.000000
   17        7.424448   1.000000
   18        7.424448   1.000000
   19        7.446082   1.000000
   20        7.821730   1.000000
   21        8.507445   1.000000
   22        8.507446   1.000000
   23       14.828037   0.000000
   24       14.828038   0.000000
   25       15.959468   0.000000
   26       15.959468   0.000000
   27       18.780902   0.000000
 
  0.4666667E+00  0.1258050E-23  0.8271806E-24  0.5925926E-03
    1        2.713710   1.000000
    2        3.178783   1.000000
    3        4.326783   1.000000
    4        4.326783   1.000000
    5        4.434983   1.000000
    6        4.732521   1.000000
    7        4.732521   1.000000
    8        4.746344   1.000000
    9        5.169736   1.000000
   10        5.169736   1.000000
   11        6.451758   1.000000
   12        6.451758   1.000000
   13        6.804202   1.000000
   14        6.804203   1.000000
   15        6.871820   1.000000
   16        6.998948   1.000000
   17        7.260717   1.000000
   18        7.260717   1.000000
   19        7.414155   1.000000
   20        7.617297   1.000000
   21        8.508083   1.000000
   22        8.508083   1.000000
   23       14.717523   0.000000
   24       14.717523   0.000000
   25       16.948853   0.000000
   26       16.948853   0.000000
   27       17.898335   0.000000
 
  0.5292868E-26  0.6666667E-01  0.4135903E-24  0.5925926E-03
    1        0.095020   1.000000
    2        2.857843   1.000000
    3        2.878263   1.000000
    4        3.031832   1.000000
    5        3.271414   1.000000
    6        3.353452   1.000000
    7        3.371178   1.000000
    8        5.237511   1.000000
    9        5.294235   1.000000
   10        6.303995   1.000000
   11        6.589553   1.000000
   12        7.718679   1.000000
   13        8.273866   1.000000
   14        8.361748   1.000000
   15        8.401688   1.000000
   16        8.465547   1.000000
   17        8.510771   1.000000
   18        8.811766   1.000000
   19        8.983514   1.000000
   20        9.202080   1.000000
   21        9.266086   1.000000
   22       10.451283   0.998835
   23       11.050957   0.000000
   24       13.208702   0.000000
   25       16.056445   0.000000
   26       16.502521   0.000000
   27       18.425220   0.000000
 
  0.6666667E-01  0.6666667E-01  0.6203855E-24  0.5925926E-03
    1        0.159242   1.000000
    2        2.905716   1.000000
    3        2.922856   1.000000
    4        3.061850   1.000000
    5        3.297881   1.000000
    6        3.381092   1.000000
    7        3.400754   1.000000
    8        5.259977   1.000000
    9        5.316541   1.000000
   10        6.263834   1.000000
   11        6.610474   1.000000
   12        7.691543   1.000000
   13        8.222517   1.000000
   14        8.333498   1.000000
   15        8.371160   1.000000
   16        8.459941   1.000000
   17        8.465834   1.000000
   18        8.760836   1.000000
   19        8.791924   1.000000
   20        8.907890   1.000000
   21        8.996133   1.000000
   22       10.901924   0.000436
   23       11.420124   0.000000
   24       12.771533   0.000000
   25       15.994794   0.000000
   26       16.447115   0.000000
   27       18.795959   0.000000
 
  0.1333333E+00  0.6666667E-01  0.7237830E-24  0.5925926E-03
    1        0.350103   1.000000
    2        3.046106   1.000000
    3        3.052740   1.000000
    4        3.147390   1.000000
    5        3.376686   1.000000
    6        3.463883   1.000000
    7        3.490675   1.000000
    8        5.326272   1.000000
    9        5.383523   1.000000
   10        6.148463   1.000000
   11        6.672525   1.000000
   12        7.611274   1.000000
   13        7.949623   1.000000
   14        8.090865   1.000000
   15        8.247363   1.000000
   16        8.292340   1.000000
   17        8.295149   1.000000
   18        8.466607   1.000000
   19        8.634158   1.000000
   20        8.641967   1.000000
   21        8.695006   1.000000
   22       11.706035   0.000000
   23       11.776905   0.000000
   24       12.189539   0.000000
   25       15.818866   0.000000
   26       16.292452   0.000000
   27       19.522748   0.000000
 
  0.2000000E+00  0.6666667E-01  0.1550964E-23  0.5925926E-03
    1        0.662296   1.000000
    2        3.255592   1.000000
    3        3.269210   1.000000
    4        3.273396   1.000000
    5        3.506024   1.000000
    6        3.602532   1.000000
    7        3.643833   1.000000
    8        5.427572   1.000000
    9        5.495665   1.000000
   10        5.976673   1.000000
   11        6.773495   1.000000
   12        7.397970   1.000000
   13        7.399863   1.000000
   14        7.482307   1.000000
   15        8.010170   1.000000
   16        8.100877   1.000000
   17        8.137576   1.000000
   18        8.379537   1.000000
   19        8.467728   1.000000
   20        8.471839   1.000000
   21        8.523043   1.000000
   22       10.623762   0.727493
   23       12.571901   0.000000
   24       13.093062   0.000000
   25       15.556849   0.000000
   26       16.077887   0.000000
   27       20.029550   0.000000
 
  0.2666667E+00  0.6666667E-01 -0.2067952E-24  0.5925926E-03
    1        1.085307   1.000000
    2        3.409674   1.000000
    3        3.511036   1.000000
    4        3.556083   1.000000
    5        3.682823   1.000000
    6        3.797879   1.000000
    7        3.862597   1.000000
    8        5.498581   1.000000
    9        5.652777   1.000000
   10        5.828297   1.000000
   11        6.745221   1.000000
   12        6.784401   1.000000
   13        6.909342   1.000000
   14        7.315775   1.000000
   15        7.636586   1.000000
   16        7.896213   1.000000
   17        7.928532   1.000000
   18        8.002108   1.000000
   19        8.280382   1.000000
   20        8.468976   1.000000
   21        8.490346   1.000000
   22        9.513938   1.000000
   23       13.410047   0.000000
   24       14.056101   0.000000
   25       15.255005   0.000000
   26       15.885521   0.000000
   27       19.472111   0.000000
 
  0.3333333E+00  0.6666667E-01  0.8271806E-24  0.5925926E-03
    1        1.600286   1.000000
    2        3.501781   1.000000
    3        3.796061   1.000000
    4        3.873752   1.000000
    5        3.902548   1.000000
    6        4.050912   1.000000
    7        4.138100   1.000000
    8        5.336452   1.000000
    9        5.852369   1.000000
   10        5.922641   1.000000
   11        6.144434   1.000000
   12        6.194858   1.000000
   13        7.061355   1.000000
   14        7.148905   1.000000
   15        7.218087   1.000000
   16        7.598464   1.000000
   17        7.650606   1.000000
   18        7.678281   1.000000
   19        8.037768   1.000000
   20        8.470135   1.000000
   21        8.478956   1.000000
   22        8.582640   1.000000
   23       14.086823   0.000000
   24       14.967507   0.000000
   25       15.047918   0.000000
   26       15.878548   0.000000
   27       18.923291   0.000000
 
  0.4000000E+00  0.6666667E-01  0.8271806E-24  0.5925926E-03
    1        2.173380   1.000000
    2        3.462989   1.000000
    3        4.085984   1.000000
    4        4.158995   1.000000
    5        4.165943   1.000000
    6        4.362606   1.000000
    7        4.440637   1.000000
    8        5.053014   1.000000
    9        5.605599   1.000000
   10        5.651951   1.000000
   11        6.083416   1.000000
   12        6.163820   1.000000
   13        6.816819   1.000000
   14        6.973438   1.000000
   15        7.196047   1.000000
   16        7.281189   1.000000
   17        7.409649   1.000000
   18        7.430122   1.000000
   19        7.635683   1.000000
   20        8.018152   1.000000
   21        8.471106   1.000000
   22        8.474565   1.000000
   23       14.420775   0.000000
   24       14.739585   0.000000
   25       16.046808   0.000000
   26       16.263830   0.000000
   27       18.336320   0.000000
 
  0.4666667E+00  0.6666667E-01  0.1654361E-23  0.5925926E-03
    1        2.742797   1.000000
    2        3.207353   1.000000
    3        4.311860   1.000000
    4        4.343739   1.000000
    5        4.443985   1.000000
    6        4.733569   1.000000
    7        4.746886   1.000000
    8        4.756661   1.000000
    9        5.138302   1.000000
   10        5.163728   1.000000
   11        6.311367   1.000000
   12        6.466592   1.000000
   13        6.520427   1.000000
   14        6.814254   1.000000
   15        6.958375   1.000000
   16        7.191740   1.000000
   17        7.253680   1.000000
   18        7.261657   1.000000
   19        7.495621   1.000000
   20        7.731633   1.000000
   21        8.471902   1.000000
   22        8.472786   1.000000
   23       14.515998   0.000000
   24       14.593524   0.000000
   25       16.941107   0.000000
   26       17.031496   0.000000
   27       17.669724   0.000000
 
 -0.4666667E+00  0.6666667E-01  0.0000000E+00  0.5925926E-03
    1        2.742797   1.000000
    2        3.207353   1.000000
    3        4.311860   1.000000
    4        4.343739   1.000000
    5        4.443985   1.000000
    6        4.733569   1.000000
    7        4.746886   1.000000
    8        4.756661   1.000000
    9        5.138302   1.000000
   10        5.163728   1.000000
   11        6.311367   1.000000
   12        6.466592   1.000000
   13        6.520427   1.000000
   14        6.814254   1.000000
   15        6.958375   1.000000
   16        7.191740   1.000000
   17        7.253680   1.000000
   18        7.261657   1.000000
   19        7.495621   1.000000
   20        7.731633   1.000000
   21        8.471902   1.000000
   22        8.472786   1.000000
   23       14.515999   0.000000
   24       14.593524   0.000000
   25       16.941107   0.000000
   26       17.031497   0.000000
   27       17.669686   0.000000
 
 -0.4000000E+00  0.6666667E-01  0.0000000E+00  0.5925926E-03
    1        2.173380   1.000000
    2        3.462989   1.000000
    3        4.085983   1.000000
    4        4.158995   1.000000
    5        4.165943   1.000000
    6        4.362606   1.000000
    7        4.440637   1.000000
    8        5.053014   1.000000
    9        5.605600   1.000000
   10        5.651951   1.000000
   11        6.083416   1.000000
   12        6.163820   1.000000
   13        6.816819   1.000000
   14        6.973438   1.000000
   15        7.196047   1.000000
   16        7.281189   1.000000
   17        7.409649   1.000000
   18        7.430122   1.000000
   19        7.635683   1.000000
   20        8.018153   1.000000
   21        8.471106   1.000000
   22        8.474565   1.000000
   23       14.420776   0.000000
   24       14.739585   0.000000
   25       16.046808   0.000000
   26       16.263830   0.000000
   27       18.336323   0.000000
 
 -0.3333333E+00  0.6666667E-01 -0.2481542E-23  0.5925926E-03
    1        1.600286   1.000000
    2        3.501781   1.000000
    3        3.796061   1.000000
    4        3.873752   1.000000
    5        3.902548   1.000000
    6        4.050912   1.000000
    7        4.138100   1.000000
    8        5.336452   1.000000
    9        5.852369   1.000000
   10        5.922641   1.000000
   11        6.144434   1.000000
   12        6.194858   1.000000
   13        7.061355   1.000000
   14        7.148905   1.000000
   15        7.218087   1.000000
   16        7.598464   1.000000
   17        7.650606   1.000000
   18        7.678281   1.000000
   19        8.037768   1.000000
   20        8.470135   1.000000
   21        8.478956   1.000000
   22        8.582640   1.000000
   23       14.086823   0.000000
   24       14.967507   0.000000
   25       15.047918   0.000000
   26       15.878548   0.000000
   27       18.923229   0.000000
 
 -0.2666667E+00  0.6666667E-01 -0.1654361E-23  0.5925926E-03
    1        1.085307   1.000000
    2        3.409674   1.000000
    3        3.511036   1.000000
    4        3.556083   1.000000
    5        3.682823   1.000000
    6        3.797879   1.000000
    7        3.862597   1.000000
    8        5.498581   1.000000
    9        5.652777   1.000000
   10        5.828297   1.000000
   11        6.745221   1.000000
   12        6.784401   1.000000
   13        6.909342   1.000000
   14        7.315775   1.000000
   15        7.636586   1.000000
   16        7.896213   1.000000
   17        7.928532   1.000000
   18        8.002108   1.000000
   19        8.280382   1.000000
   20        8.468976   1.000000
   21        8.490346   1.000000
   22        9.513938   1.000000
   23       13.410048   0.000000
   24       14.056101   0.000000
   25       15.255005   0.000000
   26       15.885521   0.000000
   27       19.472135   0.000000
 
 -0.2000000E+00  0.6666667E-01  0.8271806E-24  0.5925926E-03
    1        0.662296   1.000000
    2        3.255592   1.000000
    3        3.269210   1.000000
    4        3.273396   1.000000
    5        3.506024   1.000000
    6        3.602532   1.000000
    7        3.643833   1.000000
    8        5.427571   1.000000
    9        5.495665   1.000000
   10        5.976673   1.000000
   11        6.773495   1.000000
   12        7.397970   1.000000
   13        7.399863   1.000000
   14        7.482307   1.000000
   15        8.010170   1.000000
   16        8.100877   1.000000
   17        8.137576   1.000000
   18        8.379537   1.000000
   19        8.467728   1.000000
   20        8.471839   1.000000
   21        8.523043   1.000000
   22       10.623762   0.727492
   23       12.571901   0.000000
   24       13.093062   0.000000
   25       15.556849   0.000000
   26       16.077887   0.000000
   27       20.038054   0.000000
 
 -0.1333333E+00  0.6666667E-01  0.0000000E+00  0.5925926E-03
    1        0.350103   1.000000
    2        3.046106   1.000000
    3        3.052740   1.000000
    4        3.147390   1.000000
    5        3.376686   1.000000
    6        3.463883   1.000000
    7        3.490675   1.000000
    8        5.326272   1.000000
    9        5.383523   1.000000
   10        6.148463   1.000000
   11        6.672525   1.000000
   12        7.611274   1.000000
   13        7.949623   1.000000
   14        8.090865   1.000000
   15        8.247363   1.000000
   16        8.292340   1.000000
   17        8.295149   1.000000
   18        8.466607   1.000000
   19        8.634159   1.000000
   20        8.641967   1.000000
   21        8.695006   1.000000
   22       11.706035   0.000000
   23       11.776905   0.000000
   24       12.189539   0.000000
   25       15.818866   0.000000
   26       16.292452   0.000000
   27       19.522768   0.000000
 
 -0.6666667E-01  0.6666667E-01 -0.4135903E-24  0.5925926E-03
    1        0.159242   1.000000
    2        2.905716   1.000000
    3        2.922856   1.000000
    4        3.061850   1.000000
    5        3.297881   1.000000
    6        3.381092   1.000000
    7        3.400754   1.000000
    8        5.259977   1.000000
    9        5.316541   1.000000
   10        6.263834   1.000000
   11        6.610474   1.000000
   12        7.691543   1.000000
   13        8.222517   1.000000
   14        8.333498   1.000000
   15        8.371160   1.000000
   16        8.459940   1.000000
   17        8.465834   1.000000
   18        8.760836   1.000000
   19        8.791924   1.000000
   20        8.907890   1.000000
   21        8.996133   1.000000
   22       10.901924   0.000436
   23       11.420124   0.000000
   24       12.771533   0.000000
   25       15.994794   0.000000
   26       16.447115   0.000000
   27       18.795971   0.000000
 
  0.1058617E-25  0.1333333E+00  0.0000000E+00  0.5925926E-03
    1        0.247414   1.000000
    2        2.901867   1.000000
    3        2.984771   1.000000
    4        3.125170   1.000000
    5        3.358665   1.000000
    6        3.406611   1.000000
    7        3.477422   1.000000
    8        5.163352   1.000000
    9        5.388243   1.000000
   10        6.356398   1.000000
   11        6.545921   1.000000
   12        7.697580   1.000000
   13        7.773122   1.000000
   14        8.204518   1.000000
   15        8.356091   1.000000
   16        8.362885   1.000000
   17        8.364655   1.000000
   18        8.383709   1.000000
   19        8.992771   1.000000
   20        9.009580   1.000000
   21        9.256725   1.000000
   22        9.663723   1.000000
   23       11.653389   0.000000
   24       13.721660   0.000000
   25       16.003172   0.000000
   26       17.557573   0.000000
   27       17.787649   0.000000
 
  0.6666667E-01  0.1333333E+00  0.1654361E-23  0.5925926E-03
    1        0.310175   1.000000
    2        2.950536   1.000000
    3        3.021285   1.000000
    4        3.155705   1.000000
    5        3.384076   1.000000
    6        3.433315   1.000000
    7        3.511467   1.000000
    8        5.181834   1.000000
    9        5.403421   1.000000
   10        6.322542   1.000000
   11        6.574066   1.000000
   12        7.672263   1.000000
   13        7.713441   1.000000
   14        8.159269   1.000000
   15        8.181528   1.000000
   16        8.326071   1.000000
   17        8.364753   1.000000
   18        8.487579   1.000000
   19        8.497594   1.000000
   20        8.917191   1.000000
   21        9.083361   1.000000
   22       10.208569   1.000000
   23       11.934917   0.000000
   24       13.270479   0.000000
   25       15.936446   0.000000
   26       17.500749   0.000000
   27       18.121870   0.000000
 
  0.1333333E+00  0.1333333E+00  0.1240771E-23  0.5925926E-03
    1        0.496762   1.000000
    2        3.093465   1.000000
    3        3.126308   1.000000
    4        3.242715   1.000000
    5        3.459687   1.000000
    6        3.513511   1.000000
    7        3.615457   1.000000
    8        5.233841   1.000000
    9        5.450277   1.000000
   10        6.227811   1.000000
   11        6.656282   1.000000
   12        7.503778   1.000000
   13        7.597696   1.000000
   14        7.786190   1.000000
   15        7.857777   1.000000
   16        8.110291   1.000000
   17        8.250556   1.000000
   18        8.364975   1.000000
   19        8.500573   1.000000
   20        8.704588   1.000000
   21        8.773486   1.000000
   22       10.997579   0.000001
   23       12.274270   0.000000
   24       12.598745   0.000000
   25       15.744023   0.000000
   26       17.338904   0.000000
   27       18.806970   0.000000
 
  0.2000000E+00  0.1333333E+00  0.4135903E-24  0.5925926E-03
    1        0.801456   1.000000
    2        3.288104   1.000000
    3        3.320962   1.000000
    4        3.370891   1.000000
    5        3.583626   1.000000
    6        3.647767   1.000000
    7        3.791965   1.000000
    8        5.303141   1.000000
    9        5.531820   1.000000
   10        6.097597   1.000000
   11        6.785581   1.000000
   12        7.111095   1.000000
   13        7.117331   1.000000
   14        7.479930   1.000000
   15        7.489717   1.000000
   16        7.985682   1.000000
   17        8.110791   1.000000
   18        8.365254   1.000000
   19        8.390092   1.000000
   20        8.418814   1.000000
   21        8.558577   1.000000
   22       11.145874   0.000000
   23       11.794766   0.000000
   24       13.436221   0.000000
   25       15.452424   0.000000
   26       17.104163   0.000000
   27       19.382164   0.000000
 
  0.2666667E+00  0.1333333E+00  0.2481542E-23  0.5925926E-03
    1        1.213652   1.000000
    2        3.494146   1.000000
    3        3.509132   1.000000
    4        3.614243   1.000000
    5        3.752547   1.000000
    6        3.836694   1.000000
    7        4.035538   1.000000
    8        5.335527   1.000000
    9        5.650034   1.000000
   10        5.999628   1.000000
   11        6.486361   1.000000
   12        6.622344   1.000000
   13        6.944617   1.000000
   14        7.084289   1.000000
   15        7.340460   1.000000
   16        7.805891   1.000000
   17        7.915621   1.000000
   18        8.014714   1.000000
   19        8.247522   1.000000
   20        8.365511   1.000000
   21        8.453417   1.000000
   22       10.077353   1.000000
   23       12.546365   0.000000
   24       14.357502   0.000000
   25       15.109071   0.000000
   26       16.863059   0.000000
   27       18.766532   0.000000
 
  0.3333333E+00  0.1333333E+00  0.9305782E-24  0.5925926E-03
    1        1.714646   1.000000
    2        3.600483   1.000000
    3        3.736875   1.000000
    4        3.939812   1.000000
    5        3.961605   1.000000
    6        4.080975   1.000000
    7        4.321330   1.000000
    8        5.236625   1.000000
    9        5.800699   1.000000
   10        5.922718   1.000000
   11        6.043475   1.000000
   12        6.103106   1.000000
   13        6.684155   1.000000
   14        7.034384   1.000000
   15        7.297041   1.000000
   16        7.584064   1.000000
   17        7.614584   1.000000
   18        7.677528   1.000000
   19        7.982483   1.000000
   20        8.365797   1.000000
   21        8.405203   1.000000
   22        9.181282   1.000000
   23       13.193460   0.000000
   24       14.770428   0.000000
   25       15.321351   0.000000
   26       16.712931   0.000000
   27       18.251292   0.000000
 
  0.4000000E+00  0.1333333E+00  0.1861156E-23  0.5925926E-03
    1        2.271844   1.000000
    2        3.554769   1.000000
    3        4.008494   1.000000
    4        4.204080   1.000000
    5        4.236582   1.000000
    6        4.381046   1.000000
    7        4.600800   1.000000
    8        5.016844   1.000000
    9        5.433738   1.000000
   10        5.604223   1.000000
   11        5.961307   1.000000
   12        6.233790   1.000000
   13        6.359022   1.000000
   14        6.967705   1.000000
   15        7.217717   1.000000
   16        7.364060   1.000000
   17        7.433663   1.000000
   18        7.489269   1.000000
   19        7.623412   1.000000
   20        8.366405   1.000000
   21        8.382795   1.000000
   22        8.530533   1.000000
   23       13.678488   0.000000
   24       14.477986   0.000000
   25       16.301018   0.000000
   26       16.746348   0.000000
   27       17.785738   0.000000
 
  0.4666667E+00  0.1333333E+00  0.0000000E+00  0.5925926E-03
    1        2.828158   1.000000
    2        3.290428   1.000000
    3        4.273714   1.000000
    4        4.389421   1.000000
    5        4.470683   1.000000
    6        4.736507   1.000000
    7        4.748424   1.000000
    8        4.823105   1.000000
    9        5.055388   1.000000
   10        5.145640   1.000000
   11        6.082203   1.000000
   12        6.173818   1.000000
   13        6.510970   1.000000
   14        6.844509   1.000000
   15        7.004932   1.000000
   16        7.228502   1.000000
   17        7.249540   1.000000
   18        7.255941   1.000000
   19        7.762020   1.000000
   20        8.091735   1.000000
   21        8.368107   1.000000
   22        8.372547   1.000000
   23       13.999798   0.000000
   24       14.236200   0.000000
   25       16.983485   0.000000
   26       17.272980   0.000000
   27       17.355010   0.000000
 
 -0.4666667E+00  0.1333333E+00  0.1654361E-23  0.5925926E-03
    1        2.828158   1.000000
    2        3.290428   1.000000
    3        4.273714   1.000000
    4        4.389421   1.000000
    5        4.470683   1.000000