       N       E                     dE             d eps       ncg     rms          rms(c)
DAV:   1     0.284681271165E+03    0.28468E+03   -0.22957E+04 92025   0.154E+03
DAV:   2    -0.833965959066E+01   -0.29302E+03   -0.28557E+03104139   0.340E+02
DAV:   3    -0.133906899128E+02   -0.50510E+01   -0.50221E+01101970   0.474E+01
DAV:   4    -0.134179426780E+02   -0.27253E-01   -0.27244E-01105876   0.356E+00
DAV:   5    -0.134181784332E+02   -0.23576E-03   -0.23575E-03106569   0.346E-01    0.230E+01
RMM:   6    -0.124417455360E+02    0.97643E+00   -0.21824E+00 91152   0.994E+00    0.141E+01
RMM:   7    -0.123483139828E+02    0.93432E-01   -0.50196E-01 91168   0.464E+00    0.460E+00
RMM:   8    -0.123329243362E+02    0.15390E-01   -0.41527E-02 91160   0.138E+00    0.652E-01
RMM:   9    -0.123327979955E+02    0.12634E-03   -0.20678E-04 91178   0.834E-02    0.564E-02
RMM:  10    -0.123328047131E+02   -0.67176E-05   -0.14267E-05 90970   0.303E-02    0.508E-02
RMM:  11    -0.123328083612E+02   -0.36480E-05   -0.11538E-06 50235   0.746E-03    0.967E-04
RMM:  12    -0.123328083055E+02    0.55640E-07   -0.10944E-07 40635   0.217E-03
   1 F= -.12332808E+02 E0= -.12329784E+02  d E =-.123328E+02
