   8   8   0   0
  0.5742753E+01  0.3585517E-09  0.3585517E-09  0.3573605E-09  0.5000000E-15
  1.000000000000000E-004
  CAR 
 unknown system                          
     24.20243576    -12.17921505  301     10.99134881      1.00000000
    -12.179  0.0000E+00  0.0000E+00
    -12.058  0.0000E+00  0.0000E+00
    -11.937  0.0000E+00  0.0000E+00
    -11.815  0.0000E+00  0.0000E+00
    -11.694  0.0000E+00  0.0000E+00
    -11.573  0.0000E+00  0.0000E+00
    -11.452  0.0000E+00  0.0000E+00
    -11.330  0.0000E+00  0.0000E+00
    -11.209  0.0000E+00  0.0000E+00
    -11.088  0.0000E+00  0.0000E+00
    -10.966  0.0000E+00  0.0000E+00
    -10.845  0.0000E+00  0.0000E+00
    -10.724  0.4784E-11  0.5801E-12
    -10.603  0.6985E-05  0.8471E-06
    -10.481  0.5409E-03  0.6644E-04
    -10.360  0.1742E-02  0.2777E-03
    -10.239  0.2202E-02  0.5447E-03
    -10.118  0.3290E-02  0.9437E-03
     -9.996  0.2362E-02  0.1230E-02
     -9.875  0.4455E-02  0.1770E-02
     -9.754  0.3465E-02  0.2191E-02
     -9.632  0.4038E-02  0.2680E-02
     -9.511  0.5023E-02  0.3289E-02
     -9.390  0.4970E-02  0.3892E-02
     -9.269  0.5422E-02  0.4550E-02
     -9.147  0.3889E-02  0.5021E-02
     -9.026  0.6856E-02  0.5853E-02
     -8.905  0.6480E-02  0.6638E-02
     -8.784  0.5326E-02  0.7284E-02
     -8.662  0.4942E-02  0.7884E-02
     -8.541  0.7494E-02  0.8793E-02
     -8.420  0.8113E-02  0.9776E-02
     -8.299  0.5922E-02  0.1049E-01
     -8.177  0.7553E-02  0.1141E-01
     -8.056  0.6375E-02  0.1218E-01
     -7.935  0.8726E-02  0.1324E-01
     -7.813  0.5598E-02  0.1392E-01
     -7.692  0.9682E-02  0.1510E-01
     -7.571  0.1043E-01  0.1636E-01
     -7.450  0.5444E-02  0.1702E-01
     -7.328  0.8266E-02  0.1802E-01
     -7.207  0.7350E-02  0.1891E-01
     -7.086  0.1248E-01  0.2043E-01
     -6.965  0.8847E-02  0.2150E-01
     -6.843  0.9351E-02  0.2263E-01
     -6.722  0.7644E-02  0.2356E-01
     -6.601  0.1078E-01  0.2487E-01
     -6.479  0.8744E-02  0.2593E-01
     -6.358  0.1123E-01  0.2729E-01
     -6.237  0.9728E-02  0.2847E-01
     -6.116  0.1134E-01  0.2984E-01
     -5.994  0.1068E-01  0.3114E-01
     -5.873  0.1190E-01  0.3258E-01
     -5.752  0.1249E-01  0.3410E-01
     -5.631  0.7013E-02  0.3495E-01
     -5.509  0.1018E-01  0.3618E-01
     -5.388  0.1684E-01  0.3823E-01
     -5.267  0.1275E-01  0.3977E-01
     -5.145  0.1234E-01  0.4127E-01
     -5.024  0.1492E-01  0.4308E-01
     -4.903  0.1065E-01  0.4437E-01
     -4.782  0.1547E-01  0.4625E-01
     -4.660  0.1591E-01  0.4817E-01
     -4.539  0.1652E-01  0.5018E-01
     -4.418  0.1278E-01  0.5173E-01
     -4.297  0.1438E-01  0.5347E-01
     -4.175  0.1322E-01  0.5508E-01
     -4.054  0.2127E-01  0.5766E-01
     -3.933  0.7188E-02  0.5853E-01
     -3.811  0.1353E-01  0.6017E-01
     -3.690  0.9445E-02  0.6131E-01
     -3.569  0.1134E-01  0.6269E-01
     -3.448  0.1665E-01  0.6471E-01
     -3.326  0.1271E-01  0.6625E-01
     -3.205  0.6671E-02  0.6706E-01
     -3.084  0.1283E-01  0.6861E-01
     -2.963  0.9992E-02  0.6983E-01
     -2.841  0.1328E-01  0.7144E-01
     -2.720  0.7904E-02  0.7240E-01
     -2.599  0.5372E-02  0.7305E-01
     -2.477  0.7184E-02  0.7392E-01
     -2.356  0.1008E-01  0.7514E-01
     -2.235  0.1298E-01  0.7671E-01
     -2.114  0.1279E-01  0.7827E-01
     -1.992  0.1431E-01  0.8000E-01
     -1.871  0.1164E-01  0.8141E-01
     -1.750  0.5921E-02  0.8213E-01
     -1.629  0.7367E-02  0.8302E-01
     -1.507  0.1217E-01  0.8450E-01
     -1.386  0.8522E-02  0.8553E-01
     -1.265  0.9501E-02  0.8669E-01
     -1.143  0.1665E-01  0.8870E-01
     -1.022  0.1914E-01  0.9103E-01
     -0.901  0.1658E-01  0.9304E-01
     -0.780  0.2554E-01  0.9613E-01
     -0.658  0.1933E-01  0.9848E-01
     -0.537  0.2486E-01  0.1015E+00
     -0.416  0.1237E-01  0.1030E+00
     -0.295  0.2190E-01  0.1056E+00
     -0.173  0.2335E-01  0.1085E+00
     -0.052  0.2730E-01  0.1118E+00
      0.069  0.1378E-01  0.1135E+00
      0.191  0.1478E-01  0.1153E+00
      0.312  0.8410E-02  0.1163E+00
      0.433  0.1128E-01  0.1176E+00
      0.554  0.1468E-01  0.1194E+00
      0.676  0.1001E-01  0.1206E+00
      0.797  0.1251E-01  0.1222E+00
      0.918  0.1500E-01  0.1240E+00
      1.039  0.1560E-01  0.1259E+00
      1.161  0.7383E-02  0.1268E+00
      1.282  0.8905E-02  0.1278E+00
      1.403  0.1403E-01  0.1295E+00
      1.525  0.1013E-01  0.1308E+00
      1.646  0.7978E-02  0.1317E+00
      1.767  0.1802E-01  0.1339E+00
      1.888  0.1314E-01  0.1355E+00
      2.010  0.2633E-01  0.1387E+00
      2.131  0.1368E-01  0.1404E+00
      2.252  0.2347E-01  0.1432E+00
      2.373  0.2067E-01  0.1457E+00
      2.495  0.2777E-01  0.1491E+00
      2.616  0.1771E-01  0.1512E+00
      2.737  0.1648E-01  0.1532E+00
      2.859  0.1482E-01  0.1550E+00
      2.980  0.1728E-01  0.1571E+00
      3.101  0.3187E-01  0.1610E+00
      3.222  0.3164E-01  0.1648E+00
      3.344  0.1091E-01  0.1662E+00
      3.465  0.1710E-01  0.1682E+00
      3.586  0.2248E-01  0.1710E+00
      3.707  0.2448E-01  0.1739E+00
      3.829  0.2800E-01  0.1773E+00
      3.950  0.2188E-01  0.1800E+00
      4.071  0.2492E-01  0.1830E+00
      4.193  0.1667E-01  0.1850E+00
      4.314  0.2932E-01  0.1886E+00
      4.435  0.3721E-01  0.1931E+00
      4.556  0.2899E-01  0.1966E+00
      4.678  0.2957E-01  0.2002E+00
      4.799  0.2972E-01  0.2038E+00
      4.920  0.2741E-01  0.2071E+00
      5.041  0.2790E-01  0.2105E+00
      5.163  0.4235E-01  0.2156E+00
      5.284  0.4174E-01  0.2207E+00
      5.405  0.2251E-01  0.2234E+00
      5.527  0.1680E-01  0.2255E+00
      5.648  0.2991E-01  0.2291E+00
      5.769  0.3476E-01  0.2333E+00
      5.890  0.4229E-01  0.2384E+00
      6.012  0.2236E-01  0.2411E+00
      6.133  0.2261E-01  0.2439E+00
      6.254  0.3139E-01  0.2477E+00
      6.375  0.2836E-01  0.2511E+00
      6.497  0.2572E-01  0.2542E+00
      6.618  0.3382E-01  0.2583E+00
      6.739  0.2585E-01  0.2615E+00
      6.861  0.2133E-01  0.2641E+00
      6.982  0.2837E-01  0.2675E+00
      7.103  0.3721E-01  0.2720E+00
      7.224  0.2214E-01  0.2747E+00
      7.346  0.2084E-01  0.2772E+00
      7.467  0.2828E-01  0.2807E+00
      7.588  0.1881E-01  0.2829E+00
      7.709  0.3748E-01  0.2875E+00
      7.831  0.2985E-01  0.2911E+00
      7.952  0.1629E-01  0.2931E+00
      8.073  0.1568E-01  0.2950E+00
      8.195  0.2628E-01  0.2982E+00
      8.316  0.1966E-01  0.3006E+00
      8.437  0.2047E-01  0.3030E+00
      8.558  0.1119E-01  0.3044E+00
      8.680  0.7588E-02  0.3053E+00
      8.801  0.1311E-01  0.3069E+00
      8.922  0.1772E-01  0.3091E+00
      9.043  0.1172E-01  0.3105E+00
      9.165  0.8435E-02  0.3115E+00
      9.286  0.8061E-02  0.3125E+00
      9.407  0.5894E-02  0.3132E+00
      9.529  0.1229E-01  0.3147E+00
      9.650  0.8280E-02  0.3157E+00
      9.771  0.4539E-02  0.3162E+00
      9.892  0.6236E-02  0.3170E+00
     10.014  0.4304E-02  0.3175E+00
     10.135  0.6593E-02  0.3183E+00
     10.256  0.3320E-02  0.3187E+00
     10.377  0.4985E-02  0.3193E+00
     10.499  0.1597E-02  0.3195E+00
     10.620  0.2778E-02  0.3199E+00
     10.741  0.1121E-02  0.3200E+00
     10.862  0.7486E-04  0.3200E+00
     10.984  0.1493E-08  0.3200E+00
     11.105  0.0000E+00  0.3200E+00
     11.226  0.0000E+00  0.3200E+00
     11.348  0.0000E+00  0.3200E+00
     11.469  0.0000E+00  0.3200E+00
     11.590  0.0000E+00  0.3200E+00
     11.711  0.0000E+00  0.3200E+00
     11.833  0.0000E+00  0.3200E+00
     11.954  0.0000E+00  0.3200E+00
     12.075  0.0000E+00  0.3200E+00
     12.196  0.0000E+00  0.3200E+00
     12.318  0.0000E+00  0.3200E+00
     12.439  0.0000E+00  0.3200E+00
     12.560  0.0000E+00  0.3200E+00
     12.682  0.0000E+00  0.3200E+00
     12.803  0.0000E+00  0.3200E+00
     12.924  0.0000E+00  0.3200E+00
     13.045  0.0000E+00  0.3200E+00
     13.167  0.0000E+00  0.3200E+00
     13.288  0.0000E+00  0.3200E+00
     13.409  0.0000E+00  0.3200E+00
     13.530  0.0000E+00  0.3200E+00
     13.652  0.0000E+00  0.3200E+00
     13.773  0.0000E+00  0.3200E+00
     13.894  0.0000E+00  0.3200E+00
     14.016  0.0000E+00  0.3200E+00
     14.137  0.0000E+00  0.3200E+00
     14.258  0.0000E+00  0.3200E+00
     14.379  0.0000E+00  0.3200E+00
     14.501  0.0000E+00  0.3200E+00
     14.622  0.2135E-18  0.3200E+00
     14.743  0.1088E-08  0.3200E+00
     14.864  0.8568E-04  0.3200E+00
     14.986  0.2226E-02  0.3203E+00
     15.107  0.3514E-02  0.3207E+00
     15.228  0.2454E-02  0.3210E+00
     15.350  0.4927E-02  0.3216E+00
     15.471  0.9771E-02  0.3228E+00
     15.592  0.9171E-02  0.3239E+00
     15.713  0.8596E-02  0.3249E+00
     15.835  0.6745E-02  0.3258E+00
     15.956  0.8023E-02  0.3267E+00
     16.077  0.1935E-01  0.3291E+00
     16.198  0.1677E-01  0.3311E+00
     16.320  0.1705E-01  0.3332E+00
     16.441  0.1633E-01  0.3352E+00
     16.562  0.1371E-01  0.3368E+00
     16.684  0.1880E-01  0.3391E+00
     16.805  0.1340E-01  0.3407E+00
     16.926  0.2024E-01  0.3432E+00
     17.047  0.2811E-01  0.3466E+00
     17.169  0.2424E-01  0.3495E+00
     17.290  0.2213E-01  0.3522E+00
     17.411  0.1423E-01  0.3539E+00
     17.532  0.2085E-01  0.3565E+00
     17.654  0.3220E-01  0.3604E+00
     17.775  0.2452E-01  0.3633E+00
     17.896  0.2206E-01  0.3660E+00
     18.018  0.1818E-01  0.3682E+00
     18.139  0.3011E-01  0.3719E+00
     18.260  0.3324E-01  0.3759E+00
     18.381  0.3464E-01  0.3801E+00
     18.503  0.3832E-01  0.3848E+00
     18.624  0.3441E-01  0.3889E+00
     18.745  0.3254E-01  0.3929E+00
     18.866  0.3060E-01  0.3966E+00
     18.988  0.3784E-01  0.4012E+00
     19.109  0.3891E-01  0.4059E+00
     19.230  0.4409E-01  0.4112E+00
     19.352  0.4745E-01  0.4170E+00
     19.473  0.5819E-01  0.4241E+00
     19.594  0.3356E-01  0.4281E+00
     19.715  0.2918E-01  0.4317E+00
     19.837  0.3526E-01  0.4359E+00
     19.958  0.2478E-01  0.4389E+00
     20.079  0.2345E-01  0.4418E+00
     20.200  0.1997E-01  0.4442E+00
     20.322  0.3365E-01  0.4483E+00
     20.443  0.3848E-01  0.4530E+00
     20.564  0.2569E-01  0.4561E+00
     20.686  0.3132E-01  0.4599E+00
     20.807  0.2403E-01  0.4628E+00
     20.928  0.2536E-01  0.4659E+00
     21.049  0.2265E-01  0.4686E+00
     21.171  0.1042E-01  0.4699E+00
     21.292  0.1301E-01  0.4714E+00
     21.413  0.2074E-01  0.4740E+00
     21.534  0.1350E-01  0.4756E+00
     21.656  0.1426E-01  0.4773E+00
     21.777  0.9293E-02  0.4785E+00
     21.898  0.4446E-02  0.4790E+00
     22.020  0.4385E-02  0.4795E+00
     22.141  0.9021E-03  0.4796E+00
     22.262  0.1158E-03  0.4797E+00
     22.383  0.1591E-04  0.4797E+00
     22.505  0.1393E-02  0.4798E+00
     22.626  0.1462E-02  0.4800E+00
     22.747  0.1426E-04  0.4800E+00
     22.868  0.7008E-11  0.4800E+00
     22.990  0.0000E+00  0.4800E+00
     23.111  0.0000E+00  0.4800E+00
     23.232  0.0000E+00  0.4800E+00
     23.354  0.0000E+00  0.4800E+00
     23.475  0.0000E+00  0.4800E+00
     23.596  0.0000E+00  0.4800E+00
     23.717  0.0000E+00  0.4800E+00
     23.839  0.0000E+00  0.4800E+00
     23.960  0.0000E+00  0.4800E+00
     24.081  0.0000E+00  0.4800E+00
     24.202  0.0000E+00  0.4800E+00
