<?xml version="1.0" encoding="ISO-8859-1"?>
<modeling>
 <generator>
  <i name="program" type="string">vasp </i>
  <i name="version" type="string">5.4.4.18Apr17-6-g9f103f2a35  </i>
  <i name="subversion" type="string">(build Jan 14 2019 14:48:31) complex            parallel </i>
  <i name="platform" type="string">LinuxIFC </i>
  <i name="date" type="string">2019 08 26 </i>
  <i name="time" type="string">21:13:34 </i>
 </generator>
 <incar>
  <i type="int" name="ISTART">     0</i>
  <i type="string" name="PREC">high     (precision level)</i>
  <i type="logical" name="ADDGRID"> T  </i>
  <i type="int" name="NELM">    40</i>
  <i type="int" name="NELMIN">     4</i>
  <i type="int" name="IBRION">     2</i>
  <i name="EDIFF">      0.00000001</i>
  <i name="EDIFFG">     -0.01000000</i>
  <i type="int" name="NSW">   100</i>
  <i type="int" name="ISIF">     2</i>
  <i type="logical" name="LREAL"> F  </i>
  <i type="int" name="ISMEAR">     0</i>
  <i name="SIGMA">      0.05000000</i>
  <i type="logical" name="LWAVE"> F  </i>
  <i type="logical" name="LCHARG"> F  </i>
  <v type="int" name="KPOINT_BSE">    -1     0     0     0</v>
  <i type="int" name="NELM">    40</i>
 </incar>
 <structure name="primitive_cell" >
  <crystal>
   <varray name="basis" >
    <v>       1.79275854       0.00000000       1.78680254 </v>
    <v>      -1.79275854       0.00000000       1.78680254 </v>
    <v>       0.00000000      -1.79275854      -1.78680254 </v>
   </varray>
   <i name="volume">     11.48550665 </i>
   <varray name="rec_basis" >
    <v>       0.27889980      -0.27889980       0.27982947 </v>
    <v>      -0.27889980      -0.27889980       0.27982947 </v>
    <v>       0.00000000      -0.55779960       0.00000000 </v>
   </varray>
  </crystal>
  <varray name="positions" >
   <v>       0.25000000      -0.25000000      -0.50000000 </v>
   <v>       0.00000000       0.00000000       0.00000000 </v>
  </varray>
 </structure>
 <varray name="primitive_index" >
  <v type="int" >        1 </v>
  <v type="int" >        2 </v>
 </varray>
 <kpoints>
  <generation param="Monkhorst-Pack">
   <v type="int" name="divisions">      14       14       14 </v>
   <v name="usershift">      0.00000000       0.00000000       0.00000000 </v>
   <v name="genvec1">      0.07142857       0.00000000       0.00000000 </v>
   <v name="genvec2">      0.00000000       0.07142857       0.00000000 </v>
   <v name="genvec3">      0.00000000       0.00000000       0.07142857 </v>
   <v name="shift">      0.50000000       0.50000000       0.50000000 </v>
  </generation>
  <varray name="kpointlist" >
   <v>       0.03571429       0.03571429       0.03571429 </v>
   <v>       0.10714286       0.03571429       0.03571429 </v>
   <v>       0.17857143       0.03571429       0.03571429 </v>
   <v>       0.25000000       0.03571429       0.03571429 </v>
   <v>       0.32142857       0.03571429       0.03571429 </v>
   <v>       0.39285714       0.03571429       0.03571429 </v>
   <v>       0.46428571       0.03571429       0.03571429 </v>
   <v>       0.10714286       0.10714286       0.03571429 </v>
   <v>       0.17857143       0.10714286       0.03571429 </v>
   <v>       0.25000000       0.10714286       0.03571429 </v>
   <v>       0.32142857       0.10714286       0.03571429 </v>
   <v>       0.39285714       0.10714286       0.03571429 </v>
   <v>       0.46428571       0.10714286       0.03571429 </v>
   <v>       0.17857143       0.17857143       0.03571429 </v>
   <v>       0.25000000       0.17857143       0.03571429 </v>
   <v>       0.32142857       0.17857143       0.03571429 </v>
   <v>       0.39285714       0.17857143       0.03571429 </v>
   <v>       0.46428571       0.17857143       0.03571429 </v>
   <v>       0.25000000       0.25000000       0.03571429 </v>
   <v>       0.32142857       0.25000000       0.03571429 </v>
   <v>       0.39285714       0.25000000       0.03571429 </v>
   <v>       0.46428571       0.25000000       0.03571429 </v>
   <v>       0.32142857       0.32142857       0.03571429 </v>
   <v>       0.39285714       0.32142857       0.03571429 </v>
   <v>       0.46428571       0.32142857       0.03571429 </v>
   <v>       0.39285714       0.39285714       0.03571429 </v>
   <v>       0.46428571       0.39285714       0.03571429 </v>
   <v>       0.46428571       0.46428571       0.03571429 </v>
   <v>       0.03571429       0.03571429       0.10714286 </v>
   <v>       0.10714286       0.03571429       0.10714286 </v>
   <v>       0.17857143       0.03571429       0.10714286 </v>
   <v>       0.25000000       0.03571429       0.10714286 </v>
   <v>       0.32142857       0.03571429       0.10714286 </v>
   <v>       0.39285714       0.03571429       0.10714286 </v>
   <v>       0.46428571       0.03571429       0.10714286 </v>
   <v>       0.10714286       0.10714286       0.10714286 </v>
   <v>       0.17857143       0.10714286       0.10714286 </v>
   <v>       0.25000000       0.10714286       0.10714286 </v>
   <v>       0.32142857       0.10714286       0.10714286 </v>
   <v>       0.39285714       0.10714286       0.10714286 </v>
   <v>       0.46428571       0.10714286       0.10714286 </v>
   <v>       0.17857143       0.17857143       0.10714286 </v>
   <v>       0.25000000       0.17857143       0.10714286 </v>
   <v>       0.32142857       0.17857143       0.10714286 </v>
   <v>       0.39285714       0.17857143       0.10714286 </v>
   <v>       0.46428571       0.17857143       0.10714286 </v>
   <v>       0.25000000       0.25000000       0.10714286 </v>
   <v>       0.32142857       0.25000000       0.10714286 </v>
   <v>       0.39285714       0.25000000       0.10714286 </v>
   <v>       0.46428571       0.25000000       0.10714286 </v>
   <v>       0.32142857       0.32142857       0.10714286 </v>
   <v>       0.39285714       0.32142857       0.10714286 </v>
   <v>       0.46428571       0.32142857       0.10714286 </v>
   <v>       0.39285714       0.39285714       0.10714286 </v>
   <v>       0.46428571       0.39285714       0.10714286 </v>
   <v>       0.46428571       0.46428571       0.10714286 </v>
   <v>       0.03571429       0.03571429       0.17857143 </v>
   <v>       0.10714286       0.03571429       0.17857143 </v>
   <v>       0.17857143       0.03571429       0.17857143 </v>
   <v>       0.25000000       0.03571429       0.17857143 </v>
   <v>       0.32142857       0.03571429       0.17857143 </v>
   <v>       0.39285714       0.03571429       0.17857143 </v>
   <v>       0.46428571       0.03571429       0.17857143 </v>
   <v>       0.10714286       0.10714286       0.17857143 </v>
   <v>       0.17857143       0.10714286       0.17857143 </v>
   <v>       0.25000000       0.10714286       0.17857143 </v>
   <v>       0.32142857       0.10714286       0.17857143 </v>
   <v>       0.39285714       0.10714286       0.17857143 </v>
   <v>       0.46428571       0.10714286       0.17857143 </v>
   <v>       0.17857143       0.17857143       0.17857143 </v>
   <v>       0.25000000       0.17857143       0.17857143 </v>
   <v>       0.32142857       0.17857143       0.17857143 </v>
   <v>       0.39285714       0.17857143       0.17857143 </v>
   <v>       0.46428571       0.17857143       0.17857143 </v>
   <v>       0.25000000       0.25000000       0.17857143 </v>
   <v>       0.32142857       0.25000000       0.17857143 </v>
   <v>       0.39285714       0.25000000       0.17857143 </v>
   <v>       0.46428571       0.25000000       0.17857143 </v>
   <v>       0.32142857       0.32142857       0.17857143 </v>
   <v>       0.39285714       0.32142857       0.17857143 </v>
   <v>       0.46428571       0.32142857       0.17857143 </v>
   <v>       0.39285714       0.39285714       0.17857143 </v>
   <v>       0.46428571       0.39285714       0.17857143 </v>
   <v>       0.46428571       0.46428571       0.17857143 </v>
   <v>       0.03571429       0.03571429       0.25000000 </v>
   <v>       0.10714286       0.03571429       0.25000000 </v>
   <v>       0.17857143       0.03571429       0.25000000 </v>
   <v>       0.25000000       0.03571429       0.25000000 </v>
   <v>       0.32142857       0.03571429       0.25000000 </v>
   <v>       0.39285714       0.03571429       0.25000000 </v>
   <v>       0.46428571       0.03571429       0.25000000 </v>
   <v>       0.10714286       0.10714286       0.25000000 </v>
   <v>       0.17857143       0.10714286       0.25000000 </v>
   <v>       0.25000000       0.10714286       0.25000000 </v>
   <v>       0.32142857       0.10714286       0.25000000 </v>
   <v>       0.39285714       0.10714286       0.25000000 </v>
   <v>       0.46428571       0.10714286       0.25000000 </v>
   <v>       0.17857143       0.17857143       0.25000000 </v>
   <v>       0.25000000       0.17857143       0.25000000 </v>
   <v>       0.32142857       0.17857143       0.25000000 </v>
   <v>       0.39285714       0.17857143       0.25000000 </v>
   <v>       0.46428571       0.17857143       0.25000000 </v>
   <v>       0.25000000       0.25000000       0.25000000 </v>
   <v>       0.32142857       0.25000000       0.25000000 </v>
   <v>       0.39285714       0.25000000       0.25000000 </v>
   <v>       0.46428571       0.25000000       0.25000000 </v>
   <v>       0.32142857       0.32142857       0.25000000 </v>
   <v>       0.39285714       0.32142857       0.25000000 </v>
   <v>       0.46428571       0.32142857       0.25000000 </v>
   <v>       0.39285714       0.39285714       0.25000000 </v>
   <v>       0.46428571       0.39285714       0.25000000 </v>
   <v>       0.46428571       0.46428571       0.25000000 </v>
   <v>       0.03571429       0.03571429       0.32142857 </v>
   <v>       0.10714286       0.03571429       0.32142857 </v>
   <v>       0.17857143       0.03571429       0.32142857 </v>
   <v>       0.25000000       0.03571429       0.32142857 </v>
   <v>       0.32142857       0.03571429       0.32142857 </v>
   <v>       0.39285714       0.03571429       0.32142857 </v>
   <v>       0.46428571       0.03571429       0.32142857 </v>
   <v>       0.10714286       0.10714286       0.32142857 </v>
   <v>       0.17857143       0.10714286       0.32142857 </v>
   <v>       0.25000000       0.10714286       0.32142857 </v>
   <v>       0.32142857       0.10714286       0.32142857 </v>
   <v>       0.39285714       0.10714286       0.32142857 </v>
   <v>       0.46428571       0.10714286       0.32142857 </v>
   <v>       0.17857143       0.17857143       0.32142857 </v>
   <v>       0.25000000       0.17857143       0.32142857 </v>
   <v>       0.32142857       0.17857143       0.32142857 </v>
   <v>       0.39285714       0.17857143       0.32142857 </v>
   <v>       0.46428571       0.17857143       0.32142857 </v>
   <v>       0.25000000       0.25000000       0.32142857 </v>
   <v>       0.32142857       0.25000000       0.32142857 </v>
   <v>       0.39285714       0.25000000       0.32142857 </v>
   <v>       0.46428571       0.25000000       0.32142857 </v>
   <v>       0.32142857       0.32142857       0.32142857 </v>
   <v>       0.39285714       0.32142857       0.32142857 </v>
   <v>       0.46428571       0.32142857       0.32142857 </v>
   <v>       0.39285714       0.39285714       0.32142857 </v>
   <v>       0.46428571       0.39285714       0.32142857 </v>
   <v>       0.46428571       0.46428571       0.32142857 </v>
   <v>       0.03571429       0.03571429       0.39285714 </v>
   <v>       0.10714286       0.03571429       0.39285714 </v>
   <v>       0.17857143       0.03571429       0.39285714 </v>
   <v>       0.25000000       0.03571429       0.39285714 </v>
   <v>       0.32142857       0.03571429       0.39285714 </v>
   <v>       0.39285714       0.03571429       0.39285714 </v>
   <v>       0.46428571       0.03571429       0.39285714 </v>
   <v>       0.10714286       0.10714286       0.39285714 </v>
   <v>       0.17857143       0.10714286       0.39285714 </v>
   <v>       0.25000000       0.10714286       0.39285714 </v>
   <v>       0.32142857       0.10714286       0.39285714 </v>
   <v>       0.39285714       0.10714286       0.39285714 </v>
   <v>       0.46428571       0.10714286       0.39285714 </v>
   <v>       0.17857143       0.17857143       0.39285714 </v>
   <v>       0.25000000       0.17857143       0.39285714 </v>
   <v>       0.32142857       0.17857143       0.39285714 </v>
   <v>       0.39285714       0.17857143       0.39285714 </v>
   <v>       0.46428571       0.17857143       0.39285714 </v>
   <v>       0.25000000       0.25000000       0.39285714 </v>
   <v>       0.32142857       0.25000000       0.39285714 </v>
   <v>       0.39285714       0.25000000       0.39285714 </v>
   <v>       0.46428571       0.25000000       0.39285714 </v>
   <v>       0.32142857       0.32142857       0.39285714 </v>
   <v>       0.39285714       0.32142857       0.39285714 </v>
   <v>       0.46428571       0.32142857       0.39285714 </v>
   <v>       0.39285714       0.39285714       0.39285714 </v>
   <v>       0.46428571       0.39285714       0.39285714 </v>
   <v>       0.46428571       0.46428571       0.39285714 </v>
   <v>       0.03571429       0.03571429       0.46428571 </v>
   <v>       0.10714286       0.03571429       0.46428571 </v>
   <v>       0.17857143       0.03571429       0.46428571 </v>
   <v>       0.25000000       0.03571429       0.46428571 </v>
   <v>       0.32142857       0.03571429       0.46428571 </v>
   <v>       0.39285714       0.03571429       0.46428571 </v>
   <v>       0.46428571       0.03571429       0.46428571 </v>
   <v>       0.10714286       0.10714286       0.46428571 </v>
   <v>       0.17857143       0.10714286       0.46428571 </v>
   <v>       0.25000000       0.10714286       0.46428571 </v>
   <v>       0.32142857       0.10714286       0.46428571 </v>
   <v>       0.39285714       0.10714286       0.46428571 </v>
   <v>       0.46428571       0.10714286       0.46428571 </v>
   <v>       0.17857143       0.17857143       0.46428571 </v>
   <v>       0.25000000       0.17857143       0.46428571 </v>
   <v>       0.32142857       0.17857143       0.46428571 </v>
   <v>       0.39285714       0.17857143       0.46428571 </v>
   <v>       0.46428571       0.17857143       0.46428571 </v>
   <v>       0.25000000       0.25000000       0.46428571 </v>
   <v>       0.32142857       0.25000000       0.46428571 </v>
   <v>       0.39285714       0.25000000       0.46428571 </v>
   <v>       0.46428571       0.25000000       0.46428571 </v>
   <v>       0.32142857       0.32142857       0.46428571 </v>
   <v>       0.39285714       0.32142857       0.46428571 </v>
   <v>       0.46428571       0.32142857       0.46428571 </v>
   <v>       0.39285714       0.39285714       0.46428571 </v>
   <v>       0.46428571       0.39285714       0.46428571 </v>
   <v>       0.46428571       0.46428571       0.46428571 </v>
  </varray>
  <varray name="weights" >
   <v>       0.00291545 </v>
   <v>       0.00583090 </v>
   <v>       0.00583090 </v>
   <v>       0.00583090 </v>
   <v>       0.00583090 </v>
   <v>       0.00583090 </v>
   <v>       0.00583090 </v>
   <v>       0.00291545 </v>
   <v>       0.00583090 </v>
   <v>       0.00583090 </v>
   <v>       0.00583090 </v>
   <v>       0.00583090 </v>
   <v>       0.00583090 </v>
   <v>       0.00291545 </v>
   <v>       0.00583090 </v>
   <v>       0.00583090 </v>
   <v>       0.00583090 </v>
   <v>       0.00583090 </v>
   <v>       0.00291545 </v>
   <v>       0.00583090 </v>
   <v>       0.00583090 </v>
   <v>       0.00583090 </v>
   <v>       0.00291545 </v>
   <v>       0.00583090 </v>
   <v>       0.00583090 </v>
   <v>       0.00291545 </v>
   <v>       0.00583090 </v>
   <v>       0.00291545 </v>
   <v>       0.00291545 </v>
   <v>       0.00583090 </v>
   <v>       0.00583090 </v>
   <v>       0.00583090 </v>
   <v>       0.00583090 </v>
   <v>       0.00583090 </v>
   <v>       0.00583090 </v>
   <v>       0.00291545 </v>
   <v>       0.00583090 </v>
   <v>       0.00583090 </v>
   <v>       0.00583090 </v>
   <v>       0.00583090 </v>
   <v>       0.00583090 </v>
   <v>       0.00291545 </v>
   <v>       0.00583090 </v>
   <v>       0.00583090 </v>
   <v>       0.00583090 </v>
   <v>       0.00583090 </v>
   <v>       0.00291545 </v>
   <v>       0.00583090 </v>
   <v>       0.00583090 </v>
   <v>       0.00583090 </v>
   <v>       0.00291545 </v>
   <v>       0.00583090 </v>
   <v>       0.00583090 </v>
   <v>       0.00291545 </v>
   <v>       0.00583090 </v>
   <v>       0.00291545 </v>
   <v>       0.00291545 </v>
   <v>       0.00583090 </v>
   <v>       0.00583090 </v>
   <v>       0.00583090 </v>
   <v>       0.00583090 </v>
   <v>       0.00583090 </v>
   <v>       0.00583090 </v>
   <v>       0.00291545 </v>
   <v>       0.00583090 </v>
   <v>       0.00583090 </v>
   <v>       0.00583090 </v>
   <v>       0.00583090 </v>
   <v>       0.00583090 </v>
   <v>       0.00291545 </v>
   <v>       0.00583090 </v>
   <v>       0.00583090 </v>
   <v>       0.00583090 </v>
   <v>       0.00583090 </v>
   <v>       0.00291545 </v>
   <v>       0.00583090 </v>
   <v>       0.00583090 </v>
   <v>       0.00583090 </v>
   <v>       0.00291545 </v>
   <v>       0.00583090 </v>
   <v>       0.00583090 </v>
   <v>       0.00291545 </v>
   <v>       0.00583090 </v>
   <v>       0.00291545 </v>
   <v>       0.00291545 </v>
   <v>       0.00583090 </v>
   <v>       0.00583090 </v>
   <v>       0.00583090 </v>
   <v>       0.00583090 </v>
   <v>       0.00583090 </v>
   <v>       0.00583090 </v>
   <v>       0.00291545 </v>
   <v>       0.00583090 </v>
   <v>       0.00583090 </v>
   <v>       0.00583090 </v>
   <v>       0.00583090 </v>
   <v>       0.00583090 </v>
   <v>       0.00291545 </v>
   <v>       0.00583090 </v>
   <v>       0.00583090 </v>
   <v>       0.00583090 </v>
   <v>       0.00583090 </v>
   <v>       0.00291545 </v>
   <v>       0.00583090 </v>
   <v>       0.00583090 </v>
   <v>       0.00583090 </v>
   <v>       0.00291545 </v>
   <v>       0.00583090 </v>
   <v>       0.00583090 </v>
   <v>       0.00291545 </v>
   <v>       0.00583090 </v>
   <v>       0.00291545 </v>
   <v>       0.00291545 </v>
   <v>       0.00583090 </v>
   <v>       0.00583090 </v>
   <v>       0.00583090 </v>
   <v>       0.00583090 </v>
   <v>       0.00583090 </v>
   <v>       0.00583090 </v>
   <v>       0.00291545 </v>
   <v>       0.00583090 </v>
   <v>       0.00583090 </v>
   <v>       0.00583090 </v>
   <v>       0.00583090 </v>
   <v>       0.00583090 </v>
   <v>       0.00291545 </v>
   <v>       0.00583090 </v>
   <v>       0.00583090 </v>
   <v>       0.00583090 </v>
   <v>       0.00583090 </v>
   <v>       0.00291545 </v>
   <v>       0.00583090 </v>
   <v>       0.00583090 </v>
   <v>       0.00583090 </v>
   <v>       0.00291545 </v>
   <v>       0.00583090 </v>
   <v>       0.00583090 </v>
   <v>       0.00291545 </v>
   <v>       0.00583090 </v>
   <v>       0.00291545 </v>
   <v>       0.00291545 </v>
   <v>       0.00583090 </v>
   <v>       0.00583090 </v>
   <v>       0.00583090 </v>
   <v>       0.00583090 </v>
   <v>       0.00583090 </v>
   <v>       0.00583090 </v>
   <v>       0.00291545 </v>
   <v>       0.00583090 </v>
   <v>       0.00583090 </v>
   <v>       0.00583090 </v>
   <v>       0.00583090 </v>
   <v>       0.00583090 </v>
   <v>       0.00291545 </v>
   <v>       0.00583090 </v>
   <v>       0.00583090 </v>
   <v>       0.00583090 </v>
   <v>       0.00583090 </v>
   <v>       0.00291545 </v>
   <v>       0.00583090 </v>
   <v>       0.00583090 </v>
   <v>       0.00583090 </v>
   <v>       0.00291545 </v>
   <v>       0.00583090 </v>
   <v>       0.00583090 </v>
   <v>       0.00291545 </v>
   <v>       0.00583090 </v>
   <v>       0.00291545 </v>
   <v>       0.00291545 </v>
   <v>       0.00583090 </v>
   <v>       0.00583090 </v>
   <v>       0.00583090 </v>
   <v>       0.00583090 </v>
   <v>       0.00583090 </v>
   <v>       0.00583090 </v>
   <v>       0.00291545 </v>
   <v>       0.00583090 </v>
   <v>       0.00583090 </v>
   <v>       0.00583090 </v>
   <v>       0.00583090 </v>
   <v>       0.00583090 </v>
   <v>       0.00291545 </v>
   <v>       0.00583090 </v>
   <v>       0.00583090 </v>
   <v>       0.00583090 </v>
   <v>       0.00583090 </v>
   <v>       0.00291545 </v>
   <v>       0.00583090 </v>
   <v>       0.00583090 </v>
   <v>       0.00583090 </v>
   <v>       0.00291545 </v>
   <v>       0.00583090 </v>
   <v>       0.00583090 </v>
   <v>       0.00291545 </v>
   <v>       0.00583090 </v>
   <v>       0.00291545 </v>
  </varray>
 </kpoints>
 <parameters>
  <separator name="general" >
   <i type="string" name="SYSTEM">unknown system</i>
   <i type="logical" name="LCOMPAT"> F  </i>
  </separator>
  <separator name="electronic" >
   <i type="string" name="PREC">high</i>
   <i name="ENMAX">    875.00000000</i>
   <i name="ENAUG">    946.76800000</i>
   <i name="EDIFF">      0.00000001</i>
   <i type="int" name="IALGO">    38</i>
   <i type="int" name="IWAVPR">    11</i>
   <i type="int" name="NBANDS">    24</i>
   <i name="NELECT">     32.00000000</i>
   <i type="int" name="TURBO">     0</i>
   <i type="int" name="IRESTART">     0</i>
   <i type="int" name="NREBOOT">     0</i>
   <i type="int" name="NMIN">     0</i>
   <i name="EREF">      0.00000000</i>
   <separator name="electronic smearing" >
    <i type="int" name="ISMEAR">     0</i>
    <i name="SIGMA">      0.05000000</i>
    <i name="KSPACING">      0.50000000</i>
    <i type="logical" name="KGAMMA"> T  </i>
   </separator>
   <separator name="electronic projectors" >
    <i type="logical" name="LREAL"> F  </i>
    <v name="ROPT">      0.00000000</v>
    <i type="int" name="LMAXPAW">  -100</i>
    <i type="int" name="LMAXMIX">     2</i>
    <i type="logical" name="NLSPLINE"> F  </i>
   </separator>
   <separator name="electronic startup" >
    <i type="int" name="ISTART">     0</i>
    <i type="int" name="ICHARG">     2</i>
    <i type="int" name="INIWAV">     1</i>
   </separator>
   <separator name="electronic spin" >
    <i type="int" name="ISPIN">     1</i>
    <i type="logical" name="LNONCOLLINEAR"> F  </i>
    <v name="MAGMOM">      1.00000000      1.00000000      1.00000000      1.00000000      1.00000000      1.00000000      1.00000000      1.00000000</v>
    <i name="NUPDOWN">     -1.00000000</i>
    <i type="logical" name="LSORBIT"> F  </i>
    <v name="SAXIS">      0.00000000      0.00000000      1.00000000</v>
    <i type="logical" name="LSPIRAL"> F  </i>
    <v name="QSPIRAL">      0.00000000      0.00000000      0.00000000</v>
    <i type="logical" name="LZEROZ"> F  </i>
   </separator>
   <separator name="electronic exchange-correlation" >
    <i type="logical" name="LASPH"> F  </i>
    <i type="logical" name="LMETAGGA"> F  </i>
   </separator>
   <separator name="electronic convergence" >
    <i type="int" name="NELM">    40</i>
    <i type="int" name="NELMDL">    -5</i>
    <i type="int" name="NELMIN">     4</i>
    <i name="ENINI">    875.00000000</i>
    <separator name="electronic convergence detail" >
     <i type="logical" name="LDIAG"> T  </i>
     <i type="logical" name="LSUBROT"> F  </i>
     <i name="WEIMIN">      0.00100000</i>
     <i name="EBREAK">      0.00000000</i>
     <i name="DEPER">      0.30000000</i>
     <i type="int" name="NRMM">     4</i>
     <i name="TIME">      0.40000000</i>
    </separator>
   </separator>
   <separator name="electronic mixer" >
    <i name="AMIX">      0.40000000</i>
    <i name="BMIX">      1.00000000</i>
    <i name="AMIN">      0.10000000</i>
    <i name="AMIX_MAG">      1.60000000</i>
    <i name="BMIX_MAG">      1.00000000</i>
    <separator name="electronic mixer details" >
     <i type="int" name="IMIX">     4</i>
     <i type="logical" name="MIXFIRST"> F  </i>
     <i type="int" name="MAXMIX">   -45</i>
     <i name="WC">    100.00000000</i>
     <i type="int" name="INIMIX">     1</i>
     <i type="int" name="MIXPRE">     1</i>
     <i type="int" name="MREMOVE">     5</i>
    </separator>
   </separator>
   <separator name="electronic dipolcorrection" >
    <i type="logical" name="LDIPOL"> F  </i>
    <i type="logical" name="LMONO"> F  </i>
    <i type="int" name="IDIPOL">     0</i>
    <i name="EPSILON">      1.00000000</i>
    <v name="DIPOL">   -100.00000000   -100.00000000   -100.00000000</v>
    <i name="EFIELD">      0.00000000</i>
   </separator>
  </separator>
  <separator name="grids" >
   <i type="int" name="NGX">    36</i>
   <i type="int" name="NGY">    36</i>
   <i type="int" name="NGZ">    36</i>
   <i type="int" name="NGXF">    48</i>
   <i type="int" name="NGYF">    48</i>
   <i type="int" name="NGZF">    48</i>
   <i type="logical" name="ADDGRID"> T  </i>
  </separator>
  <separator name="ionic" >
   <i type="int" name="NSW">   100</i>
   <i type="int" name="IBRION">     2</i>
   <i type="int" name="MDALGO">     0</i>
   <i type="int" name="ISIF">     2</i>
   <i name="PSTRESS">      0.00000000</i>
   <i name="EDIFFG">     -0.01000000</i>
   <i type="int" name="NFREE">     1</i>
   <i name="POTIM">      0.50000000</i>
   <i name="SMASS">     -3.00000000</i>
   <i name="SCALEE">      1.00000000</i>
  </separator>
  <separator name="ionic md" >
   <i name="TEBEG">      0.00010000</i>
   <i name="TEEND">      0.00010000</i>
   <i type="int" name="NBLOCK">     1</i>
   <i type="int" name="KBLOCK">   100</i>
   <i type="int" name="NPACO">   256</i>
   <i name="APACO">     16.00000000</i>
  </separator>
  <separator name="symmetry" >
   <i type="int" name="ISYM">     2</i>
   <i name="SYMPREC">      0.00001000</i>
  </separator>
  <separator name="dos" >
   <i type="int" name="LORBIT">     0</i>
   <v name="RWIGS">     -1.00000000</v>
   <i type="int" name="NEDOS">   301</i>
   <i name="EMIN">     10.00000000</i>
   <i name="EMAX">    -10.00000000</i>
   <i name="EFERMI">      0.00000000</i>
  </separator>
  <separator name="writing" >
   <i type="int" name="NWRITE">     2</i>
   <i type="logical" name="LWAVE"> F  </i>
   <i type="logical" name="LDOWNSAMPLE"> F  </i>
   <i type="logical" name="LCHARG"> F  </i>
   <i type="logical" name="LPARD"> F  </i>
   <i type="logical" name="LVTOT"> F  </i>
   <i type="logical" name="LVHAR"> F  </i>
   <i type="logical" name="LELF"> F  </i>
   <i type="logical" name="LOPTICS"> F  </i>
   <v name="STM">      0.00000000      0.00000000      0.00000000      0.00000000      0.00000000      0.00000000      0.00000000</v>
  </separator>
  <separator name="performance" >
   <i type="int" name="NPAR">    24</i>
   <i type="int" name="NSIM">     4</i>
   <i type="int" name="NBLK">    -1</i>
   <i type="logical" name="LPLANE"> T  </i>
   <i type="logical" name="LSCALAPACK"> T  </i>
   <i type="logical" name="LSCAAWARE"> F  </i>
   <i type="logical" name="LSCALU"> F  </i>
   <i type="logical" name="LASYNC"> F  </i>
   <i type="logical" name="LORBITALREAL"> F  </i>
  </separator>
  <separator name="miscellaneous" >
   <i type="int" name="IDIOT">     3</i>
   <i type="int" name="ISPECIAL">     0</i>
   <i type="logical" name="LMUSIC"> F  </i>
   <v name="POMASS">     12.01100000</v>
   <v name="DARWINR">      0.00000000</v>
   <v name="DARWINV">      1.00000000</v>
   <i type="logical" name="LCORR"> T  </i>
  </separator>
  <i type="logical" name="GGA_COMPAT"> T  </i>
  <i type="logical" name="LBERRY"> F  </i>
  <i type="int" name="ICORELEVEL">     0</i>
  <i type="logical" name="LDAU"> F  </i>
  <i type="int" name="I_CONSTRAINED_M">     0</i>
  <separator name="electronic exchange-correlation" >
   <i type="string" name="GGA">--</i>
   <i type="int" name="VOSKOWN">     0</i>
   <i type="logical" name="LHFCALC"> F  </i>
   <i type="string" name="PRECFOCK"></i>
   <i type="logical" name="LSYMGRAD"> F  </i>
   <i type="logical" name="LHFONE"> F  </i>
   <i type="logical" name="LRHFCALC"> F  </i>
   <i type="logical" name="LTHOMAS"> F  </i>
   <i type="logical" name="LMODELHF"> F  </i>
   <i name="ENCUT4O">     -1.00000000</i>
   <i type="int" name="EXXOEP">     0</i>
   <i type="int" name="FOURORBIT">     0</i>
   <i name="AEXX">      0.00000000</i>
   <i name="HFALPHA">      0.00000000</i>
   <i name="MCALPHA">      0.00000000</i>
   <i name="ALDAX">      1.00000000</i>
   <i name="AGGAX">      1.00000000</i>
   <i name="ALDAC">      1.00000000</i>
   <i name="AGGAC">      1.00000000</i>
   <i type="int" name="NKREDX">     1</i>
   <i type="int" name="NKREDY">     1</i>
   <i type="int" name="NKREDZ">     1</i>
   <i type="logical" name="SHIFTRED"> F  </i>
   <i type="logical" name="ODDONLY"> F  </i>
   <i type="logical" name="EVENONLY"> F  </i>
   <i type="int" name="LMAXFOCK">     0</i>
   <i type="int" name="NMAXFOCKAE">     0</i>
   <i type="logical" name="LFOCKAEDFT"> F  </i>
   <i name="HFSCREEN">      0.00000000</i>
   <i name="HFSCREENC">      0.00000000</i>
   <i type="int" name="NBANDSGWLOW">     0</i>
  </separator>
  <separator name="vdW DFT" >
   <i type="logical" name="LUSE_VDW"> F  </i>
   <i name="Zab_VDW">     -0.84910000</i>
   <i name="PARAM1">      0.12340000</i>
   <i name="PARAM2">      1.00000000</i>
   <i name="PARAM3">      0.00000000</i>
  </separator>
  <separator name="model GW" >
   <i type="int" name="MODEL_GW">     0</i>
   <i name="MODEL_EPS0">      3.44565200</i>
   <i name="MODEL_ALPHA">      1.00000000</i>
  </separator>
  <separator name="linear response parameters" >
   <i type="logical" name="LEPSILON"> F  </i>
   <i type="logical" name="LRPA"> F  </i>
   <i type="logical" name="LNABLA"> F  </i>
   <i type="logical" name="LVEL"> F  </i>
   <i type="int" name="KINTER">     0</i>
   <i name="CSHIFT">      0.10000000</i>
   <i name="OMEGAMAX">     -1.00000000</i>
   <i name="DEG_THRESHOLD">      0.00200000</i>
   <i name="RTIME">     -0.10000000</i>
   <i name="WPLASMAI">      0.00000000</i>
   <v name="DFIELD">      0.00000000      0.00000000      0.00000000</v>
   <v name="WPLASMA">      0.00000000      0.00000000      0.00000000      0.00000000      0.00000000      0.00000000      0.00000000      0.00000000      0.00000000</v>
  </separator>
  <separator name="orbital magnetization" >
   <i type="logical" name="NUCIND"> F  </i>
   <v name="MAGPOS">      0.00000000      0.00000000      0.00000000</v>
   <i type="logical" name="LNICSALL"> T  </i>
   <i type="logical" name="ORBITALMAG"> F  </i>
   <i type="logical" name="LMAGBLOCH"> F  </i>
   <i type="logical" name="LCHIMAG"> F  </i>
   <i type="logical" name="LGAUGE"> T  </i>
   <i type="int" name="MAGATOM">     0</i>
   <v name="MAGDIPOL">      0.00000000      0.00000000      0.00000000</v>
   <v name="AVECCONST">      0.00000000      0.00000000      0.00000000</v>
  </separator>
  <separator name="response functions" >
   <i type="logical" name="LADDER"> F  </i>
   <i type="logical" name="LRPAFORCE"> F  </i>
   <i type="logical" name="LFXC"> F  </i>
   <i type="logical" name="LHARTREE"> T  </i>
   <i type="int" name="IBSE">     0</i>
   <v type="int" name="KPOINT">    -1     0     0     0</v>
   <i type="logical" name="LTCTE"> F  </i>
   <i type="logical" name="LTETE"> F  </i>
   <i type="logical" name="LTRIPLET"> F  </i>
   <i type="logical" name="LFXCEPS"> F  </i>
   <i type="logical" name="LFXHEG"> F  </i>
   <i type="int" name="NATURALO">     2</i>
   <i type="logical" name="L2ORDER"> F  </i>
   <i type="logical" name="LMP2LT"> F  </i>
   <i type="logical" name="LUSEW"> F  </i>
   <i name="ENCUTGW">     -2.00000000</i>
   <i name="ENCUTGWSOFT">     -2.00000000</i>
   <i name="ENCUTLF">     -1.00000000</i>
   <i type="int" name="LMAXMP2">    -1</i>
   <i name="SCISSOR">      0.00000000</i>
   <i type="int" name="NOMEGA">     0</i>
   <i type="int" name="NOMEGAR">     0</i>
   <i type="int" name="NBANDSGW">    -1</i>
   <i type="int" name="NBANDSO">    -1</i>
   <i type="int" name="NBANDSV">    -1</i>
   <i type="int" name="NELM">    40</i>
   <i type="int" name="NELMHF">     1</i>
   <i type="int" name="DIM">     3</i>
   <i type="int" name="ANTIRES">     0</i>
   <i name="OMEGAMAX">    -30.00000000</i>
   <i name="OMEGAMIN">    -30.00000000</i>
   <i name="OMEGATL">   -200.00000000</i>
   <i type="int" name="OMEGAGRID">   140</i>
   <i name="CSHIFT">     -0.10000000</i>
   <i type="logical" name="SELFENERGY"> F  </i>
   <i type="logical" name="LSPECTRAL"> F  </i>
   <i type="logical" name="LSPECTRALGW"> F  </i>
   <i type="logical" name="LSINGLES"> F  </i>
   <i type="logical" name="LFERMIGW"> F  </i>
   <i type="logical" name="ODDONLYGW"> F  </i>
   <i type="logical" name="EVENONLYGW"> F  </i>
   <i type="int" name="NKREDLFX">     1</i>
   <i type="int" name="NKREDLFY">     1</i>
   <i type="int" name="NKREDLFZ">     1</i>
   <i type="int" name="MAXMEM">  2800</i>
   <i type="int" name="TELESCOPE">     0</i>
   <i type="int" name="TAUPAR">     1</i>
   <i type="int" name="OMEGAPAR">    -1</i>
   <i name="LAMBDA">      1.00000000</i>
  </separator>
  <separator name="External order field" >
   <i name="OFIELD_KAPPA">      0.00000000</i>
   <v name="OFIELD_K">      0.00000000      0.00000000      0.00000000</v>
   <i name="OFIELD_Q6_NEAR">      0.00000000</i>
   <i name="OFIELD_Q6_FAR">      0.00000000</i>
   <i name="OFIELD_A">      0.00000000</i>
  </separator>
 </parameters>
 <atominfo>
  <atoms>       8 </atoms>
  <types>       1 </types>
  <array name="atoms" >
   <dimension dim="1">ion</dimension>
   <field type="string">element</field>
   <field type="int">atomtype</field>
   <set>
    <rc><c>C </c><c>   1</c></rc>
    <rc><c>C </c><c>   1</c></rc>
    <rc><c>C </c><c>   1</c></rc>
    <rc><c>C </c><c>   1</c></rc>
    <rc><c>C </c><c>   1</c></rc>
    <rc><c>C </c><c>   1</c></rc>
    <rc><c>C </c><c>   1</c></rc>
    <rc><c>C </c><c>   1</c></rc>
   </set>
  </array>
  <array name="atomtypes" >
   <dimension dim="1">type</dimension>
   <field type="int">atomspertype</field>
   <field type="string">element</field>
   <field>mass</field>
   <field>valence</field>
   <field type="string">pseudopotential</field>
   <set>
    <rc><c>   8</c><c>C </c><c>     12.01100000</c><c>      4.00000000</c><c>  PAW_PBE C_h 06Feb2004                 </c></rc>
   </set>
  </array>
 </atominfo>
 <structure name="initialpos" >
  <crystal>
   <varray name="basis" >
    <v>       3.58551709       0.00000000       0.00000000 </v>
    <v>       0.00000000       3.58551709       0.00000000 </v>
    <v>       0.00000000       0.00000000       3.57360507 </v>
   </varray>
   <i name="volume">     45.94202660 </i>
   <varray name="rec_basis" >
    <v>       0.27889980       0.00000000       0.00000000 </v>
    <v>       0.00000000       0.27889980       0.00000000 </v>
    <v>       0.00000000       0.00000000       0.27982947 </v>
   </varray>
  </crystal>
  <varray name="positions" >
   <v>       0.25000000       0.25000000       0.25000000 </v>
   <v>       0.00000000       0.00000000       0.00000000 </v>
   <v>       0.25000000       0.75000000       0.75000000 </v>
   <v>       0.00000000       0.50000000       0.50000000 </v>
   <v>       0.75000000       0.25000000       0.75000000 </v>
   <v>       0.50000000       0.00000000       0.50000000 </v>
   <v>       0.75000000       0.75000000       0.25000000 </v>
   <v>       0.50000000       0.50000000       0.00000000 </v>
  </varray>
 </structure>
 <calculation>
  <scstep>
   <time name="dav">    3.11    3.24</time>
   <time name="total">    3.16    3.33</time>
   <energy>
    <i name="alphaZ">     76.36858614 </i>
    <i name="ewald">  -1386.10920354 </i>
    <i name="hartreedc">    -71.06532364 </i>
    <i name="XCdc">     61.87654099 </i>
    <i name="pawpsdc">    914.77613359 </i>
    <i name="pawaedc">   -872.73161751 </i>
    <i name="eentropy">     -0.00082643 </i>
    <i name="bandstr">    200.49335172 </i>
    <i name="atom">   1177.21277265 </i>
    <i name="e_fr_energy">    100.82041398 </i>
    <i name="e_wo_entrp">    100.82124041 </i>
    <i name="e_0_energy">    100.82082720 </i>
   </energy>
  </scstep>
  <scstep>
   <time name="dav">    5.22    5.26</time>
   <time name="total">    5.23    5.26</time>
   <energy>
    <i name="e_fr_energy">    -72.38235629 </i>
    <i name="e_wo_entrp">    -72.38235629 </i>
    <i name="e_0_energy">    -72.38235629 </i>
   </energy>
  </scstep>
  <scstep>
   <time name="dav">    3.73    3.75</time>
   <time name="total">    3.73    3.75</time>
   <energy>
    <i name="e_fr_energy">    -75.20915604 </i>
    <i name="e_wo_entrp">    -75.20915604 </i>
    <i name="e_0_energy">    -75.20915604 </i>
   </energy>
  </scstep>
  <scstep>
   <time name="dav">    6.68    6.69</time>
   <time name="total">    6.68    6.69</time>
   <energy>
    <i name="e_fr_energy">    -75.22871644 </i>
    <i name="e_wo_entrp">    -75.22871644 </i>
    <i name="e_0_energy">    -75.22871644 </i>
   </energy>
  </scstep>
  <scstep>
   <time name="dav">    3.59    3.61</time>
   <time name="total">    3.75    3.80</time>
   <energy>
    <i name="e_fr_energy">    -75.22871967 </i>
    <i name="e_wo_entrp">    -75.22871967 </i>
    <i name="e_0_energy">    -75.22871967 </i>
   </energy>
  </scstep>
  <scstep>
   <time name="dav">    3.82    3.82</time>
   <time name="total">    3.98    4.02</time>
   <energy>
    <i name="e_fr_energy">    -73.44028681 </i>
    <i name="e_wo_entrp">    -73.44028681 </i>
    <i name="e_0_energy">    -73.44028681 </i>
   </energy>
  </scstep>
  <scstep>
   <time name="dav">    4.81    4.82</time>
   <time name="total">    4.97    5.00</time>
   <energy>
    <i name="e_fr_energy">    -72.84151190 </i>
    <i name="e_wo_entrp">    -72.84151190 </i>
    <i name="e_0_energy">    -72.84151190 </i>
   </energy>
  </scstep>
  <scstep>
   <time name="dav">    5.52    5.53</time>
   <time name="total">    5.68    5.70</time>
   <energy>
    <i name="e_fr_energy">    -72.83996193 </i>
    <i name="e_wo_entrp">    -72.83996193 </i>
    <i name="e_0_energy">    -72.83996193 </i>
   </energy>
  </scstep>
  <scstep>
   <time name="dav">    5.01    5.02</time>
   <time name="total">    5.18    5.20</time>
   <energy>
    <i name="e_fr_energy">    -72.84014432 </i>
    <i name="e_wo_entrp">    -72.84014432 </i>
    <i name="e_0_energy">    -72.84014432 </i>
   </energy>
  </scstep>
  <scstep>
   <time name="dav">    5.22    5.23</time>
   <time name="total">    5.38    5.40</time>
   <energy>
    <i name="e_fr_energy">    -72.84026728 </i>
    <i name="e_wo_entrp">    -72.84026728 </i>
    <i name="e_0_energy">    -72.84026728 </i>
   </energy>
  </scstep>
  <scstep>
   <time name="dav">    5.43    5.45</time>
   <time name="total">    5.59    5.63</time>
   <energy>
    <i name="e_fr_energy">    -72.84026844 </i>
    <i name="e_wo_entrp">    -72.84026844 </i>
    <i name="e_0_energy">    -72.84026844 </i>
   </energy>
  </scstep>
  <scstep>
   <time name="dav">    5.34    5.45</time>
   <time name="total">    5.50    5.63</time>
   <energy>
    <i name="e_fr_energy">    -72.84026879 </i>
    <i name="e_wo_entrp">    -72.84026879 </i>
    <i name="e_0_energy">    -72.84026879 </i>
   </energy>
  </scstep>
  <scstep>
   <time name="dav">    5.43    5.44</time>
   <time name="total">    5.44    5.46</time>
   <energy>
    <i name="alphaZ">     76.36858614 </i>
    <i name="ewald">  -1386.10920354 </i>
    <i name="hartreedc">   -105.95497670 </i>
    <i name="XCdc">     64.88080022 </i>
    <i name="pawpsdc">  14211.23525573 </i>
    <i name="pawaedc"> -14169.69164722 </i>
    <i name="eentropy">     -0.00000000 </i>
    <i name="bandstr">     59.21814391 </i>
    <i name="atom">   1177.21277265 </i>
    <i name="e_fr_energy">    -72.84026880 </i>
    <i name="e_wo_entrp">    -72.84026880 </i>
    <i name="e_0_energy">    -72.84026880 </i>
   </energy>
  </scstep>
  <structure>
   <crystal>
    <varray name="basis" >
     <v>       3.58551709       0.00000000       0.00000000 </v>
     <v>       0.00000000       3.58551709       0.00000000 </v>
     <v>       0.00000000       0.00000000       3.57360507 </v>
    </varray>
    <i name="volume">     45.94202660 </i>
    <varray name="rec_basis" >
     <v>       0.27889980       0.00000000       0.00000000 </v>
     <v>       0.00000000       0.27889980       0.00000000 </v>
     <v>       0.00000000       0.00000000       0.27982947 </v>
    </varray>
   </crystal>
   <varray name="positions" >
    <v>       0.25000000       0.25000000       0.25000000 </v>
    <v>       0.00000000       0.00000000       0.00000000 </v>
    <v>       0.25000000       0.75000000       0.75000000 </v>
    <v>       0.00000000       0.50000000       0.50000000 </v>
    <v>       0.75000000       0.25000000       0.75000000 </v>
    <v>       0.50000000       0.00000000       0.50000000 </v>
    <v>       0.75000000       0.75000000       0.25000000 </v>
    <v>       0.50000000       0.50000000       0.00000000 </v>
   </varray>
  </structure>
  <varray name="forces" >
   <v>      -0.00000000       0.00000000       0.00000000 </v>
   <v>       0.00000000      -0.00000000       0.00000000 </v>
   <v>      -0.00000000      -0.00000000       0.00000000 </v>
   <v>      -0.00000000       0.00000000       0.00000000 </v>
   <v>       0.00000000      -0.00000000       0.00000000 </v>
   <v>       0.00000000       0.00000000      -0.00000000 </v>
   <v>       0.00000000      -0.00000000       0.00000000 </v>
   <v>      -0.00000000      -0.00000000      -0.00000000 </v>
  </varray>
  <varray name="stress" >
   <v>     -52.09728611       0.00000000       0.00000000 </v>
   <v>       0.00000000     -52.09728611       0.00000000 </v>
   <v>       0.00000000       0.00000000     -21.62706563 </v>
  </varray>
  <energy>
   <i name="e_fr_energy">    -72.84026880 </i>
   <i name="e_wo_entrp">    -72.84026880 </i>
   <i name="e_0_energy">     -0.00000000 </i>
  </energy>
  <time name="totalsc">   67.86   68.56</time>
  <eigenvalues>
   <array>
    <dimension dim="1">band</dimension>
    <dimension dim="2">kpoint</dimension>
    <dimension dim="3">spin</dimension>
    <field>eigene</field>
    <field>occ</field>
    <set>
     <set comment="spin 1">
      <set comment="kpoint 1">
       <r>  -10.5255    1.0000 </r>
       <r>   -2.4890    1.0000 </r>
       <r>   -2.4890    1.0000 </r>
       <r>   -2.4409    1.0000 </r>
       <r>   -1.3615    1.0000 </r>
       <r>   -1.3615    1.0000 </r>
       <r>   -1.3085    1.0000 </r>
       <r>    4.3825    1.0000 </r>
       <r>    4.4299    1.0000 </r>
       <r>    4.4299    1.0000 </r>
       <r>    4.5238    1.0000 </r>
       <r>    4.5724    1.0000 </r>
       <r>    4.5724    1.0000 </r>
       <r>   10.4922    1.0000 </r>
       <r>   10.6670    1.0000 </r>
       <r>   10.7027    1.0000 </r>
       <r>   15.3524    0.0000 </r>
       <r>   15.4308    0.0000 </r>
       <r>   15.4308    0.0000 </r>
       <r>   15.7358    0.0000 </r>
       <r>   15.8118    0.0000 </r>
       <r>   15.8118    0.0000 </r>
       <r>   16.3784    0.0000 </r>
       <r>   16.4100    0.0000 </r>
      </set>
      <set comment="kpoint 2">
       <r>  -10.4324    1.0000 </r>
       <r>   -3.5678    1.0000 </r>
       <r>   -2.4251    1.0000 </r>
       <r>   -2.3778    1.0000 </r>
       <r>   -1.3103    1.0000 </r>
       <r>   -1.2587    1.0000 </r>
       <r>   -0.1976    1.0000 </r>
       <r>    4.0625    1.0000 </r>
       <r>    4.1080    1.0000 </r>
       <r>    4.4608    1.0000 </r>
       <r>    4.5096    1.0000 </r>
       <r>    4.5237    1.0000 </r>
       <r>    4.6630    1.0000 </r>
       <r>   10.0445    1.0000 </r>
       <r>   10.3342    1.0000 </r>
       <r>   10.5597    1.0000 </r>
       <r>   15.1970    0.0000 </r>
       <r>   15.6374    0.0000 </r>
       <r>   15.7142    0.0000 </r>
       <r>   16.1932    0.0000 </r>
       <r>   16.2620    0.0000 </r>
       <r>   16.2700    0.0000 </r>
       <r>   16.3411    0.0000 </r>
       <r>   16.8158    0.0000 </r>
      </set>
      <set comment="kpoint 3">
       <r>  -10.2463    1.0000 </r>
       <r>   -4.5883    1.0000 </r>
       <r>   -2.3018    1.0000 </r>
       <r>   -2.2564    1.0000 </r>
       <r>   -1.2146    1.0000 </r>
       <r>   -1.1661    1.0000 </r>
       <r>    0.9878    1.0000 </r>
       <r>    3.6286    1.0000 </r>
       <r>    3.6709    1.0000 </r>
       <r>    4.2215    1.0000 </r>
       <r>    4.2694    1.0000 </r>
       <r>    4.7115    1.0000 </r>
       <r>    4.8434    1.0000 </r>
       <r>    9.4189    1.0000 </r>
       <r>    9.7474    1.0000 </r>
       <r>   10.1824    1.0000 </r>
       <r>   15.0491    0.0000 </r>
       <r>   16.2049    0.0000 </r>
       <r>   16.2413    0.0000 </r>
       <r>   16.3165    0.0000 </r>
       <r>   16.8421    0.0000 </r>
       <r>   16.9816    0.0000 </r>
       <r>   17.0585    0.0000 </r>
       <r>   17.5486    0.0000 </r>
      </set>
      <set comment="kpoint 4">
       <r>   -9.9678    1.0000 </r>
       <r>   -5.5424    1.0000 </r>
       <r>   -2.1293    1.0000 </r>
       <r>   -2.0874    1.0000 </r>
       <r>   -1.0890    1.0000 </r>
       <r>   -1.0461    1.0000 </r>
       <r>    2.1771    1.0000 </r>
       <r>    3.1589    1.0000 </r>
       <r>    3.1962    1.0000 </r>
       <r>    3.8727    1.0000 </r>
       <r>    3.9178    1.0000 </r>
       <r>    4.9939    1.0000 </r>
       <r>    5.1122    1.0000 </r>
       <r>    8.7052    1.0000 </r>
       <r>    9.0583    1.0000 </r>
       <r>    9.6039    1.0000 </r>
       <r>   14.9854    0.0000 </r>
       <r>   16.0207    0.0000 </r>
       <r>   17.1211    0.0000 </r>
       <r>   17.1948    0.0000 </r>
       <r>   17.5517    0.0000 </r>
       <r>   18.0019    0.0000 </r>
       <r>   18.0783    0.0000 </r>
       <r>   18.4567    0.0000 </r>
      </set>
      <set comment="kpoint 5">
       <r>   -9.5976    1.0000 </r>
       <r>   -6.4238    1.0000 </r>
       <r>   -1.9274    1.0000 </r>
       <r>   -1.8914    1.0000 </r>
       <r>   -0.9582    1.0000 </r>
       <r>   -0.9243    1.0000 </r>
       <r>    2.7297    1.0000 </r>
       <r>    2.7589    1.0000 </r>
       <r>    3.3482    1.0000 </r>
       <r>    3.4949    1.0000 </r>
       <r>    3.5340    1.0000 </r>
       <r>    5.3734    1.0000 </r>
       <r>    5.4671    1.0000 </r>
       <r>    7.9592    1.0000 </r>
       <r>    8.3456    1.0000 </r>
       <r>    8.8777    1.0000 </r>
       <r>   14.9972    0.0000 </r>
       <r>   15.8092    0.0000 </r>
       <r>   18.2034    0.0000 </r>
       <r>   18.2751    0.0000 </r>
       <r>   18.3930    0.0000 </r>
       <r>   19.1733    0.0000 </r>
       <r>   19.2483    0.0000 </r>
       <r>   19.4635    0.0000 </r>
      </set>
      <set comment="kpoint 6">
       <r>   -9.1368    1.0000 </r>
       <r>   -7.2276    1.0000 </r>
       <r>   -1.7311    1.0000 </r>
       <r>   -1.7052    1.0000 </r>
       <r>   -0.8542    1.0000 </r>
       <r>   -0.8330    1.0000 </r>
       <r>    2.4089    1.0000 </r>
       <r>    2.4270    1.0000 </r>
       <r>    3.1708    1.0000 </r>
       <r>    3.1989    1.0000 </r>
       <r>    4.4722    1.0000 </r>
       <r>    5.8575    1.0000 </r>
       <r>    5.9054    1.0000 </r>
       <r>    7.2013    1.0000 </r>
       <r>    7.6530    1.0000 </r>
       <r>    8.0580    1.0000 </r>
       <r>   15.0753    0.0000 </r>
       <r>   15.5910    0.0000 </r>
       <r>   19.3603    0.0000 </r>
       <r>   19.4051    0.0000 </r>
       <r>   19.4733    0.0000 </r>
       <r>   20.4040    0.0000 </r>
       <r>   20.5209    0.0000 </r>
       <r>   20.6002    0.0000 </r>
      </set>
      <set comment="kpoint 7">
       <r>   -8.5869    1.0000 </r>
       <r>   -7.9496    1.0000 </r>
       <r>   -1.5975    1.0000 </r>
       <r>   -1.5878    1.0000 </r>
       <r>   -0.7999    1.0000 </r>
       <r>   -0.7929    1.0000 </r>
       <r>    2.2436    1.0000 </r>
       <r>    2.2494    1.0000 </r>
       <r>    2.9828    1.0000 </r>
       <r>    2.9933    1.0000 </r>
       <r>    5.5062    1.0000 </r>
       <r>    6.4069    1.0000 </r>
       <r>    6.4185    1.0000 </r>
       <r>    6.4689    1.0000 </r>
       <r>    7.0056    1.0000 </r>
       <r>    7.2197    1.0000 </r>
       <r>   15.2087    0.0000 </r>
       <r>   15.3854    0.0000 </r>
       <r>   20.4312    0.0000 </r>
       <r>   20.5754    0.0000 </r>
       <r>   20.6268    0.0000 </r>
       <r>   21.4000    0.0000 </r>
       <r>   21.4291    0.0000 </r>
       <r>   21.5424    0.0000 </r>
      </set>
      <set comment="kpoint 8">
       <r>  -10.3393    1.0000 </r>
       <r>   -3.4950    1.0000 </r>
       <r>   -3.4950    1.0000 </r>
       <r>   -2.3212    1.0000 </r>
       <r>   -1.2128    1.0000 </r>
       <r>   -0.1676    1.0000 </r>
       <r>   -0.1676    1.0000 </r>
       <r>    3.5496    1.0000 </r>
       <r>    4.2098    1.0000 </r>
       <r>    4.2098    1.0000 </r>
       <r>    4.6043    1.0000 </r>
       <r>    4.6043    1.0000 </r>
       <r>    4.6787    1.0000 </r>
       <r>    9.4953    1.0000 </r>
       <r>   10.0713    1.0000 </r>
       <r>   10.5547    1.0000 </r>
       <r>   15.5395    0.0000 </r>
       <r>   15.5395    0.0000 </r>
       <r>   15.5968    0.0000 </r>
       <r>   16.5913    0.0000 </r>
       <r>   16.6572    0.0000 </r>
       <r>   16.6572    0.0000 </r>
       <r>   16.8958    0.0000 </r>
       <r>   16.9586    0.0000 </r>
      </set>
      <set comment="kpoint 9">
       <r>  -10.1534    1.0000 </r>
       <r>   -4.5095    1.0000 </r>
       <r>   -3.3520    1.0000 </r>
       <r>   -2.2163    1.0000 </r>
       <r>   -1.1278    1.0000 </r>
       <r>   -0.1189    1.0000 </r>
       <r>    0.9838    1.0000 </r>
       <r>    3.0009    1.0000 </r>
       <r>    3.7825    1.0000 </r>
       <r>    4.3814    1.0000 </r>
       <r>    4.4151    1.0000 </r>
       <r>    4.6925    1.0000 </r>
       <r>    4.7951    1.0000 </r>
       <r>    8.8162    1.0000 </r>
       <r>    9.5126    1.0000 </r>
       <r>   10.3390    1.0000 </r>
       <r>   15.4124    0.0000 </r>
       <r>   15.9070    0.0000 </r>
       <r>   16.1957    0.0000 </r>
       <r>   16.5533    0.0000 </r>
       <r>   17.2090    0.0000 </r>
       <r>   17.3841    0.0000 </r>
       <r>   17.5969    0.0000 </r>
       <r>   17.7173    0.0000 </r>
      </set>
      <set comment="kpoint 10">
       <r>   -9.8752    1.0000 </r>
       <r>   -5.4595    1.0000 </r>
       <r>   -3.1450    1.0000 </r>
       <r>   -2.0844    1.0000 </r>
       <r>   -1.0160    1.0000 </r>
       <r>   -0.0762    1.0000 </r>
       <r>    2.1164    1.0000 </r>
       <r>    2.4981    1.0000 </r>
       <r>    3.3144    1.0000 </r>
       <r>    4.0696    1.0000 </r>
       <r>    4.5308    1.0000 </r>
       <r>    4.7262    1.0000 </r>
       <r>    5.0870    1.0000 </r>
       <r>    8.0783    1.0000 </r>
       <r>    8.8416    1.0000 </r>
       <r>    9.8797    1.0000 </r>
       <r>   15.3594    0.0000 </r>
       <r>   16.3883    0.0000 </r>
       <r>   16.5573    0.0000 </r>
       <r>   17.1104    0.0000 </r>
       <r>   17.8965    0.0000 </r>
       <r>   18.3540    0.0000 </r>
       <r>   18.4805    0.0000 </r>
       <r>   18.4997    0.0000 </r>
      </set>
      <set comment="kpoint 11">
       <r>   -9.5055    1.0000 </r>
       <r>   -6.3380    1.0000 </r>
       <r>   -2.8854    1.0000 </r>
       <r>   -1.9701    1.0000 </r>
       <r>   -0.8873    1.0000 </r>
       <r>   -0.0768    1.0000 </r>
       <r>    2.1211    1.0000 </r>
       <r>    2.8662    1.0000 </r>
       <r>    3.1927    1.0000 </r>
       <r>    3.7658    1.0000 </r>
       <r>    4.2596    1.0000 </r>
       <r>    5.1413    1.0000 </r>
       <r>    5.4960    1.0000 </r>
       <r>    7.3229    1.0000 </r>
       <r>    8.1399    1.0000 </r>
       <r>    9.2324    1.0000 </r>
       <r>   15.3778    0.0000 </r>
       <r>   16.1855    0.0000 </r>
       <r>   17.4783    0.0000 </r>
       <r>   18.2153    0.0000 </r>
       <r>   18.7166    0.0000 </r>
       <r>   19.3720    0.0000 </r>
       <r>   19.4730    0.0000 </r>
       <r>   19.5144    0.0000 </r>
      </set>
      <set comment="kpoint 12">
       <r>   -9.0453    1.0000 </r>
       <r>   -7.1396    1.0000 </r>
       <r>   -2.5925    1.0000 </r>
       <r>   -1.9451    1.0000 </r>
       <r>   -0.7321    1.0000 </r>
       <r>   -0.1576    1.0000 </r>
       <r>    1.9361    1.0000 </r>
       <r>    2.4746    1.0000 </r>
       <r>    3.5695    1.0000 </r>
       <r>    3.9556    1.0000 </r>
       <r>    4.1706    1.0000 </r>
       <r>    5.6409    1.0000 </r>
       <r>    6.0567    1.0000 </r>
       <r>    6.5692    1.0000 </r>
       <r>    7.4516    1.0000 </r>
       <r>    8.4573    1.0000 </r>
       <r>   15.4592    0.0000 </r>
       <r>   15.9725    0.0000 </r>
       <r>   18.5827    0.0000 </r>
       <r>   19.4326    0.0000 </r>
       <r>   19.6619    0.0000 </r>
       <r>   20.3364    0.0000 </r>
       <r>   20.5863    0.0000 </r>
       <r>   20.5899    0.0000 </r>
      </set>
      <set comment="kpoint 13">
       <r>   -8.4963    1.0000 </r>
       <r>   -7.8602    1.0000 </r>
       <r>   -2.3004    1.0000 </r>
       <r>   -2.0630    1.0000 </r>
       <r>   -0.5355    1.0000 </r>
       <r>   -0.3243    1.0000 </r>
       <r>    1.9621    1.0000 </r>
       <r>    2.1607    1.0000 </r>
       <r>    3.5469    1.0000 </r>
       <r>    3.6942    1.0000 </r>
       <r>    5.0331    1.0000 </r>
       <r>    5.8155    1.0000 </r>
       <r>    6.1964    1.0000 </r>
       <r>    6.7845    1.0000 </r>
       <r>    6.8002    1.0000 </r>
       <r>    7.6161    1.0000 </r>
       <r>   15.5938    0.0000 </r>
       <r>   15.7697    0.0000 </r>
       <r>   19.7554    0.0000 </r>
       <r>   20.4808    0.0000 </r>
       <r>   20.7089    0.0000 </r>
       <r>   21.1150    0.0000 </r>
       <r>   21.3369    0.0000 </r>
       <r>   21.6730    0.0000 </r>
      </set>
      <set comment="kpoint 14">
       <r>   -9.9680    1.0000 </r>
       <r>   -4.3536    1.0000 </r>
       <r>   -4.3536    1.0000 </r>
       <r>   -2.1547    1.0000 </r>
       <r>   -1.0554    1.0000 </r>
       <r>    0.9580    1.0000 </r>
       <r>    0.9580    1.0000 </r>
       <r>    2.4171    1.0000 </r>
       <r>    4.0049    1.0000 </r>
       <r>    4.0049    1.0000 </r>
       <r>    4.6156    1.0000 </r>
       <r>    4.6156    1.0000 </r>
       <r>    4.9831    1.0000 </r>
       <r>    8.1087    1.0000 </r>
       <r>    8.9870    1.0000 </r>
       <r>   10.3203    1.0000 </r>
       <r>   15.9104    0.0000 </r>
       <r>   16.0963    0.0000 </r>
       <r>   16.0963    0.0000 </r>
       <r>   16.9538    0.0000 </r>
       <r>   17.7930    0.0000 </r>
       <r>   17.8923    0.0000 </r>
       <r>   17.8923    0.0000 </r>
       <r>   18.0557    0.0000 </r>
      </set>
      <set comment="kpoint 15">
       <r>   -9.6904    1.0000 </r>
       <r>   -5.2948    1.0000 </r>
       <r>   -4.1247    1.0000 </r>
       <r>   -2.1175    1.0000 </r>
       <r>   -0.9485    1.0000 </r>
       <r>    0.8770    1.0000 </r>
       <r>    1.9622    1.0000 </r>
       <r>    1.9746    1.0000 </r>
       <r>    3.5409    1.0000 </r>
       <r>    4.3317    1.0000 </r>
       <r>    4.3972    1.0000 </r>
       <r>    4.9958    1.0000 </r>
       <r>    5.0698    1.0000 </r>
       <r>    7.3618    1.0000 </r>
       <r>    8.3421    1.0000 </r>
       <r>   10.0379    1.0000 </r>
       <r>   16.0579    0.0000 </r>
       <r>   16.2815    0.0000 </r>
       <r>   16.9846    0.0000 </r>
       <r>   17.0348    0.0000 </r>
       <r>   18.5075    0.0000 </r>
       <r>   18.5413    0.0000 </r>
       <r>   18.5762    0.0000 </r>
       <r>   18.8109    0.0000 </r>
      </set>
      <set comment="kpoint 16">
       <r>   -9.3216    1.0000 </r>
       <r>   -6.1672    1.0000 </r>
       <r>   -3.8298    1.0000 </r>
       <r>   -2.1783    1.0000 </r>
       <r>   -0.7881    1.0000 </r>
       <r>    0.7063    1.0000 </r>
       <r>    1.7107    1.0000 </r>
       <r>    2.8912    1.0000 </r>
       <r>    3.0659    1.0000 </r>
       <r>    4.2445    1.0000 </r>
       <r>    4.7444    1.0000 </r>
       <r>    4.9819    1.0000 </r>
       <r>    5.5541    1.0000 </r>
       <r>    6.6098    1.0000 </r>
       <r>    7.6604    1.0000 </r>
       <r>    9.5183    1.0000 </r>
       <r>   16.0833    0.0000 </r>
       <r>   16.8392    0.0000 </r>
       <r>   16.9828    0.0000 </r>
       <r>   18.1572    0.0000 </r>
       <r>   19.2490    0.0000 </r>
       <r>   19.3219    0.0000 </r>
       <r>   19.4846    0.0000 </r>
       <r>   19.8537    0.0000 </r>
      </set>
      <set comment="kpoint 17">
       <r>   -8.8628    1.0000 </r>
       <r>   -6.9644    1.0000 </r>
       <r>   -3.4807    1.0000 </r>
       <r>   -2.3866    1.0000 </r>
       <r>   -0.5494    1.0000 </r>
       <r>    0.4386    1.0000 </r>
       <r>    1.6918    1.0000 </r>
       <r>    2.6078    1.0000 </r>
       <r>    3.6995    1.0000 </r>
       <r>    4.2250    1.0000 </r>
       <r>    4.7831    1.0000 </r>
       <r>    5.2226    1.0000 </r>
       <r>    5.8710    1.0000 </r>
       <r>    6.2876    1.0000 </r>
       <r>    6.9873    1.0000 </r>
       <r>    8.8191    1.0000 </r>
       <r>   16.1662    0.0000 </r>
       <r>   16.6527    0.0000 </r>
       <r>   17.9363    0.0000 </r>
       <r>   19.3867    0.0000 </r>
       <r>   20.0316    0.0000 </r>
       <r>   20.2236    0.0000 </r>
       <r>   20.5554    0.0000 </r>
       <r>   20.6984    0.0000 </r>
      </set>
      <set comment="kpoint 18">
       <r>   -8.3154    1.0000 </r>
       <r>   -7.6817    1.0000 </r>
       <r>   -3.0977    1.0000 </r>
       <r>   -2.7149    1.0000 </r>
       <r>   -0.2394    1.0000 </r>
       <r>    0.1063    1.0000 </r>
       <r>    1.8734    1.0000 </r>
       <r>    2.1966    1.0000 </r>
       <r>    4.3402    1.0000 </r>
       <r>    4.4365    1.0000 </r>
       <r>    4.5465    1.0000 </r>
       <r>    5.1502    1.0000 </r>
       <r>    5.7582    1.0000 </r>
       <r>    6.3486    1.0000 </r>
       <r>    7.1328    1.0000 </r>
       <r>    8.0023    1.0000 </r>
       <r>   16.2975    0.0000 </r>
       <r>   16.4649    0.0000 </r>
       <r>   19.0402    0.0000 </r>
       <r>   20.0774    0.0000 </r>
       <r>   20.8512    0.0000 </r>
       <r>   20.8840    0.0000 </r>
       <r>   21.2153    0.0000 </r>
       <r>   21.6576    0.0000 </r>
      </set>
      <set comment="kpoint 19">
       <r>   -9.4139    1.0000 </r>
       <r>   -5.0512    1.0000 </r>
       <r>   -5.0512    1.0000 </r>
       <r>   -2.2572    1.0000 </r>
       <r>   -0.8194    1.0000 </r>
       <r>    1.6328    1.0000 </r>
       <r>    1.7286    1.0000 </r>
       <r>    1.7286    1.0000 </r>
       <r>    3.8567    1.0000 </r>
       <r>    3.8567    1.0000 </r>
       <r>    4.9303    1.0000 </r>
       <r>    4.9303    1.0000 </r>
       <r>    5.4261    1.0000 </r>
       <r>    6.6178    1.0000 </r>
       <r>    7.7214    1.0000 </r>
       <r>    9.9508    1.0000 </r>
       <r>   16.3537    0.0000 </r>
       <r>   17.0075    0.0000 </r>
       <r>   17.0075    0.0000 </r>
       <r>   17.4948    0.0000 </r>
       <r>   18.7660    0.0000 </r>
       <r>   18.7987    0.0000 </r>
       <r>   19.4051    0.0000 </r>
       <r>   19.4051    0.0000 </r>
      </set>
      <set comment="kpoint 20">
       <r>   -9.0466    1.0000 </r>
       <r>   -5.9134    1.0000 </r>
       <r>   -4.7332    1.0000 </r>
       <r>   -2.5497    1.0000 </r>
       <r>   -0.6013    1.0000 </r>
       <r>    1.3797    1.0000 </r>
       <r>    1.5460    1.0000 </r>
       <r>    2.4728    1.0000 </r>
       <r>    3.3450    1.0000 </r>
       <r>    4.2439    1.0000 </r>
       <r>    4.9506    1.0000 </r>
       <r>    5.5786    1.0000 </r>
       <r>    5.6604    1.0000 </r>
       <r>    5.8767    1.0000 </r>
       <r>    7.0601    1.0000 </r>
       <r>    9.6034    1.0000 </r>
       <r>   16.7820    0.0000 </r>
       <r>   17.0347    0.0000 </r>
       <r>   17.6072    0.0000 </r>
       <r>   18.1347    0.0000 </r>
       <r>   19.1739    0.0000 </r>
       <r>   19.5213    0.0000 </r>
       <r>   20.1176    0.0000 </r>
       <r>   20.3269    0.0000 </r>
      </set>
      <set comment="kpoint 21">
       <r>   -8.5898    1.0000 </r>
       <r>   -6.7034    1.0000 </r>
       <r>   -4.3484    1.0000 </r>
       <r>   -2.9649    1.0000 </r>
       <r>   -0.2924    1.0000 </r>
       <r>    0.9608    1.0000 </r>
       <r>    1.6749    1.0000 </r>
       <r>    2.8357    1.0000 </r>
       <r>    3.1469    1.0000 </r>
       <r>    4.6957    1.0000 </r>
       <r>    5.0626    1.0000 </r>
       <r>    5.1563    1.0000 </r>
       <r>    5.5564    1.0000 </r>
       <r>    6.4049    1.0000 </r>
       <r>    6.5200    1.0000 </r>
       <r>    9.0274    1.0000 </r>
       <r>   17.1115    0.0000 </r>
       <r>   17.5133    0.0000 </r>
       <r>   17.5214    0.0000 </r>
       <r>   19.3607    0.0000 </r>
       <r>   19.6908    0.0000 </r>
       <r>   20.5428    0.0000 </r>
       <r>   20.5577    0.0000 </r>
       <r>   20.8980    0.0000 </r>
      </set>
      <set comment="kpoint 22">
       <r>   -8.0453    1.0000 </r>
       <r>   -7.4154    1.0000 </r>
       <r>   -3.9092    1.0000 </r>
       <r>   -3.4364    1.0000 </r>
       <r>    0.0889    1.0000 </r>
       <r>    0.5171    1.0000 </r>
       <r>    1.9641    1.0000 </r>
       <r>    2.3640    1.0000 </r>
       <r>    3.7997    1.0000 </r>
       <r>    4.4646    1.0000 </r>
       <r>    5.2101    1.0000 </r>
       <r>    5.2350    1.0000 </r>
       <r>    5.4194    1.0000 </r>
       <r>    5.7829    1.0000 </r>
       <r>    7.4196    1.0000 </r>
       <r>    8.2785    1.0000 </r>
       <r>   17.2281    0.0000 </r>
       <r>   17.3700    0.0000 </r>
       <r>   18.4866    0.0000 </r>
       <r>   19.5472    0.0000 </r>
       <r>   20.3161    0.0000 </r>
       <r>   20.7373    0.0000 </r>
       <r>   20.9808    0.0000 </r>
       <r>   21.6463    0.0000 </r>
      </set>
      <set comment="kpoint 23">
       <r>   -8.6815    1.0000 </r>
       <r>   -5.5797    1.0000 </r>
       <r>   -5.5797    1.0000 </r>
       <r>   -3.0484    1.0000 </r>
       <r>   -0.3229    1.0000 </r>
       <r>    1.6058    1.0000 </r>
       <r>    1.9813    1.0000 </r>
       <r>    1.9813    1.0000 </r>
       <r>    3.6984    1.0000 </r>
       <r>    3.6984    1.0000 </r>
       <r>    5.1509    1.0000 </r>
       <r>    5.8098    1.0000 </r>
       <r>    5.8098    1.0000 </r>
       <r>    5.9904    1.0000 </r>
       <r>    6.4174    1.0000 </r>
       <r>    9.4442    1.0000 </r>
       <r>   16.9172    0.0000 </r>
       <r>   18.1551    0.0000 </r>
       <r>   18.1551    0.0000 </r>
       <r>   18.2083    0.0000 </r>
       <r>   19.2119    0.0000 </r>
       <r>   19.8380    0.0000 </r>
       <r>   20.7447    0.0000 </r>
       <r>   20.7447    0.0000 </r>
      </set>
      <set comment="kpoint 24">
       <r>   -8.2277    1.0000 </r>
       <r>   -6.3588    1.0000 </r>
       <r>   -5.1713    1.0000 </r>
       <r>   -3.6063    1.0000 </r>
       <r>    0.0371    1.0000 </r>
       <r>    1.4607    1.0000 </r>
       <r>    1.8376    1.0000 </r>
       <r>    2.5616    1.0000 </r>
       <r>    3.1532    1.0000 </r>
       <r>    4.1239    1.0000 </r>
       <r>    4.4500    1.0000 </r>
       <r>    5.7789    1.0000 </r>
       <r>    5.9800    1.0000 </r>
       <r>    6.1976    1.0000 </r>
       <r>    6.7281    1.0000 </r>
       <r>    9.0371    1.0000 </r>
       <r>   17.3886    0.0000 </r>
       <r>   18.2135    0.0000 </r>
       <r>   18.4057    0.0000 </r>
       <r>   19.3597    0.0000 </r>
       <r>   19.3972    0.0000 </r>
       <r>   20.1591    0.0000 </r>
       <r>   20.6269    0.0000 </r>
       <r>   20.6392    0.0000 </r>
      </set>
      <set comment="kpoint 25">
       <r>   -7.6873    1.0000 </r>
       <r>   -7.0630    1.0000 </r>
       <r>   -4.6962    1.0000 </r>
       <r>   -4.1675    1.0000 </r>
       <r>    0.4654    1.0000 </r>
       <r>    0.9465    1.0000 </r>
       <r>    2.1946    1.0000 </r>
       <r>    2.6425    1.0000 </r>
       <r>    3.1564    1.0000 </r>
       <r>    3.7841    1.0000 </r>
       <r>    4.6178    1.0000 </r>
       <r>    5.1731    1.0000 </r>
       <r>    6.1353    1.0000 </r>
       <r>    6.2276    1.0000 </r>
       <r>    7.6199    1.0000 </r>
       <r>    8.4114    1.0000 </r>
       <r>   18.1446    0.0000 </r>
       <r>   18.2970    0.0000 </r>
       <r>   18.3806    0.0000 </r>
       <r>   19.0909    0.0000 </r>
       <r>   19.7287    0.0000 </r>
       <r>   20.1740    0.0000 </r>
       <r>   20.6717    0.0000 </r>
       <r>   21.6740    0.0000 </r>
      </set>
      <set comment="kpoint 26">
       <r>   -7.7781    1.0000 </r>
       <r>   -5.9343    1.0000 </r>
       <r>   -5.9343    1.0000 </r>
       <r>   -4.2538    1.0000 </r>
       <r>    0.4360    1.0000 </r>
       <r>    1.9767    1.0000 </r>
       <r>    1.9767    1.0000 </r>
       <r>    2.1351    1.0000 </r>
       <r>    3.5530    1.0000 </r>
       <r>    3.5530    1.0000 </r>
       <r>    3.7698    1.0000 </r>
       <r>    5.1561    1.0000 </r>
       <r>    6.6505    1.0000 </r>
       <r>    6.8869    1.0000 </r>
       <r>    6.8869    1.0000 </r>
       <r>    8.8185    1.0000 </r>
       <r>   17.5701    0.0000 </r>
       <r>   19.0839    0.0000 </r>
       <r>   19.2222    0.0000 </r>
       <r>   19.3716    0.0000 </r>
       <r>   19.3716    0.0000 </r>
       <r>   19.7404    0.0000 </r>
       <r>   19.7404    0.0000 </r>
       <r>   21.0055    0.0000 </r>
      </set>
      <set comment="kpoint 27">
       <r>   -7.2435    1.0000 </r>
       <r>   -6.6273    1.0000 </r>
       <r>   -5.4355    1.0000 </r>
       <r>   -4.8708    1.0000 </r>
       <r>    0.8987    1.0000 </r>
       <r>    1.4165    1.0000 </r>
       <r>    2.5296    1.0000 </r>
       <r>    2.5356    1.0000 </r>
       <r>    3.0154    1.0000 </r>
       <r>    3.1275    1.0000 </r>
       <r>    4.0270    1.0000 </r>
       <r>    4.5658    1.0000 </r>
       <r>    6.8964    1.0000 </r>
       <r>    6.9592    1.0000 </r>
       <r>    7.7049    1.0000 </r>
       <r>    8.3661    1.0000 </r>
       <r>   18.0583    0.0000 </r>
       <r>   18.7961    0.0000 </r>
       <r>   19.2071    0.0000 </r>
       <r>   19.3302    0.0000 </r>
       <r>   19.3715    0.0000 </r>
       <r>   19.4705    0.0000 </r>
       <r>   20.6039    0.0000 </r>
       <r>   21.6744    0.0000 </r>
      </set>
      <set comment="kpoint 28">
       <r>   -6.7170    1.0000 </r>
       <r>   -6.1122    1.0000 </r>
       <r>   -6.1122    1.0000 </r>
       <r>   -5.5237    1.0000 </r>
       <r>    1.3905    1.0000 </r>
       <r>    1.9368    1.0000 </r>
       <r>    1.9368    1.0000 </r>
       <r>    2.5086    1.0000 </r>
       <r>    2.9661    1.0000 </r>
       <r>    3.4691    1.0000 </r>
       <r>    3.4691    1.0000 </r>
       <r>    3.9909    1.0000 </r>
       <r>    7.3721    1.0000 </r>
       <r>    7.6353    1.0000 </r>
       <r>    7.6353    1.0000 </r>
       <r>    8.1114    1.0000 </r>
       <r>   18.2521    0.0000 </r>
       <r>   18.7109    0.0000 </r>
       <r>   18.7109    0.0000 </r>
       <r>   18.8554    0.0000 </r>
       <r>   20.1051    0.0000 </r>
       <r>   20.4660    0.0000 </r>
       <r>   20.4660    0.0000 </r>
       <r>   21.2467    0.0000 </r>
      </set>
      <set comment="kpoint 29">
       <r>  -10.4317    1.0000 </r>
       <r>   -3.5250    1.0000 </r>
       <r>   -2.4248    1.0000 </r>
       <r>   -2.4248    1.0000 </r>
       <r>   -1.3102    1.0000 </r>
       <r>   -1.3102    1.0000 </r>
       <r>   -0.1405    1.0000 </r>
       <r>    4.1056    1.0000 </r>
       <r>    4.1056    1.0000 </r>
       <r>    4.4770    1.0000 </r>
       <r>    4.5070    1.0000 </r>
       <r>    4.5070    1.0000 </r>
       <r>    4.6149    1.0000 </r>
       <r>   10.0426    1.0000 </r>
       <r>   10.3091    1.0000 </r>
       <r>   10.5872    1.0000 </r>
       <r>   15.1170    0.0000 </r>
       <r>   15.7178    0.0000 </r>
       <r>   15.7178    0.0000 </r>
       <r>   16.1906    0.0000 </r>
       <r>   16.2734    0.0000 </r>
       <r>   16.2734    0.0000 </r>
       <r>   16.2996    0.0000 </r>
       <r>   16.8448    0.0000 </r>
      </set>
      <set comment="kpoint 30">
       <r>  -10.3387    1.0000 </r>
       <r>   -3.4946    1.0000 </r>
       <r>   -3.4527    1.0000 </r>
       <r>   -2.3671    1.0000 </r>
       <r>   -1.2628    1.0000 </r>
       <r>   -0.1678    1.0000 </r>
       <r>   -0.1130    1.0000 </r>
       <r>    3.5887    1.0000 </r>
       <r>    4.1652    1.0000 </r>
       <r>    4.2070    1.0000 </r>
       <r>    4.5567    1.0000 </r>
       <r>    4.6024    1.0000 </r>
       <r>    4.7275    1.0000 </r>
       <r>    9.4996    1.0000 </r>
       <r>   10.0399    1.0000 </r>
       <r>   10.5825    1.0000 </r>
       <r>   15.4608    0.0000 </r>
       <r>   15.5431    0.0000 </r>
       <r>   15.6742    0.0000 </r>
       <r>   16.5702    0.0000 </r>
       <r>   16.5853    0.0000 </r>
       <r>   16.6606    0.0000 </r>
       <r>   16.9324    0.0000 </r>
       <r>   16.9778    0.0000 </r>
      </set>
      <set comment="kpoint 31">
       <r>  -10.1528    1.0000 </r>
       <r>   -4.5090    1.0000 </r>
       <r>   -3.3108    1.0000 </r>
       <r>   -2.2596    1.0000 </r>
       <r>   -1.1744    1.0000 </r>
       <r>   -0.0699    1.0000 </r>
       <r>    0.9831    1.0000 </r>
       <r>    3.0343    1.0000 </r>
       <r>    3.7412    1.0000 </r>
       <r>    4.3363    1.0000 </r>
       <r>    4.4114    1.0000 </r>
       <r>    4.7430    1.0000 </r>
       <r>    4.7946    1.0000 </r>
       <r>    8.8208    1.0000 </r>
       <r>    9.4856    1.0000 </r>
       <r>   10.3619    1.0000 </r>
       <r>   15.4158    0.0000 </r>
       <r>   15.9814    0.0000 </r>
       <r>   16.1187    0.0000 </r>
       <r>   16.5513    0.0000 </r>
       <r>   17.2123    0.0000 </r>
       <r>   17.3117    0.0000 </r>
       <r>   17.5424    0.0000 </r>
       <r>   17.7705    0.0000 </r>
      </set>
      <set comment="kpoint 32">
       <r>   -9.8746    1.0000 </r>
       <r>   -5.4590    1.0000 </r>
       <r>   -3.1058    1.0000 </r>
       <r>   -2.1224    1.0000 </r>
       <r>   -1.0572    1.0000 </r>
       <r>   -0.0371    1.0000 </r>
       <r>    2.1150    1.0000 </r>
       <r>    2.5225    1.0000 </r>
       <r>    3.2773    1.0000 </r>
       <r>    4.0312    1.0000 </r>
       <r>    4.5815    1.0000 </r>
       <r>    4.7203    1.0000 </r>
       <r>    5.0896    1.0000 </r>
       <r>    8.0817    1.0000 </r>
       <r>    8.8177    1.0000 </r>
       <r>    9.8999    1.0000 </r>
       <r>   15.3627    0.0000 </r>
       <r>   16.3883    0.0000 </r>
       <r>   16.6289    0.0000 </r>
       <r>   17.0352    0.0000 </r>
       <r>   17.8996    0.0000 </r>
       <r>   18.2819    0.0000 </r>
       <r>   18.4322    0.0000 </r>
       <r>   18.5460    0.0000 </r>
      </set>
      <set comment="kpoint 33">
       <r>   -9.5049    1.0000 </r>
       <r>   -6.3375    1.0000 </r>
       <r>   -2.8494    1.0000 </r>
       <r>   -1.9979    1.0000 </r>
       <r>   -0.9216    1.0000 </r>
       <r>   -0.0527    1.0000 </r>
       <r>    2.1324    1.0000 </r>
       <r>    2.8335    1.0000 </r>
       <r>    3.1904    1.0000 </r>
       <r>    3.7406    1.0000 </r>
       <r>    4.3081    1.0000 </r>
       <r>    5.1311    1.0000 </r>
       <r>    5.5040    1.0000 </r>
       <r>    7.3247    1.0000 </r>
       <r>    8.1183    1.0000 </r>
       <r>    9.2510    1.0000 </r>
       <r>   15.3808    0.0000 </r>
       <r>   16.1864    0.0000 </r>
       <r>   17.5474    0.0000 </r>
       <r>   18.1422    0.0000 </r>
       <r>   18.7195    0.0000 </r>
       <r>   19.4030    0.0000 </r>
       <r>   19.4293    0.0000 </r>
       <r>   19.4557    0.0000 </r>
      </set>
      <set comment="kpoint 34">
       <r>   -9.0447    1.0000 </r>
       <r>   -7.1391    1.0000 </r>
       <r>   -2.5620    1.0000 </r>
       <r>   -1.9565    1.0000 </r>
       <r>   -0.7603    1.0000 </r>
       <r>   -0.1518    1.0000 </r>
       <r>    1.9315    1.0000 </r>
       <r>    2.4449    1.0000 </r>
       <r>    3.5642    1.0000 </r>
       <r>    3.9987    1.0000 </r>
       <r>    4.1678    1.0000 </r>
       <r>    5.6255    1.0000 </r>
       <r>    6.0710    1.0000 </r>
       <r>    6.5696    1.0000 </r>
       <r>    7.4314    1.0000 </r>
       <r>    8.4751    1.0000 </r>
       <r>   15.4620    0.0000 </r>
       <r>   15.9741    0.0000 </r>
       <r>   18.6486    0.0000 </r>
       <r>   19.3635    0.0000 </r>
       <r>   19.6643    0.0000 </r>
       <r>   20.4179    0.0000 </r>
       <r>   20.5043    0.0000 </r>
       <r>   20.5316    0.0000 </r>
      </set>
      <set comment="kpoint 35">
       <r>   -8.4957    1.0000 </r>
       <r>   -7.8596    1.0000 </r>
       <r>   -2.2790    1.0000 </r>
       <r>   -2.0559    1.0000 </r>
       <r>   -0.5571    1.0000 </r>
       <r>   -0.3350    1.0000 </r>
       <r>    1.9438    1.0000 </r>
       <r>    2.1345    1.0000 </r>
       <r>    3.5630    1.0000 </r>
       <r>    3.7269    1.0000 </r>
       <r>    5.0308    1.0000 </r>
       <r>    5.8143    1.0000 </r>
       <r>    6.1782    1.0000 </r>
       <r>    6.7810    1.0000 </r>
       <r>    6.8016    1.0000 </r>
       <r>    7.6337    1.0000 </r>
       <r>   15.5963    0.0000 </r>
       <r>   15.7717    0.0000 </r>
       <r>   19.8133    0.0000 </r>
       <r>   20.4569    0.0000 </r>
       <r>   20.7108    0.0000 </r>
       <r>   21.0970    0.0000 </r>
       <r>   21.4270    0.0000 </r>
       <r>   21.5860    0.0000 </r>
      </set>
      <set comment="kpoint 36">
       <r>  -10.2457    1.0000 </r>
       <r>   -3.4243    1.0000 </r>
       <r>   -3.4243    1.0000 </r>
       <r>   -3.3830    1.0000 </r>
       <r>   -0.1505    1.0000 </r>
       <r>   -0.1505    1.0000 </r>
       <r>   -0.0988    1.0000 </r>
       <r>    3.6769    1.0000 </r>
       <r>    3.7135    1.0000 </r>
       <r>    3.7135    1.0000 </r>
       <r>    4.7681    1.0000 </r>
       <r>    4.8163    1.0000 </r>
       <r>    4.8163    1.0000 </r>
       <r>    8.8857    1.0000 </r>
       <r>   10.2331    1.0000 </r>
       <r>   10.2690    1.0000 </r>
       <r>   15.5477    0.0000 </r>
       <r>   15.6262    0.0000 </r>
       <r>   15.6262    0.0000 </r>
       <r>   16.9517    0.0000 </r>
       <r>   16.9777    0.0000 </r>
       <r>   17.1574    0.0000 </r>
       <r>   17.2352    0.0000 </r>
       <r>   17.2356    0.0000 </r>
      </set>
      <set comment="kpoint 37">
       <r>  -10.0600    1.0000 </r>
       <r>   -4.4316    1.0000 </r>
       <r>   -3.2877    1.0000 </r>
       <r>   -3.2477    1.0000 </r>
       <r>   -0.1324    1.0000 </r>
       <r>   -0.0882    1.0000 </r>
       <r>    0.9512    1.0000 </r>
       <r>    3.1677    1.0000 </r>
       <r>    3.1961    1.0000 </r>
       <r>    3.9736    1.0000 </r>
       <r>    4.7853    1.0000 </r>
       <r>    4.8347    1.0000 </r>
       <r>    4.9934    1.0000 </r>
       <r>    8.1643    1.0000 </r>
       <r>    9.7196    1.0000 </r>
       <r>   10.1668    1.0000 </r>
       <r>   15.5837    0.0000 </r>
       <r>   15.9100    0.0000 </r>
       <r>   15.9848    0.0000 </r>
       <r>   16.8737    0.0000 </r>
       <r>   17.6262    0.0000 </r>
       <r>   17.6961    0.0000 </r>
       <r>   17.7972    0.0000 </r>
       <r>   18.0614    0.0000 </r>
      </set>
      <set comment="kpoint 38">
       <r>   -9.7822    1.0000 </r>
       <r>   -5.3769    1.0000 </r>
       <r>   -3.0938    1.0000 </r>
       <r>   -3.0563    1.0000 </r>
       <r>   -0.1477    1.0000 </r>
       <r>   -0.1161    1.0000 </r>
       <r>    1.9968    1.0000 </r>
       <r>    2.7283    1.0000 </r>
       <r>    2.7448    1.0000 </r>
       <r>    4.3923    1.0000 </r>
       <r>    4.6378    1.0000 </r>
       <r>    4.6860    1.0000 </r>
       <r>    5.2570    1.0000 </r>
       <r>    7.4049    1.0000 </r>
       <r>    9.0734    1.0000 </r>
       <r>    9.8097    1.0000 </r>
       <r>   15.5827    0.0000 </r>
       <r>   16.5825    0.0000 </r>
       <r>   16.6542    0.0000 </r>
       <r>   16.7038    0.0000 </r>
       <r>   18.3223    0.0000 </r>
       <r>   18.4477    0.0000 </r>
       <r>   18.5166    0.0000 </r>
       <r>   19.1598    0.0000 </r>
      </set>
      <set comment="kpoint 39">
       <r>   -9.4129    1.0000 </r>
       <r>   -6.2521    1.0000 </r>
       <r>   -2.8613    1.0000 </r>
       <r>   -2.8283    1.0000 </r>
       <r>   -0.2348    1.0000 </r>
       <r>   -0.2196    1.0000 </r>
       <r>    2.4343    1.0000 </r>
       <r>    2.4364    1.0000 </r>
       <r>    2.9350    1.0000 </r>
       <r>    4.3971    1.0000 </r>
       <r>    4.4402    1.0000 </r>
       <r>    4.9985    1.0000 </r>
       <r>    5.6045    1.0000 </r>
       <r>    6.6439    1.0000 </r>
       <r>    8.3955    1.0000 </r>
       <r>    9.2230    1.0000 </r>
       <r>   15.6347    0.0000 </r>
       <r>   16.4996    0.0000 </r>
       <r>   17.5123    0.0000 </r>
       <r>   17.5810    0.0000 </r>
       <r>   19.0960    0.0000 </r>
       <r>   19.3323    0.0000 </r>
       <r>   19.4309    0.0000 </r>
       <r>   20.3618    0.0000 </r>
      </set>
      <set comment="kpoint 40">
       <r>   -8.9534    1.0000 </r>
       <r>   -7.0515    1.0000 </r>
       <r>   -2.6277    1.0000 </r>
       <r>   -2.6031    1.0000 </r>
       <r>   -0.3897    1.0000 </r>
       <r>   -0.3877    1.0000 </r>
       <r>    2.2959    1.0000 </r>
       <r>    2.3027    1.0000 </r>
       <r>    3.7467    1.0000 </r>
       <r>    4.1532    1.0000 </r>
       <r>    4.1851    1.0000 </r>
       <r>    5.7862    1.0000 </r>
       <r>    5.9012    1.0000 </r>
       <r>    6.0325    1.0000 </r>
       <r>    7.7303    1.0000 </r>
       <r>    8.4684    1.0000 </r>
       <r>   15.7389    0.0000 </r>
       <r>   16.2838    0.0000 </r>
       <r>   18.6150    0.0000 </r>
       <r>   18.6801    0.0000 </r>
       <r>   20.0023    0.0000 </r>
       <r>   20.2956    0.0000 </r>
       <r>   20.4189    0.0000 </r>
       <r>   21.5149    0.0000 </r>
      </set>
      <set comment="kpoint 41">
       <r>   -8.4052    1.0000 </r>
       <r>   -7.7703    1.0000 </r>
       <r>   -2.4634    1.0000 </r>
       <r>   -2.4538    1.0000 </r>
       <r>   -0.5271    1.0000 </r>
       <r>   -0.5258    1.0000 </r>
       <r>    2.2676    1.0000 </r>
       <r>    2.2720    1.0000 </r>
       <r>    4.0014    1.0000 </r>
       <r>    4.0137    1.0000 </r>
       <r>    4.4757    1.0000 </r>
       <r>    5.1822    1.0000 </r>
       <r>    6.5342    1.0000 </r>
       <r>    6.6856    1.0000 </r>
       <r>    7.1043    1.0000 </r>
       <r>    7.6032    1.0000 </r>
       <r>   15.8890    0.0000 </r>
       <r>   16.0750    0.0000 </r>
       <r>   19.7381    0.0000 </r>
       <r>   19.7873    0.0000 </r>
       <r>   21.0125    0.0000 </r>
       <r>   21.3059    0.0000 </r>
       <r>   21.3666    0.0000 </r>
       <r>   21.4291    0.0000 </r>
      </set>
      <set comment="kpoint 42">
       <r>   -9.8748    1.0000 </r>
       <r>   -4.2791    1.0000 </r>
       <r>   -4.2791    1.0000 </r>
       <r>   -3.1288    1.0000 </r>
       <r>   -0.1521    1.0000 </r>
       <r>    0.8588    1.0000 </r>
       <r>    0.8588    1.0000 </r>
       <r>    2.6666    1.0000 </r>
       <r>    3.5403    1.0000 </r>
       <r>    3.5403    1.0000 </r>
       <r>    5.0190    1.0000 </r>
       <r>    5.0190    1.0000 </r>
       <r>    5.0689    1.0000 </r>
       <r>    7.4155    1.0000 </r>
       <r>    9.4171    1.0000 </r>
[...]
       <r>   -5.3589    1.0000 </r>
       <r>   -4.9061    1.0000 </r>
       <r>   -1.8807    1.0000 </r>
       <r>   -1.4384    1.0000 </r>
       <r>   -1.4355    1.0000 </r>
       <r>   -0.9153    1.0000 </r>
       <r>    6.6766    1.0000 </r>
       <r>    6.9586    1.0000 </r>
       <r>    6.9672    1.0000 </r>
       <r>    7.3189    1.0000 </r>
       <r>    7.7143    1.0000 </r>
       <r>    7.8368    1.0000 </r>
       <r>    7.8409    1.0000 </r>
       <r>    8.1285    1.0000 </r>
       <r>   18.8268    0.0000 </r>
       <r>   19.0481    0.0000 </r>
       <r>   19.0632    0.0000 </r>
       <r>   19.1867    0.0000 </r>
       <r>   19.2912    0.0000 </r>
       <r>   19.3780    0.0000 </r>
       <r>   19.4735    0.0000 </r>
       <r>   19.8388    0.0000 </r>
      </set>
      <set comment="kpoint 194">
       <r>   -5.9831    1.0000 </r>
       <r>   -5.4434    1.0000 </r>
       <r>   -4.7030    1.0000 </r>
       <r>   -4.7030    1.0000 </r>
       <r>   -2.2460    1.0000 </r>
       <r>   -2.2460    1.0000 </r>
       <r>   -1.5206    1.0000 </r>
       <r>   -0.9947    1.0000 </r>
       <r>    7.0570    1.0000 </r>
       <r>    7.0570    1.0000 </r>
       <r>    7.6199    1.0000 </r>
       <r>    7.6199    1.0000 </r>
       <r>    7.6559    1.0000 </r>
       <r>    7.6749    1.0000 </r>
       <r>    7.9090    1.0000 </r>
       <r>    8.0981    1.0000 </r>
       <r>   18.7373    0.0000 </r>
       <r>   18.8813    0.0000 </r>
       <r>   18.8813    0.0000 </r>
       <r>   18.9501    0.0000 </r>
       <r>   19.3472    0.0000 </r>
       <r>   19.5258    0.0000 </r>
       <r>   19.6497    0.0000 </r>
       <r>   19.6527    0.0000 </r>
      </set>
      <set comment="kpoint 195">
       <r>   -5.5326    1.0000 </r>
       <r>   -5.0753    1.0000 </r>
       <r>   -5.0727    1.0000 </r>
       <r>   -4.7847    1.0000 </r>
       <r>   -2.3307    1.0000 </r>
       <r>   -2.0477    1.0000 </r>
       <r>   -2.0452    1.0000 </r>
       <r>   -1.5974    1.0000 </r>
       <r>    7.3803    1.0000 </r>
       <r>    7.5385    1.0000 </r>
       <r>    7.5580    1.0000 </r>
       <r>    7.8012    1.0000 </r>
       <r>    7.8252    1.0000 </r>
       <r>    7.8722    1.0000 </r>
       <r>    7.8891    1.0000 </r>
       <r>    8.0864    1.0000 </r>
       <r>   18.9883    0.0000 </r>
       <r>   19.0389    0.0000 </r>
       <r>   19.0462    0.0000 </r>
       <r>   19.1576    0.0000 </r>
       <r>   19.2089    0.0000 </r>
       <r>   19.3344    0.0000 </r>
       <r>   19.4053    0.0000 </r>
       <r>   19.5126    0.0000 </r>
      </set>
      <set comment="kpoint 196">
       <r>   -5.1593    1.0000 </r>
       <r>   -4.8684    1.0000 </r>
       <r>   -4.8684    1.0000 </r>
       <r>   -4.8673    1.0000 </r>
       <r>   -2.4158    1.0000 </r>
       <r>   -2.4147    1.0000 </r>
       <r>   -2.4147    1.0000 </r>
       <r>   -2.1286    1.0000 </r>
       <r>    7.8334    1.0000 </r>
       <r>    7.8334    1.0000 </r>
       <r>    7.8841    1.0000 </r>
       <r>    7.8848    1.0000 </r>
       <r>    7.9349    1.0000 </r>
       <r>    7.9349    1.0000 </r>
       <r>    7.9733    1.0000 </r>
       <r>    8.0319    1.0000 </r>
       <r>   19.0808    0.0000 </r>
       <r>   19.0997    0.0000 </r>
       <r>   19.0997    0.0000 </r>
       <r>   19.1462    0.0000 </r>
       <r>   19.1589    0.0000 </r>
       <r>   19.2685    0.0000 </r>
       <r>   19.2801    0.0000 </r>
       <r>   19.2801    0.0000 </r>
      </set>
     </set>
    </set>
   </array>
  </eigenvalues>
  <separator name="orbital magnetization" >
   <v name="MAGDIPOLOUT">      0.00000000      0.00000000      0.00000000</v>
  </separator>
  <dos>
   <i name="efermi">     10.99134881 </i>
   <total>
    <array>
     <dimension dim="1">gridpoints</dimension>
     <dimension dim="2">spin</dimension>
     <field>energy</field>
     <field>total</field>
     <field>integrated</field>
     <set>
      <set comment="spin 1">
       <r>   -12.1792     0.0000     0.0000 </r>
       <r>   -12.0579     0.0000     0.0000 </r>
       <r>   -11.9367     0.0000     0.0000 </r>
       <r>   -11.8154     0.0000     0.0000 </r>
       <r>   -11.6941     0.0000     0.0000 </r>
       <r>   -11.5729     0.0000     0.0000 </r>
       <r>   -11.4516     0.0000     0.0000 </r>
       <r>   -11.3303     0.0000     0.0000 </r>
       <r>   -11.2090     0.0000     0.0000 </r>
       <r>   -11.0878     0.0000     0.0000 </r>
       <r>   -10.9665     0.0000     0.0000 </r>
       <r>   -10.8452     0.0000     0.0000 </r>
       <r>   -10.7239     0.0000     0.0000 </r>
       <r>   -10.6027     0.0007     0.0001 </r>
       <r>   -10.4814     0.0541     0.0066 </r>
       <r>   -10.3601     0.1742     0.0278 </r>
       <r>   -10.2389     0.2202     0.0545 </r>
       <r>   -10.1176     0.3290     0.0944 </r>
       <r>    -9.9963     0.2362     0.1230 </r>
       <r>    -9.8750     0.4455     0.1770 </r>
       <r>    -9.7538     0.3465     0.2191 </r>
       <r>    -9.6325     0.4038     0.2680 </r>
       <r>    -9.5112     0.5023     0.3289 </r>
       <r>    -9.3900     0.4970     0.3892 </r>
       <r>    -9.2687     0.5422     0.4550 </r>
       <r>    -9.1474     0.3889     0.5021 </r>
       <r>    -9.0261     0.6856     0.5853 </r>
       <r>    -8.9049     0.6480     0.6638 </r>
       <r>    -8.7836     0.5326     0.7284 </r>
       <r>    -8.6623     0.4942     0.7884 </r>
       <r>    -8.5410     0.7494     0.8793 </r>
       <r>    -8.4198     0.8113     0.9776 </r>
       <r>    -8.2985     0.5922     1.0495 </r>
       <r>    -8.1772     0.7553     1.1411 </r>
       <r>    -8.0560     0.6375     1.2184 </r>
       <r>    -7.9347     0.8726     1.3242 </r>
       <r>    -7.8134     0.5598     1.3921 </r>
       <r>    -7.6921     0.9682     1.5095 </r>
       <r>    -7.5709     1.0430     1.6360 </r>
       <r>    -7.4496     0.5444     1.7020 </r>
       <r>    -7.3283     0.8266     1.8022 </r>
       <r>    -7.2071     0.7350     1.8914 </r>
       <r>    -7.0858     1.2476     2.0427 </r>
       <r>    -6.9645     0.8847     2.1500 </r>
       <r>    -6.8432     0.9351     2.2634 </r>
       <r>    -6.7220     0.7644     2.3561 </r>
       <r>    -6.6007     1.0777     2.4868 </r>
       <r>    -6.4794     0.8744     2.5928 </r>
       <r>    -6.3582     1.1231     2.7290 </r>
       <r>    -6.2369     0.9728     2.8470 </r>
       <r>    -6.1156     1.1340     2.9845 </r>
       <r>    -5.9943     1.0681     3.1140 </r>
       <r>    -5.8731     1.1900     3.2583 </r>
       <r>    -5.7518     1.2490     3.4098 </r>
       <r>    -5.6305     0.7013     3.4949 </r>
       <r>    -5.5092     1.0184     3.6184 </r>
       <r>    -5.3880     1.6842     3.8226 </r>
       <r>    -5.2667     1.2750     3.9772 </r>
       <r>    -5.1454     1.2340     4.1269 </r>
       <r>    -5.0242     1.4919     4.3078 </r>
       <r>    -4.9029     1.0647     4.4369 </r>
       <r>    -4.7816     1.5470     4.6245 </r>
       <r>    -4.6603     1.5911     4.8175 </r>
       <r>    -4.5391     1.6516     5.0178 </r>
       <r>    -4.4178     1.2778     5.1727 </r>
       <r>    -4.2965     1.4385     5.3472 </r>
       <r>    -4.1753     1.3224     5.5076 </r>
       <r>    -4.0540     2.1271     5.7655 </r>
       <r>    -3.9327     0.7188     5.8527 </r>
       <r>    -3.8114     1.3530     6.0168 </r>
       <r>    -3.6902     0.9445     6.1313 </r>
       <r>    -3.5689     1.1340     6.2688 </r>
       <r>    -3.4476     1.6654     6.4708 </r>
       <r>    -3.3263     1.2711     6.6250 </r>
       <r>    -3.2051     0.6671     6.7059 </r>
       <r>    -3.0838     1.2831     6.8615 </r>
       <r>    -2.9625     0.9992     6.9826 </r>
       <r>    -2.8413     1.3281     7.1437 </r>
       <r>    -2.7200     0.7904     7.2396 </r>
       <r>    -2.5987     0.5372     7.3047 </r>
       <r>    -2.4774     0.7184     7.3918 </r>
       <r>    -2.3562     1.0085     7.5141 </r>
       <r>    -2.2349     1.2975     7.6715 </r>
       <r>    -2.1136     1.2795     7.8266 </r>
       <r>    -1.9924     1.4308     8.0002 </r>
       <r>    -1.8711     1.1639     8.1413 </r>
       <r>    -1.7498     0.5921     8.2131 </r>
       <r>    -1.6285     0.7367     8.3025 </r>
       <r>    -1.5073     1.2167     8.4500 </r>
       <r>    -1.3860     0.8522     8.5534 </r>
       <r>    -1.2647     0.9501     8.6686 </r>
       <r>    -1.1434     1.6645     8.8704 </r>
       <r>    -1.0222     1.9137     9.1025 </r>
       <r>    -0.9009     1.6584     9.3036 </r>
       <r>    -0.7796     2.5538     9.6133 </r>
       <r>    -0.6584     1.9327     9.8477 </r>
       <r>    -0.5371     2.4858    10.1492 </r>
       <r>    -0.4158     1.2370    10.2992 </r>
       <r>    -0.2945     2.1899    10.5647 </r>
       <r>    -0.1733     2.3354    10.8480 </r>
       <r>    -0.0520     2.7296    11.1790 </r>
       <r>     0.0693     1.3776    11.3461 </r>
       <r>     0.1905     1.4779    11.5253 </r>
       <r>     0.3118     0.8410    11.6273 </r>
       <r>     0.4331     1.1281    11.7641 </r>
       <r>     0.5544     1.4675    11.9421 </r>
       <r>     0.6756     1.0014    12.0635 </r>
       <r>     0.7969     1.2510    12.2152 </r>
       <r>     0.9182     1.5000    12.3971 </r>
       <r>     1.0395     1.5598    12.5863 </r>
       <r>     1.1607     0.7383    12.6758 </r>
       <r>     1.2820     0.8905    12.7838 </r>
       <r>     1.4033     1.4034    12.9540 </r>
       <r>     1.5245     1.0129    13.0768 </r>
       <r>     1.6458     0.7978    13.1736 </r>
       <r>     1.7671     1.8019    13.3921 </r>
       <r>     1.8884     1.3138    13.5514 </r>
       <r>     2.0096     2.6328    13.8707 </r>
       <r>     2.1309     1.3685    14.0367 </r>
       <r>     2.2522     2.3468    14.3213 </r>
       <r>     2.3734     2.0668    14.5719 </r>
       <r>     2.4947     2.7772    14.9087 </r>
       <r>     2.6160     1.7714    15.1235 </r>
       <r>     2.7373     1.6479    15.3234 </r>
       <r>     2.8585     1.4824    15.5031 </r>
       <r>     2.9798     1.7277    15.7127 </r>
       <r>     3.1011     3.1871    16.0992 </r>
       <r>     3.2224     3.1644    16.4829 </r>
       <r>     3.3436     1.0908    16.6152 </r>
       <r>     3.4649     1.7101    16.8226 </r>
       <r>     3.5862     2.2478    17.0952 </r>
       <r>     3.7074     2.4478    17.3920 </r>
       <r>     3.8287     2.7996    17.7316 </r>
       <r>     3.9500     2.1876    17.9968 </r>
       <r>     4.0713     2.4915    18.2990 </r>
       <r>     4.1925     1.6667    18.5011 </r>
       <r>     4.3138     2.9324    18.8567 </r>
       <r>     4.4351     3.7206    19.3080 </r>
       <r>     4.5563     2.8988    19.6595 </r>
       <r>     4.6776     2.9569    20.0181 </r>
       <r>     4.7989     2.9715    20.3785 </r>
       <r>     4.9202     2.7405    20.7108 </r>
       <r>     5.0414     2.7900    21.0492 </r>
       <r>     5.1627     4.2350    21.5627 </r>
       <r>     5.2840     4.1740    22.0689 </r>
       <r>     5.4052     2.2515    22.3420 </r>
       <r>     5.5265     1.6799    22.5457 </r>
       <r>     5.6478     2.9914    22.9085 </r>
       <r>     5.7691     3.4762    23.3300 </r>
       <r>     5.8903     4.2290    23.8429 </r>
       <r>     6.0116     2.2357    24.1140 </r>
       <r>     6.1329     2.2607    24.3882 </r>
       <r>     6.2542     3.1392    24.7689 </r>
       <r>     6.3754     2.8360    25.1128 </r>
       <r>     6.4967     2.5721    25.4247 </r>
       <r>     6.6180     3.3818    25.8348 </r>
       <r>     6.7392     2.5847    26.1483 </r>
       <r>     6.8605     2.1330    26.4070 </r>
       <r>     6.9818     2.8374    26.7511 </r>
       <r>     7.1031     3.7214    27.2024 </r>
       <r>     7.2243     2.2141    27.4709 </r>
       <r>     7.3456     2.0841    27.7236 </r>
       <r>     7.4669     2.8278    28.0666 </r>
       <r>     7.5881     1.8806    28.2946 </r>
       <r>     7.7094     3.7480    28.7491 </r>
       <r>     7.8307     2.9848    29.1111 </r>
       <r>     7.9520     1.6292    29.3087 </r>
       <r>     8.0732     1.5675    29.4988 </r>
       <r>     8.1945     2.6281    29.8175 </r>
       <r>     8.3158     1.9661    30.0559 </r>
       <r>     8.4371     2.0471    30.3042 </r>
       <r>     8.5583     1.1193    30.4399 </r>
       <r>     8.6796     0.7588    30.5319 </r>
       <r>     8.8009     1.3106    30.6909 </r>
       <r>     8.9221     1.7725    30.9058 </r>
       <r>     9.0434     1.1718    31.0479 </r>
       <r>     9.1647     0.8435    31.1502 </r>
       <r>     9.2860     0.8061    31.2480 </r>
       <r>     9.4072     0.5894    31.3195 </r>
       <r>     9.5285     1.2289    31.4685 </r>
       <r>     9.6498     0.8280    31.5689 </r>
       <r>     9.7710     0.4539    31.6239 </r>
       <r>     9.8923     0.6236    31.6996 </r>
       <r>    10.0136     0.4304    31.7518 </r>
       <r>    10.1349     0.6593    31.8317 </r>
       <r>    10.2561     0.3320    31.8720 </r>
       <r>    10.3774     0.4985    31.9325 </r>
       <r>    10.4987     0.1597    31.9518 </r>
       <r>    10.6200     0.2778    31.9855 </r>
       <r>    10.7412     0.1121    31.9991 </r>
       <r>    10.8625     0.0075    32.0000 </r>
       <r>    10.9838     0.0000    32.0000 </r>
       <r>    11.1050     0.0000    32.0000 </r>
       <r>    11.2263     0.0000    32.0000 </r>
       <r>    11.3476     0.0000    32.0000 </r>
       <r>    11.4689     0.0000    32.0000 </r>
       <r>    11.5901     0.0000    32.0000 </r>
       <r>    11.7114     0.0000    32.0000 </r>
       <r>    11.8327     0.0000    32.0000 </r>
       <r>    11.9539     0.0000    32.0000 </r>
       <r>    12.0752     0.0000    32.0000 </r>
       <r>    12.1965     0.0000    32.0000 </r>
       <r>    12.3178     0.0000    32.0000 </r>
       <r>    12.4390     0.0000    32.0000 </r>
       <r>    12.5603     0.0000    32.0000 </r>
       <r>    12.6816     0.0000    32.0000 </r>
       <r>    12.8029     0.0000    32.0000 </r>
       <r>    12.9241     0.0000    32.0000 </r>
       <r>    13.0454     0.0000    32.0000 </r>
       <r>    13.1667     0.0000    32.0000 </r>
       <r>    13.2879     0.0000    32.0000 </r>
       <r>    13.4092     0.0000    32.0000 </r>
       <r>    13.5305     0.0000    32.0000 </r>
       <r>    13.6518     0.0000    32.0000 </r>
       <r>    13.7730     0.0000    32.0000 </r>
       <r>    13.8943     0.0000    32.0000 </r>
       <r>    14.0156     0.0000    32.0000 </r>
       <r>    14.1368     0.0000    32.0000 </r>
       <r>    14.2581     0.0000    32.0000 </r>
       <r>    14.3794     0.0000    32.0000 </r>
       <r>    14.5007     0.0000    32.0000 </r>
       <r>    14.6219     0.0000    32.0000 </r>
       <r>    14.7432     0.0000    32.0000 </r>
       <r>    14.8645     0.0086    32.0010 </r>
       <r>    14.9858     0.2226    32.0280 </r>
       <r>    15.1070     0.3514    32.0706 </r>
       <r>    15.2283     0.2454    32.1004 </r>
       <r>    15.3496     0.4927    32.1601 </r>
       <r>    15.4708     0.9771    32.2786 </r>
       <r>    15.5921     0.9171    32.3899 </r>
       <r>    15.7134     0.8596    32.4941 </r>
       <r>    15.8347     0.6745    32.5759 </r>
       <r>    15.9559     0.8023    32.6732 </r>
       <r>    16.0772     1.9346    32.9078 </r>
       <r>    16.1985     1.6773    33.1112 </r>
       <r>    16.3197     1.7051    33.3180 </r>
       <r>    16.4410     1.6327    33.5160 </r>
       <r>    16.5623     1.3711    33.6823 </r>
       <r>    16.6836     1.8801    33.9103 </r>
       <r>    16.8048     1.3398    34.0728 </r>
       <r>    16.9261     2.0238    34.3182 </r>
       <r>    17.0474     2.8114    34.6592 </r>
       <r>    17.1686     2.4238    34.9531 </r>
       <r>    17.2899     2.2132    35.2215 </r>
       <r>    17.4112     1.4228    35.3940 </r>
       <r>    17.5325     2.0846    35.6468 </r>
       <r>    17.6537     3.2200    36.0373 </r>
       <r>    17.7750     2.4522    36.3347 </r>
       <r>    17.8963     2.2057    36.6022 </r>
       <r>    18.0176     1.8180    36.8227 </r>
       <r>    18.1388     3.0109    37.1878 </r>
       <r>    18.2601     3.3236    37.5909 </r>
       <r>    18.3814     3.4643    38.0110 </r>
       <r>    18.5026     3.8322    38.4757 </r>
       <r>    18.6239     3.4408    38.8930 </r>
       <r>    18.7452     3.2540    39.2876 </r>
       <r>    18.8665     3.0595    39.6587 </r>
       <r>    18.9877     3.7845    40.1176 </r>
       <r>    19.1090     3.8910    40.5895 </r>
       <r>    19.2303     4.4095    41.1242 </r>
       <r>    19.3515     4.7448    41.6996 </r>
       <r>    19.4728     5.8188    42.4053 </r>
       <r>    19.5941     3.3562    42.8123 </r>
       <r>    19.7154     2.9184    43.1662 </r>
       <r>    19.8366     3.5264    43.5939 </r>
       <r>    19.9579     2.4784    43.8944 </r>
       <r>    20.0792     2.3447    44.1788 </r>
       <r>    20.2005     1.9966    44.4209 </r>
       <r>    20.3217     3.3650    44.8290 </r>
       <r>    20.4430     3.8478    45.2956 </r>
       <r>    20.5643     2.5694    45.6072 </r>
       <r>    20.6855     3.1320    45.9871 </r>
       <r>    20.8068     2.4025    46.2784 </r>
       <r>    20.9281     2.5363    46.5860 </r>
       <r>    21.0494     2.2647    46.8606 </r>
       <r>    21.1706     1.0418    46.9870 </r>
       <r>    21.2919     1.3011    47.1448 </r>
       <r>    21.4132     2.0741    47.3963 </r>
       <r>    21.5344     1.3495    47.5599 </r>
       <r>    21.6557     1.4260    47.7329 </r>
       <r>    21.7770     0.9293    47.8456 </r>
       <r>    21.8983     0.4446    47.8995 </r>
       <r>    22.0195     0.4385    47.9527 </r>
       <r>    22.1408     0.0902    47.9636 </r>
       <r>    22.2621     0.0116    47.9650 </r>
       <r>    22.3834     0.0016    47.9652 </r>
       <r>    22.5046     0.1393    47.9821 </r>
       <r>    22.6259     0.1462    47.9998 </r>
       <r>    22.7472     0.0014    48.0000 </r>
       <r>    22.8684     0.0000    48.0000 </r>
       <r>    22.9897     0.0000    48.0000 </r>
       <r>    23.1110     0.0000    48.0000 </r>
       <r>    23.2323     0.0000    48.0000 </r>
       <r>    23.3535     0.0000    48.0000 </r>
       <r>    23.4748     0.0000    48.0000 </r>
       <r>    23.5961     0.0000    48.0000 </r>
       <r>    23.7173     0.0000    48.0000 </r>
       <r>    23.8386     0.0000    48.0000 </r>
       <r>    23.9599     0.0000    48.0000 </r>
       <r>    24.0812     0.0000    48.0000 </r>
       <r>    24.2024     0.0000    48.0000 </r>
      </set>
     </set>
    </array>
   </total>
  </dos>
 </calculation>
 <structure name="finalpos" >
  <crystal>
   <varray name="basis" >
    <v>       3.58551709       0.00000000       0.00000000 </v>
    <v>       0.00000000       3.58551709       0.00000000 </v>
    <v>       0.00000000       0.00000000       3.57360507 </v>
   </varray>
   <i name="volume">     45.94202660 </i>
   <varray name="rec_basis" >
    <v>       0.27889980       0.00000000       0.00000000 </v>
    <v>       0.00000000       0.27889980       0.00000000 </v>
    <v>       0.00000000       0.00000000       0.27982947 </v>
   </varray>
  </crystal>
  <varray name="positions" >
   <v>       0.25000000       0.25000000       0.25000000 </v>
   <v>       0.00000000       0.00000000       0.00000000 </v>
   <v>       0.25000000       0.75000000       0.75000000 </v>
   <v>       0.00000000       0.50000000       0.50000000 </v>
   <v>       0.75000000       0.25000000       0.75000000 </v>
   <v>       0.50000000       0.00000000       0.50000000 </v>
   <v>       0.75000000       0.75000000       0.25000000 </v>
   <v>       0.50000000       0.50000000       0.00000000 </v>
  </varray>
 </structure>
</modeling>
