   8   8   0   0
  0.5591136E+01  0.3537869E-09  0.3537869E-09  0.3573605E-09  0.5000000E-15
  1.000000000000000E-004
  CAR 
 unknown system                          
     24.83984846    -12.14579321  301     11.40943733      1.00000000
    -12.146  0.0000E+00  0.0000E+00
    -12.023  0.0000E+00  0.0000E+00
    -11.899  0.0000E+00  0.0000E+00
    -11.776  0.0000E+00  0.0000E+00
    -11.653  0.0000E+00  0.0000E+00
    -11.529  0.0000E+00  0.0000E+00
    -11.406  0.0000E+00  0.0000E+00
    -11.283  0.0000E+00  0.0000E+00
    -11.160  0.0000E+00  0.0000E+00
    -11.036  0.0000E+00  0.0000E+00
    -10.913  0.0000E+00  0.0000E+00
    -10.790  0.0000E+00  0.0000E+00
    -10.666  0.2734E-11  0.3371E-12
    -10.543  0.6264E-05  0.7722E-06
    -10.420  0.5284E-03  0.6591E-04
    -10.297  0.1709E-02  0.2766E-03
    -10.173  0.2162E-02  0.5432E-03
    -10.050  0.3236E-02  0.9421E-03
     -9.927  0.2304E-02  0.1226E-02
     -9.803  0.4347E-02  0.1762E-02
     -9.680  0.3443E-02  0.2187E-02
     -9.557  0.3933E-02  0.2672E-02
     -9.434  0.4940E-02  0.3281E-02
     -9.310  0.4849E-02  0.3878E-02
     -9.187  0.5353E-02  0.4538E-02
     -9.064  0.3822E-02  0.5010E-02
     -8.940  0.6564E-02  0.5819E-02
     -8.817  0.6522E-02  0.6623E-02
     -8.694  0.5116E-02  0.7254E-02
     -8.571  0.5030E-02  0.7874E-02
     -8.447  0.7132E-02  0.8753E-02
     -8.324  0.8099E-02  0.9751E-02
     -8.201  0.5651E-02  0.1045E-01
     -8.077  0.7431E-02  0.1136E-01
     -7.954  0.6308E-02  0.1214E-01
     -7.831  0.8385E-02  0.1318E-01
     -7.708  0.5692E-02  0.1388E-01
     -7.584  0.9109E-02  0.1500E-01
     -7.461  0.1043E-01  0.1629E-01
     -7.338  0.5661E-02  0.1698E-01
     -7.214  0.7910E-02  0.1796E-01
     -7.091  0.7094E-02  0.1883E-01
     -6.968  0.1216E-01  0.2033E-01
     -6.845  0.8472E-02  0.2138E-01
     -6.721  0.9349E-02  0.2253E-01
     -6.598  0.7569E-02  0.2346E-01
     -6.475  0.1026E-01  0.2473E-01
     -6.351  0.9093E-02  0.2585E-01
     -6.228  0.1022E-01  0.2711E-01
     -6.105  0.9974E-02  0.2834E-01
     -5.982  0.1047E-01  0.2963E-01
     -5.858  0.1127E-01  0.3102E-01
     -5.735  0.1003E-01  0.3225E-01
     -5.612  0.1418E-01  0.3400E-01
     -5.488  0.6041E-02  0.3475E-01
     -5.365  0.9594E-02  0.3593E-01
     -5.242  0.1578E-01  0.3788E-01
     -5.119  0.1379E-01  0.3958E-01
     -4.995  0.1076E-01  0.4090E-01
     -4.872  0.1427E-01  0.4266E-01
     -4.749  0.1098E-01  0.4402E-01
     -4.625  0.1334E-01  0.4566E-01
     -4.502  0.1595E-01  0.4763E-01
     -4.379  0.1539E-01  0.4952E-01
     -4.256  0.1512E-01  0.5139E-01
     -4.132  0.1303E-01  0.5300E-01
     -4.009  0.1270E-01  0.5456E-01
     -3.886  0.1868E-01  0.5686E-01
     -3.762  0.1239E-01  0.5839E-01
     -3.639  0.1032E-01  0.5966E-01
     -3.516  0.1033E-01  0.6094E-01
     -3.393  0.9386E-02  0.6209E-01
     -3.269  0.1489E-01  0.6393E-01
     -3.146  0.1711E-01  0.6604E-01
     -3.023  0.5787E-02  0.6675E-01
     -2.899  0.9258E-02  0.6790E-01
     -2.776  0.1264E-01  0.6945E-01
     -2.653  0.1058E-01  0.7076E-01
     -2.530  0.1071E-01  0.7208E-01
     -2.406  0.5873E-02  0.7280E-01
     -2.283  0.7903E-02  0.7378E-01
     -2.160  0.9272E-02  0.7492E-01
     -2.036  0.1158E-01  0.7635E-01
     -1.913  0.1438E-01  0.7812E-01
     -1.790  0.1451E-01  0.7991E-01
     -1.667  0.1210E-01  0.8140E-01
     -1.543  0.7109E-02  0.8228E-01
     -1.420  0.8952E-02  0.8338E-01
     -1.297  0.1107E-01  0.8475E-01
     -1.173  0.8290E-02  0.8577E-01
     -1.050  0.8437E-02  0.8681E-01
     -0.927  0.1876E-01  0.8912E-01
     -0.804  0.1391E-01  0.9084E-01
     -0.680  0.1856E-01  0.9313E-01
     -0.557  0.2280E-01  0.9594E-01
     -0.434  0.2346E-01  0.9883E-01
     -0.310  0.1982E-01  0.1013E+00
     -0.187  0.1497E-01  0.1031E+00
     -0.064  0.1965E-01  0.1055E+00
      0.059  0.2289E-01  0.1084E+00
      0.183  0.2172E-01  0.1110E+00
      0.306  0.1902E-01  0.1134E+00
      0.429  0.1531E-01  0.1153E+00
      0.553  0.8037E-02  0.1163E+00
      0.676  0.1076E-01  0.1176E+00
      0.799  0.1482E-01  0.1194E+00
      0.922  0.8834E-02  0.1205E+00
      1.046  0.1349E-01  0.1222E+00
      1.169  0.1237E-01  0.1237E+00
      1.292  0.1411E-01  0.1254E+00
      1.416  0.1141E-01  0.1268E+00
      1.539  0.8100E-02  0.1278E+00
      1.662  0.1330E-01  0.1295E+00
      1.785  0.1398E-01  0.1312E+00
      1.909  0.1118E-01  0.1326E+00
      2.032  0.1167E-01  0.1340E+00
      2.155  0.2009E-01  0.1365E+00
      2.279  0.1864E-01  0.1388E+00
      2.402  0.2126E-01  0.1414E+00
      2.525  0.2287E-01  0.1442E+00
      2.648  0.2129E-01  0.1469E+00
      2.772  0.2138E-01  0.1495E+00
      2.895  0.1940E-01  0.1519E+00
      3.018  0.1642E-01  0.1539E+00
      3.142  0.1272E-01  0.1555E+00
      3.265  0.2330E-01  0.1584E+00
      3.388  0.2864E-01  0.1619E+00
      3.511  0.2720E-01  0.1652E+00
      3.635  0.1215E-01  0.1667E+00
      3.758  0.1919E-01  0.1691E+00
      3.881  0.2246E-01  0.1719E+00
      4.005  0.2188E-01  0.1746E+00
      4.128  0.2784E-01  0.1780E+00
      4.251  0.2547E-01  0.1811E+00
      4.374  0.2032E-01  0.1836E+00
      4.498  0.2045E-01  0.1862E+00
      4.621  0.2980E-01  0.1898E+00
      4.744  0.3187E-01  0.1938E+00
      4.868  0.3384E-01  0.1979E+00
      4.991  0.2954E-01  0.2016E+00
      5.114  0.2531E-01  0.2047E+00
      5.237  0.2924E-01  0.2083E+00
      5.361  0.2796E-01  0.2118E+00
      5.484  0.4226E-01  0.2170E+00
      5.607  0.3687E-01  0.2215E+00
      5.731  0.1982E-01  0.2240E+00
      5.854  0.2018E-01  0.2264E+00
      5.977  0.3306E-01  0.2305E+00
      6.100  0.3026E-01  0.2342E+00
      6.224  0.3787E-01  0.2389E+00
      6.347  0.2356E-01  0.2418E+00
      6.470  0.2510E-01  0.2449E+00
      6.594  0.3004E-01  0.2486E+00
      6.717  0.2621E-01  0.2519E+00
      6.840  0.2539E-01  0.2550E+00
      6.963  0.3281E-01  0.2590E+00
      7.087  0.2338E-01  0.2619E+00
      7.210  0.2434E-01  0.2649E+00
      7.333  0.2899E-01  0.2685E+00
      7.457  0.3132E-01  0.2723E+00
      7.580  0.2209E-01  0.2751E+00
      7.703  0.2292E-01  0.2779E+00
      7.826  0.2457E-01  0.2809E+00
      7.950  0.2320E-01  0.2838E+00
      8.073  0.3567E-01  0.2882E+00
      8.196  0.2505E-01  0.2913E+00
      8.320  0.1542E-01  0.2932E+00
      8.443  0.1735E-01  0.2953E+00
      8.566  0.2382E-01  0.2982E+00
      8.689  0.2166E-01  0.3009E+00
      8.813  0.1706E-01  0.3030E+00
      8.936  0.1152E-01  0.3044E+00
      9.059  0.7798E-02  0.3054E+00
      9.183  0.1409E-01  0.3071E+00
      9.306  0.1555E-01  0.3091E+00
      9.429  0.1259E-01  0.3106E+00
      9.552  0.7769E-02  0.3116E+00
      9.676  0.6255E-02  0.3123E+00
      9.799  0.7508E-02  0.3133E+00
      9.922  0.1127E-01  0.3146E+00
     10.046  0.7775E-02  0.3156E+00
     10.169  0.5450E-02  0.3163E+00
     10.292  0.5214E-02  0.3169E+00
     10.415  0.5172E-02  0.3176E+00
     10.539  0.5867E-02  0.3183E+00
     10.662  0.3266E-02  0.3187E+00
     10.785  0.4599E-02  0.3193E+00
     10.909  0.2314E-02  0.3195E+00
     11.032  0.2139E-02  0.3198E+00
     11.155  0.1369E-02  0.3200E+00
     11.278  0.2327E-03  0.3200E+00
     11.402  0.9239E-07  0.3200E+00
     11.525  0.4768E-15  0.3200E+00
     11.648  0.0000E+00  0.3200E+00
     11.772  0.0000E+00  0.3200E+00
     11.895  0.0000E+00  0.3200E+00
     12.018  0.0000E+00  0.3200E+00
     12.141  0.0000E+00  0.3200E+00
     12.265  0.0000E+00  0.3200E+00
     12.388  0.0000E+00  0.3200E+00
     12.511  0.0000E+00  0.3200E+00
     12.635  0.0000E+00  0.3200E+00
     12.758  0.0000E+00  0.3200E+00
     12.881  0.0000E+00  0.3200E+00
     13.004  0.0000E+00  0.3200E+00
     13.128  0.0000E+00  0.3200E+00
     13.251  0.0000E+00  0.3200E+00
     13.374  0.0000E+00  0.3200E+00
     13.498  0.0000E+00  0.3200E+00
     13.621  0.0000E+00  0.3200E+00
     13.744  0.0000E+00  0.3200E+00
     13.867  0.0000E+00  0.3200E+00
     13.991  0.0000E+00  0.3200E+00
     14.114  0.0000E+00  0.3200E+00
     14.237  0.0000E+00  0.3200E+00
     14.361  0.0000E+00  0.3200E+00
     14.484  0.0000E+00  0.3200E+00
     14.607  0.0000E+00  0.3200E+00
     14.730  0.0000E+00  0.3200E+00
     14.854  0.0000E+00  0.3200E+00
     14.977  0.0000E+00  0.3200E+00
     15.100  0.1173E-15  0.3200E+00
     15.224  0.6660E-07  0.3200E+00
     15.347  0.5554E-03  0.3201E+00
     15.470  0.2782E-02  0.3204E+00
     15.593  0.1915E-02  0.3206E+00
     15.717  0.2888E-02  0.3210E+00
     15.840  0.8045E-02  0.3220E+00
     15.963  0.5582E-02  0.3227E+00
     16.087  0.1058E-01  0.3240E+00
     16.210  0.7443E-02  0.3249E+00
     16.333  0.6195E-02  0.3257E+00
     16.456  0.1451E-01  0.3275E+00
     16.580  0.1262E-01  0.3290E+00
     16.703  0.1747E-01  0.3312E+00
     16.826  0.1656E-01  0.3332E+00
     16.950  0.1551E-01  0.3351E+00
     17.073  0.1684E-01  0.3372E+00
     17.196  0.1390E-01  0.3389E+00
     17.319  0.1853E-01  0.3412E+00
     17.443  0.1864E-01  0.3435E+00
     17.566  0.2807E-01  0.3470E+00
     17.689  0.1969E-01  0.3494E+00
     17.813  0.2052E-01  0.3519E+00
     17.936  0.1832E-01  0.3542E+00
     18.059  0.2393E-01  0.3571E+00
     18.182  0.2406E-01  0.3601E+00
     18.306  0.2679E-01  0.3634E+00
     18.429  0.2049E-01  0.3659E+00
     18.552  0.2377E-01  0.3688E+00
     18.676  0.2735E-01  0.3722E+00
     18.799  0.2933E-01  0.3758E+00
     18.922  0.3275E-01  0.3799E+00
     19.045  0.4156E-01  0.3850E+00
     19.169  0.3139E-01  0.3889E+00
     19.292  0.3113E-01  0.3927E+00
     19.415  0.3468E-01  0.3970E+00
     19.539  0.3856E-01  0.4017E+00
     19.662  0.3737E-01  0.4063E+00
     19.785  0.3524E-01  0.4107E+00
     19.908  0.4591E-01  0.4163E+00
     20.032  0.4510E-01  0.4219E+00
     20.155  0.3582E-01  0.4263E+00
     20.278  0.3479E-01  0.4306E+00
     20.402  0.2970E-01  0.4343E+00
     20.525  0.2821E-01  0.4378E+00
     20.648  0.2423E-01  0.4407E+00
     20.771  0.2354E-01  0.4436E+00
     20.895  0.3238E-01  0.4476E+00
     21.018  0.2994E-01  0.4513E+00
     21.141  0.3530E-01  0.4557E+00
     21.265  0.2808E-01  0.4591E+00
     21.388  0.2599E-01  0.4623E+00
     21.511  0.2145E-01  0.4650E+00
     21.634  0.2069E-01  0.4675E+00
     21.758  0.1604E-01  0.4695E+00
     21.881  0.1790E-01  0.4717E+00
     22.004  0.1380E-01  0.4734E+00
     22.128  0.1406E-01  0.4752E+00
     22.251  0.1466E-01  0.4770E+00
     22.374  0.8632E-02  0.4780E+00
     22.497  0.7001E-02  0.4789E+00
     22.621  0.4813E-02  0.4795E+00
     22.744  0.1346E-02  0.4796E+00
     22.867  0.1549E-05  0.4797E+00
     22.991  0.3170E-03  0.4797E+00
     23.114  0.1208E-02  0.4798E+00
     23.237  0.1300E-02  0.4800E+00
     23.360  0.1274E-04  0.4800E+00
     23.484  0.5469E-11  0.4800E+00
     23.607  0.0000E+00  0.4800E+00
     23.730  0.0000E+00  0.4800E+00
     23.854  0.0000E+00  0.4800E+00
     23.977  0.0000E+00  0.4800E+00
     24.100  0.0000E+00  0.4800E+00
     24.223  0.0000E+00  0.4800E+00
     24.347  0.0000E+00  0.4800E+00
     24.470  0.0000E+00  0.4800E+00
     24.593  0.0000E+00  0.4800E+00
     24.717  0.0000E+00  0.4800E+00
     24.840  0.0000E+00  0.4800E+00
