       N       E                     dE             d eps       ncg     rms          rms(c)
DAV:   1     0.998849931469E+02    0.99885E+02   -0.26054E+04  9408   0.200E+03
DAV:   2    -0.726757311828E+02   -0.17256E+03   -0.16972E+03 15144   0.226E+02
DAV:   3    -0.753873186498E+02   -0.27116E+01   -0.27116E+01 10560   0.400E+01
DAV:   4    -0.754060684515E+02   -0.18750E-01   -0.18750E-01 17664   0.260E+00
DAV:   5    -0.754060712924E+02   -0.28409E-05   -0.28409E-05 10560   0.358E-02    0.170E+01
DAV:   6    -0.734658466490E+02    0.19402E+01   -0.14572E+00 10968   0.648E+00    0.112E+01
DAV:   7    -0.728161471684E+02    0.64970E+00   -0.18880E+00 13776   0.744E+00    0.241E+00
DAV:   8    -0.728141605246E+02    0.19866E-02   -0.25063E-02 14784   0.121E+00    0.120E-01
DAV:   9    -0.728143265553E+02   -0.16603E-03   -0.46109E-04 14328   0.142E-01    0.613E-02
DAV:  10    -0.728144470729E+02   -0.12052E-03   -0.11121E-04 14160   0.843E-02    0.497E-03
DAV:  11    -0.728144483167E+02   -0.12438E-05   -0.18328E-06 15048   0.107E-02    0.297E-03
DAV:  12    -0.728144486614E+02   -0.34465E-06   -0.57746E-08 14016   0.223E-03    0.138E-04
DAV:  13    -0.728144486707E+02   -0.92805E-08   -0.15086E-10 14808   0.951E-05
   1 F= -.72814449E+02 E0= -.72814449E+02  d E =-.728144E+02
