<?xml version="1.0" encoding="ISO-8859-1"?>
<modeling>
 <generator>
  <i name="program" type="string">vasp </i>
  <i name="version" type="string">5.4.4.18Apr17-6-g9f103f2a35  </i>
  <i name="subversion" type="string">(build Jan 14 2019 14:48:31) complex            parallel </i>
  <i name="platform" type="string">LinuxIFC </i>
  <i name="date" type="string">2019 08 26 </i>
  <i name="time" type="string">21:11:35 </i>
 </generator>
 <incar>
  <i type="int" name="ISTART">     0</i>
  <i type="string" name="PREC">high     (precision level)</i>
  <i type="logical" name="ADDGRID"> T  </i>
  <i type="int" name="NELM">    40</i>
  <i type="int" name="NELMIN">     4</i>
  <i type="int" name="IBRION">     2</i>
  <i name="EDIFF">      0.00000001</i>
  <i name="EDIFFG">     -0.01000000</i>
  <i type="int" name="NSW">   100</i>
  <i type="int" name="ISIF">     2</i>
  <i type="logical" name="LREAL"> F  </i>
  <i type="int" name="ISMEAR">     0</i>
  <i name="SIGMA">      0.05000000</i>
  <i type="logical" name="LWAVE"> F  </i>
  <i type="logical" name="LCHARG"> F  </i>
  <v type="int" name="KPOINT_BSE">    -1     0     0     0</v>
  <i type="int" name="NELM">    40</i>
 </incar>
 <structure name="primitive_cell" >
  <crystal>
   <varray name="basis" >
    <v>       0.00000000      -1.76893451       1.78680254 </v>
    <v>       0.00000000       1.76893451       1.78680254 </v>
    <v>      -1.76893451       0.00000000      -1.78680254 </v>
   </varray>
   <i name="volume">     11.18227234 </i>
   <varray name="rec_basis" >
    <v>      -0.28265603      -0.28265603       0.27982947 </v>
    <v>      -0.28265603       0.28265603       0.27982947 </v>
    <v>      -0.56531205       0.00000000       0.00000000 </v>
   </varray>
  </crystal>
  <varray name="positions" >
   <v>      -0.25000000       0.25000000      -0.50000000 </v>
   <v>       0.00000000       0.00000000       0.00000000 </v>
  </varray>
 </structure>
 <varray name="primitive_index" >
  <v type="int" >        1 </v>
  <v type="int" >        2 </v>
 </varray>
 <kpoints>
  <generation param="Monkhorst-Pack">
   <v type="int" name="divisions">      14       14       14 </v>
   <v name="usershift">      0.00000000       0.00000000       0.00000000 </v>
   <v name="genvec1">      0.07142857       0.00000000       0.00000000 </v>
   <v name="genvec2">      0.00000000       0.07142857       0.00000000 </v>
   <v name="genvec3">      0.00000000       0.00000000       0.07142857 </v>
   <v name="shift">      0.50000000       0.50000000       0.50000000 </v>
  </generation>
  <varray name="kpointlist" >
   <v>       0.03571429       0.03571429       0.03571429 </v>
   <v>       0.10714286       0.03571429       0.03571429 </v>
   <v>       0.17857143       0.03571429       0.03571429 </v>
   <v>       0.25000000       0.03571429       0.03571429 </v>
   <v>       0.32142857       0.03571429       0.03571429 </v>
   <v>       0.39285714       0.03571429       0.03571429 </v>
   <v>       0.46428571       0.03571429       0.03571429 </v>
   <v>       0.10714286       0.10714286       0.03571429 </v>
   <v>       0.17857143       0.10714286       0.03571429 </v>
   <v>       0.25000000       0.10714286       0.03571429 </v>
   <v>       0.32142857       0.10714286       0.03571429 </v>
   <v>       0.39285714       0.10714286       0.03571429 </v>
   <v>       0.46428571       0.10714286       0.03571429 </v>
   <v>       0.17857143       0.17857143       0.03571429 </v>
   <v>       0.25000000       0.17857143       0.03571429 </v>
   <v>       0.32142857       0.17857143       0.03571429 </v>
   <v>       0.39285714       0.17857143       0.03571429 </v>
   <v>       0.46428571       0.17857143       0.03571429 </v>
   <v>       0.25000000       0.25000000       0.03571429 </v>
   <v>       0.32142857       0.25000000       0.03571429 </v>
   <v>       0.39285714       0.25000000       0.03571429 </v>
   <v>       0.46428571       0.25000000       0.03571429 </v>
   <v>       0.32142857       0.32142857       0.03571429 </v>
   <v>       0.39285714       0.32142857       0.03571429 </v>
   <v>       0.46428571       0.32142857       0.03571429 </v>
   <v>       0.39285714       0.39285714       0.03571429 </v>
   <v>       0.46428571       0.39285714       0.03571429 </v>
   <v>       0.46428571       0.46428571       0.03571429 </v>
   <v>       0.03571429       0.03571429       0.10714286 </v>
   <v>       0.10714286       0.03571429       0.10714286 </v>
   <v>       0.17857143       0.03571429       0.10714286 </v>
   <v>       0.25000000       0.03571429       0.10714286 </v>
   <v>       0.32142857       0.03571429       0.10714286 </v>
   <v>       0.39285714       0.03571429       0.10714286 </v>
   <v>       0.46428571       0.03571429       0.10714286 </v>
   <v>       0.10714286       0.10714286       0.10714286 </v>
   <v>       0.17857143       0.10714286       0.10714286 </v>
   <v>       0.25000000       0.10714286       0.10714286 </v>
   <v>       0.32142857       0.10714286       0.10714286 </v>
   <v>       0.39285714       0.10714286       0.10714286 </v>
   <v>       0.46428571       0.10714286       0.10714286 </v>
   <v>       0.17857143       0.17857143       0.10714286 </v>
   <v>       0.25000000       0.17857143       0.10714286 </v>
   <v>       0.32142857       0.17857143       0.10714286 </v>
   <v>       0.39285714       0.17857143       0.10714286 </v>
   <v>       0.46428571       0.17857143       0.10714286 </v>
   <v>       0.25000000       0.25000000       0.10714286 </v>
   <v>       0.32142857       0.25000000       0.10714286 </v>
   <v>       0.39285714       0.25000000       0.10714286 </v>
   <v>       0.46428571       0.25000000       0.10714286 </v>
   <v>       0.32142857       0.32142857       0.10714286 </v>
   <v>       0.39285714       0.32142857       0.10714286 </v>
   <v>       0.46428571       0.32142857       0.10714286 </v>
   <v>       0.39285714       0.39285714       0.10714286 </v>
   <v>       0.46428571       0.39285714       0.10714286 </v>
   <v>       0.46428571       0.46428571       0.10714286 </v>
   <v>       0.03571429       0.03571429       0.17857143 </v>
   <v>       0.10714286       0.03571429       0.17857143 </v>
   <v>       0.17857143       0.03571429       0.17857143 </v>
   <v>       0.25000000       0.03571429       0.17857143 </v>
   <v>       0.32142857       0.03571429       0.17857143 </v>
   <v>       0.39285714       0.03571429       0.17857143 </v>
   <v>       0.46428571       0.03571429       0.17857143 </v>
   <v>       0.10714286       0.10714286       0.17857143 </v>
   <v>       0.17857143       0.10714286       0.17857143 </v>
   <v>       0.25000000       0.10714286       0.17857143 </v>
   <v>       0.32142857       0.10714286       0.17857143 </v>
   <v>       0.39285714       0.10714286       0.17857143 </v>
   <v>       0.46428571       0.10714286       0.17857143 </v>
   <v>       0.17857143       0.17857143       0.17857143 </v>
   <v>       0.25000000       0.17857143       0.17857143 </v>
   <v>       0.32142857       0.17857143       0.17857143 </v>
   <v>       0.39285714       0.17857143       0.17857143 </v>
   <v>       0.46428571       0.17857143       0.17857143 </v>
   <v>       0.25000000       0.25000000       0.17857143 </v>
   <v>       0.32142857       0.25000000       0.17857143 </v>
   <v>       0.39285714       0.25000000       0.17857143 </v>
   <v>       0.46428571       0.25000000       0.17857143 </v>
   <v>       0.32142857       0.32142857       0.17857143 </v>
   <v>       0.39285714       0.32142857       0.17857143 </v>
   <v>       0.46428571       0.32142857       0.17857143 </v>
   <v>       0.39285714       0.39285714       0.17857143 </v>
   <v>       0.46428571       0.39285714       0.17857143 </v>
   <v>       0.46428571       0.46428571       0.17857143 </v>
   <v>       0.03571429       0.03571429       0.25000000 </v>
   <v>       0.10714286       0.03571429       0.25000000 </v>
   <v>       0.17857143       0.03571429       0.25000000 </v>
   <v>       0.25000000       0.03571429       0.25000000 </v>
   <v>       0.32142857       0.03571429       0.25000000 </v>
   <v>       0.39285714       0.03571429       0.25000000 </v>
   <v>       0.46428571       0.03571429       0.25000000 </v>
   <v>       0.10714286       0.10714286       0.25000000 </v>
   <v>       0.17857143       0.10714286       0.25000000 </v>
   <v>       0.25000000       0.10714286       0.25000000 </v>
   <v>       0.32142857       0.10714286       0.25000000 </v>
   <v>       0.39285714       0.10714286       0.25000000 </v>
   <v>       0.46428571       0.10714286       0.25000000 </v>
   <v>       0.17857143       0.17857143       0.25000000 </v>
   <v>       0.25000000       0.17857143       0.25000000 </v>
   <v>       0.32142857       0.17857143       0.25000000 </v>
   <v>       0.39285714       0.17857143       0.25000000 </v>
   <v>       0.46428571       0.17857143       0.25000000 </v>
   <v>       0.25000000       0.25000000       0.25000000 </v>
   <v>       0.32142857       0.25000000       0.25000000 </v>
   <v>       0.39285714       0.25000000       0.25000000 </v>
   <v>       0.46428571       0.25000000       0.25000000 </v>
   <v>       0.32142857       0.32142857       0.25000000 </v>
   <v>       0.39285714       0.32142857       0.25000000 </v>
   <v>       0.46428571       0.32142857       0.25000000 </v>
   <v>       0.39285714       0.39285714       0.25000000 </v>
   <v>       0.46428571       0.39285714       0.25000000 </v>
   <v>       0.46428571       0.46428571       0.25000000 </v>
   <v>       0.03571429       0.03571429       0.32142857 </v>
   <v>       0.10714286       0.03571429       0.32142857 </v>
   <v>       0.17857143       0.03571429       0.32142857 </v>
   <v>       0.25000000       0.03571429       0.32142857 </v>
   <v>       0.32142857       0.03571429       0.32142857 </v>
   <v>       0.39285714       0.03571429       0.32142857 </v>
   <v>       0.46428571       0.03571429       0.32142857 </v>
   <v>       0.10714286       0.10714286       0.32142857 </v>
   <v>       0.17857143       0.10714286       0.32142857 </v>
   <v>       0.25000000       0.10714286       0.32142857 </v>
   <v>       0.32142857       0.10714286       0.32142857 </v>
   <v>       0.39285714       0.10714286       0.32142857 </v>
   <v>       0.46428571       0.10714286       0.32142857 </v>
   <v>       0.17857143       0.17857143       0.32142857 </v>
   <v>       0.25000000       0.17857143       0.32142857 </v>
   <v>       0.32142857       0.17857143       0.32142857 </v>
   <v>       0.39285714       0.17857143       0.32142857 </v>
   <v>       0.46428571       0.17857143       0.32142857 </v>
   <v>       0.25000000       0.25000000       0.32142857 </v>
   <v>       0.32142857       0.25000000       0.32142857 </v>
   <v>       0.39285714       0.25000000       0.32142857 </v>
   <v>       0.46428571       0.25000000       0.32142857 </v>
   <v>       0.32142857       0.32142857       0.32142857 </v>
   <v>       0.39285714       0.32142857       0.32142857 </v>
   <v>       0.46428571       0.32142857       0.32142857 </v>
   <v>       0.39285714       0.39285714       0.32142857 </v>
   <v>       0.46428571       0.39285714       0.32142857 </v>
   <v>       0.46428571       0.46428571       0.32142857 </v>
   <v>       0.03571429       0.03571429       0.39285714 </v>
   <v>       0.10714286       0.03571429       0.39285714 </v>
   <v>       0.17857143       0.03571429       0.39285714 </v>
   <v>       0.25000000       0.03571429       0.39285714 </v>
   <v>       0.32142857       0.03571429       0.39285714 </v>
   <v>       0.39285714       0.03571429       0.39285714 </v>
   <v>       0.46428571       0.03571429       0.39285714 </v>
   <v>       0.10714286       0.10714286       0.39285714 </v>
   <v>       0.17857143       0.10714286       0.39285714 </v>
   <v>       0.25000000       0.10714286       0.39285714 </v>
   <v>       0.32142857       0.10714286       0.39285714 </v>
   <v>       0.39285714       0.10714286       0.39285714 </v>
   <v>       0.46428571       0.10714286       0.39285714 </v>
   <v>       0.17857143       0.17857143       0.39285714 </v>
   <v>       0.25000000       0.17857143       0.39285714 </v>
   <v>       0.32142857       0.17857143       0.39285714 </v>
   <v>       0.39285714       0.17857143       0.39285714 </v>
   <v>       0.46428571       0.17857143       0.39285714 </v>
   <v>       0.25000000       0.25000000       0.39285714 </v>
   <v>       0.32142857       0.25000000       0.39285714 </v>
   <v>       0.39285714       0.25000000       0.39285714 </v>
   <v>       0.46428571       0.25000000       0.39285714 </v>
   <v>       0.32142857       0.32142857       0.39285714 </v>
   <v>       0.39285714       0.32142857       0.39285714 </v>
   <v>       0.46428571       0.32142857       0.39285714 </v>
   <v>       0.39285714       0.39285714       0.39285714 </v>
   <v>       0.46428571       0.39285714       0.39285714 </v>
   <v>       0.46428571       0.46428571       0.39285714 </v>
   <v>       0.03571429       0.03571429       0.46428571 </v>
   <v>       0.10714286       0.03571429       0.46428571 </v>
   <v>       0.17857143       0.03571429       0.46428571 </v>
   <v>       0.25000000       0.03571429       0.46428571 </v>
   <v>       0.32142857       0.03571429       0.46428571 </v>
   <v>       0.39285714       0.03571429       0.46428571 </v>
   <v>       0.46428571       0.03571429       0.46428571 </v>
   <v>       0.10714286       0.10714286       0.46428571 </v>
   <v>       0.17857143       0.10714286       0.46428571 </v>
   <v>       0.25000000       0.10714286       0.46428571 </v>
   <v>       0.32142857       0.10714286       0.46428571 </v>
   <v>       0.39285714       0.10714286       0.46428571 </v>
   <v>       0.46428571       0.10714286       0.46428571 </v>
   <v>       0.17857143       0.17857143       0.46428571 </v>
   <v>       0.25000000       0.17857143       0.46428571 </v>
   <v>       0.32142857       0.17857143       0.46428571 </v>
   <v>       0.39285714       0.17857143       0.46428571 </v>
   <v>       0.46428571       0.17857143       0.46428571 </v>
   <v>       0.25000000       0.25000000       0.46428571 </v>
   <v>       0.32142857       0.25000000       0.46428571 </v>
   <v>       0.39285714       0.25000000       0.46428571 </v>
   <v>       0.46428571       0.25000000       0.46428571 </v>
   <v>       0.32142857       0.32142857       0.46428571 </v>
   <v>       0.39285714       0.32142857       0.46428571 </v>
   <v>       0.46428571       0.32142857       0.46428571 </v>
   <v>       0.39285714       0.39285714       0.46428571 </v>
   <v>       0.46428571       0.39285714       0.46428571 </v>
   <v>       0.46428571       0.46428571       0.46428571 </v>
  </varray>
  <varray name="weights" >
   <v>       0.00291545 </v>
   <v>       0.00583090 </v>
   <v>       0.00583090 </v>
   <v>       0.00583090 </v>
   <v>       0.00583090 </v>
   <v>       0.00583090 </v>
   <v>       0.00583090 </v>
   <v>       0.00291545 </v>
   <v>       0.00583090 </v>
   <v>       0.00583090 </v>
   <v>       0.00583090 </v>
   <v>       0.00583090 </v>
   <v>       0.00583090 </v>
   <v>       0.00291545 </v>
   <v>       0.00583090 </v>
   <v>       0.00583090 </v>
   <v>       0.00583090 </v>
   <v>       0.00583090 </v>
   <v>       0.00291545 </v>
   <v>       0.00583090 </v>
   <v>       0.00583090 </v>
   <v>       0.00583090 </v>
   <v>       0.00291545 </v>
   <v>       0.00583090 </v>
   <v>       0.00583090 </v>
   <v>       0.00291545 </v>
   <v>       0.00583090 </v>
   <v>       0.00291545 </v>
   <v>       0.00291545 </v>
   <v>       0.00583090 </v>
   <v>       0.00583090 </v>
   <v>       0.00583090 </v>
   <v>       0.00583090 </v>
   <v>       0.00583090 </v>
   <v>       0.00583090 </v>
   <v>       0.00291545 </v>
   <v>       0.00583090 </v>
   <v>       0.00583090 </v>
   <v>       0.00583090 </v>
   <v>       0.00583090 </v>
   <v>       0.00583090 </v>
   <v>       0.00291545 </v>
   <v>       0.00583090 </v>
   <v>       0.00583090 </v>
   <v>       0.00583090 </v>
   <v>       0.00583090 </v>
   <v>       0.00291545 </v>
   <v>       0.00583090 </v>
   <v>       0.00583090 </v>
   <v>       0.00583090 </v>
   <v>       0.00291545 </v>
   <v>       0.00583090 </v>
   <v>       0.00583090 </v>
   <v>       0.00291545 </v>
   <v>       0.00583090 </v>
   <v>       0.00291545 </v>
   <v>       0.00291545 </v>
   <v>       0.00583090 </v>
   <v>       0.00583090 </v>
   <v>       0.00583090 </v>
   <v>       0.00583090 </v>
   <v>       0.00583090 </v>
   <v>       0.00583090 </v>
   <v>       0.00291545 </v>
   <v>       0.00583090 </v>
   <v>       0.00583090 </v>
   <v>       0.00583090 </v>
   <v>       0.00583090 </v>
   <v>       0.00583090 </v>
   <v>       0.00291545 </v>
   <v>       0.00583090 </v>
   <v>       0.00583090 </v>
   <v>       0.00583090 </v>
   <v>       0.00583090 </v>
   <v>       0.00291545 </v>
   <v>       0.00583090 </v>
   <v>       0.00583090 </v>
   <v>       0.00583090 </v>
   <v>       0.00291545 </v>
   <v>       0.00583090 </v>
   <v>       0.00583090 </v>
   <v>       0.00291545 </v>
   <v>       0.00583090 </v>
   <v>       0.00291545 </v>
   <v>       0.00291545 </v>
   <v>       0.00583090 </v>
   <v>       0.00583090 </v>
   <v>       0.00583090 </v>
   <v>       0.00583090 </v>
   <v>       0.00583090 </v>
   <v>       0.00583090 </v>
   <v>       0.00291545 </v>
   <v>       0.00583090 </v>
   <v>       0.00583090 </v>
   <v>       0.00583090 </v>
   <v>       0.00583090 </v>
   <v>       0.00583090 </v>
   <v>       0.00291545 </v>
   <v>       0.00583090 </v>
   <v>       0.00583090 </v>
   <v>       0.00583090 </v>
   <v>       0.00583090 </v>
   <v>       0.00291545 </v>
   <v>       0.00583090 </v>
   <v>       0.00583090 </v>
   <v>       0.00583090 </v>
   <v>       0.00291545 </v>
   <v>       0.00583090 </v>
   <v>       0.00583090 </v>
   <v>       0.00291545 </v>
   <v>       0.00583090 </v>
   <v>       0.00291545 </v>
   <v>       0.00291545 </v>
   <v>       0.00583090 </v>
   <v>       0.00583090 </v>
   <v>       0.00583090 </v>
   <v>       0.00583090 </v>
   <v>       0.00583090 </v>
   <v>       0.00583090 </v>
   <v>       0.00291545 </v>
   <v>       0.00583090 </v>
   <v>       0.00583090 </v>
   <v>       0.00583090 </v>
   <v>       0.00583090 </v>
   <v>       0.00583090 </v>
   <v>       0.00291545 </v>
   <v>       0.00583090 </v>
   <v>       0.00583090 </v>
   <v>       0.00583090 </v>
   <v>       0.00583090 </v>
   <v>       0.00291545 </v>
   <v>       0.00583090 </v>
   <v>       0.00583090 </v>
   <v>       0.00583090 </v>
   <v>       0.00291545 </v>
   <v>       0.00583090 </v>
   <v>       0.00583090 </v>
   <v>       0.00291545 </v>
   <v>       0.00583090 </v>
   <v>       0.00291545 </v>
   <v>       0.00291545 </v>
   <v>       0.00583090 </v>
   <v>       0.00583090 </v>
   <v>       0.00583090 </v>
   <v>       0.00583090 </v>
   <v>       0.00583090 </v>
   <v>       0.00583090 </v>
   <v>       0.00291545 </v>
   <v>       0.00583090 </v>
   <v>       0.00583090 </v>
   <v>       0.00583090 </v>
   <v>       0.00583090 </v>
   <v>       0.00583090 </v>
   <v>       0.00291545 </v>
   <v>       0.00583090 </v>
   <v>       0.00583090 </v>
   <v>       0.00583090 </v>
   <v>       0.00583090 </v>
   <v>       0.00291545 </v>
   <v>       0.00583090 </v>
   <v>       0.00583090 </v>
   <v>       0.00583090 </v>
   <v>       0.00291545 </v>
   <v>       0.00583090 </v>
   <v>       0.00583090 </v>
   <v>       0.00291545 </v>
   <v>       0.00583090 </v>
   <v>       0.00291545 </v>
   <v>       0.00291545 </v>
   <v>       0.00583090 </v>
   <v>       0.00583090 </v>
   <v>       0.00583090 </v>
   <v>       0.00583090 </v>
   <v>       0.00583090 </v>
   <v>       0.00583090 </v>
   <v>       0.00291545 </v>
   <v>       0.00583090 </v>
   <v>       0.00583090 </v>
   <v>       0.00583090 </v>
   <v>       0.00583090 </v>
   <v>       0.00583090 </v>
   <v>       0.00291545 </v>
   <v>       0.00583090 </v>
   <v>       0.00583090 </v>
   <v>       0.00583090 </v>
   <v>       0.00583090 </v>
   <v>       0.00291545 </v>
   <v>       0.00583090 </v>
   <v>       0.00583090 </v>
   <v>       0.00583090 </v>
   <v>       0.00291545 </v>
   <v>       0.00583090 </v>
   <v>       0.00583090 </v>
   <v>       0.00291545 </v>
   <v>       0.00583090 </v>
   <v>       0.00291545 </v>
  </varray>
 </kpoints>
 <parameters>
  <separator name="general" >
   <i type="string" name="SYSTEM">unknown system</i>
   <i type="logical" name="LCOMPAT"> F  </i>
  </separator>
  <separator name="electronic" >
   <i type="string" name="PREC">high</i>
   <i name="ENMAX">    875.00000000</i>
   <i name="ENAUG">    946.76800000</i>
   <i name="EDIFF">      0.00000001</i>
   <i type="int" name="IALGO">    38</i>
   <i type="int" name="IWAVPR">    11</i>
   <i type="int" name="NBANDS">    24</i>
   <i name="NELECT">     32.00000000</i>
   <i type="int" name="TURBO">     0</i>
   <i type="int" name="IRESTART">     0</i>
   <i type="int" name="NREBOOT">     0</i>
   <i type="int" name="NMIN">     0</i>
   <i name="EREF">      0.00000000</i>
   <separator name="electronic smearing" >
    <i type="int" name="ISMEAR">     0</i>
    <i name="SIGMA">      0.05000000</i>
    <i name="KSPACING">      0.50000000</i>
    <i type="logical" name="KGAMMA"> T  </i>
   </separator>
   <separator name="electronic projectors" >
    <i type="logical" name="LREAL"> F  </i>
    <v name="ROPT">      0.00000000</v>
    <i type="int" name="LMAXPAW">  -100</i>
    <i type="int" name="LMAXMIX">     2</i>
    <i type="logical" name="NLSPLINE"> F  </i>
   </separator>
   <separator name="electronic startup" >
    <i type="int" name="ISTART">     0</i>
    <i type="int" name="ICHARG">     2</i>
    <i type="int" name="INIWAV">     1</i>
   </separator>
   <separator name="electronic spin" >
    <i type="int" name="ISPIN">     1</i>
    <i type="logical" name="LNONCOLLINEAR"> F  </i>
    <v name="MAGMOM">      1.00000000      1.00000000      1.00000000      1.00000000      1.00000000      1.00000000      1.00000000      1.00000000</v>
    <i name="NUPDOWN">     -1.00000000</i>
    <i type="logical" name="LSORBIT"> F  </i>
    <v name="SAXIS">      0.00000000      0.00000000      1.00000000</v>
    <i type="logical" name="LSPIRAL"> F  </i>
    <v name="QSPIRAL">      0.00000000      0.00000000      0.00000000</v>
    <i type="logical" name="LZEROZ"> F  </i>
   </separator>
   <separator name="electronic exchange-correlation" >
    <i type="logical" name="LASPH"> F  </i>
    <i type="logical" name="LMETAGGA"> F  </i>
   </separator>
   <separator name="electronic convergence" >
    <i type="int" name="NELM">    40</i>
    <i type="int" name="NELMDL">    -5</i>
    <i type="int" name="NELMIN">     4</i>
    <i name="ENINI">    875.00000000</i>
    <separator name="electronic convergence detail" >
     <i type="logical" name="LDIAG"> T  </i>
     <i type="logical" name="LSUBROT"> F  </i>
     <i name="WEIMIN">      0.00100000</i>
     <i name="EBREAK">      0.00000000</i>
     <i name="DEPER">      0.30000000</i>
     <i type="int" name="NRMM">     4</i>
     <i name="TIME">      0.40000000</i>
    </separator>
   </separator>
   <separator name="electronic mixer" >
    <i name="AMIX">      0.40000000</i>
    <i name="BMIX">      1.00000000</i>
    <i name="AMIN">      0.10000000</i>
    <i name="AMIX_MAG">      1.60000000</i>
    <i name="BMIX_MAG">      1.00000000</i>
    <separator name="electronic mixer details" >
     <i type="int" name="IMIX">     4</i>
     <i type="logical" name="MIXFIRST"> F  </i>
     <i type="int" name="MAXMIX">   -45</i>
     <i name="WC">    100.00000000</i>
     <i type="int" name="INIMIX">     1</i>
     <i type="int" name="MIXPRE">     1</i>
     <i type="int" name="MREMOVE">     5</i>
    </separator>
   </separator>
   <separator name="electronic dipolcorrection" >
    <i type="logical" name="LDIPOL"> F  </i>
    <i type="logical" name="LMONO"> F  </i>
    <i type="int" name="IDIPOL">     0</i>
    <i name="EPSILON">      1.00000000</i>
    <v name="DIPOL">   -100.00000000   -100.00000000   -100.00000000</v>
    <i name="EFIELD">      0.00000000</i>
   </separator>
  </separator>
  <separator name="grids" >
   <i type="int" name="NGX">    36</i>
   <i type="int" name="NGY">    36</i>
   <i type="int" name="NGZ">    36</i>
   <i type="int" name="NGXF">    48</i>
   <i type="int" name="NGYF">    48</i>
   <i type="int" name="NGZF">    48</i>
   <i type="logical" name="ADDGRID"> T  </i>
  </separator>
  <separator name="ionic" >
   <i type="int" name="NSW">   100</i>
   <i type="int" name="IBRION">     2</i>
   <i type="int" name="MDALGO">     0</i>
   <i type="int" name="ISIF">     2</i>
   <i name="PSTRESS">      0.00000000</i>
   <i name="EDIFFG">     -0.01000000</i>
   <i type="int" name="NFREE">     1</i>
   <i name="POTIM">      0.50000000</i>
   <i name="SMASS">     -3.00000000</i>
   <i name="SCALEE">      1.00000000</i>
  </separator>
  <separator name="ionic md" >
   <i name="TEBEG">      0.00010000</i>
   <i name="TEEND">      0.00010000</i>
   <i type="int" name="NBLOCK">     1</i>
   <i type="int" name="KBLOCK">   100</i>
   <i type="int" name="NPACO">   256</i>
   <i name="APACO">     16.00000000</i>
  </separator>
  <separator name="symmetry" >
   <i type="int" name="ISYM">     2</i>
   <i name="SYMPREC">      0.00001000</i>
  </separator>
  <separator name="dos" >
   <i type="int" name="LORBIT">     0</i>
   <v name="RWIGS">     -1.00000000</v>
   <i type="int" name="NEDOS">   301</i>
   <i name="EMIN">     10.00000000</i>
   <i name="EMAX">    -10.00000000</i>
   <i name="EFERMI">      0.00000000</i>
  </separator>
  <separator name="writing" >
   <i type="int" name="NWRITE">     2</i>
   <i type="logical" name="LWAVE"> F  </i>
   <i type="logical" name="LDOWNSAMPLE"> F  </i>
   <i type="logical" name="LCHARG"> F  </i>
   <i type="logical" name="LPARD"> F  </i>
   <i type="logical" name="LVTOT"> F  </i>
   <i type="logical" name="LVHAR"> F  </i>
   <i type="logical" name="LELF"> F  </i>
   <i type="logical" name="LOPTICS"> F  </i>
   <v name="STM">      0.00000000      0.00000000      0.00000000      0.00000000      0.00000000      0.00000000      0.00000000</v>
  </separator>
  <separator name="performance" >
   <i type="int" name="NPAR">    24</i>
   <i type="int" name="NSIM">     4</i>
   <i type="int" name="NBLK">    -1</i>
   <i type="logical" name="LPLANE"> T  </i>
   <i type="logical" name="LSCALAPACK"> T  </i>
   <i type="logical" name="LSCAAWARE"> F  </i>
   <i type="logical" name="LSCALU"> F  </i>
   <i type="logical" name="LASYNC"> F  </i>
   <i type="logical" name="LORBITALREAL"> F  </i>
  </separator>
  <separator name="miscellaneous" >
   <i type="int" name="IDIOT">     3</i>
   <i type="int" name="ISPECIAL">     0</i>
   <i type="logical" name="LMUSIC"> F  </i>
   <v name="POMASS">     12.01100000</v>
   <v name="DARWINR">      0.00000000</v>
   <v name="DARWINV">      1.00000000</v>
   <i type="logical" name="LCORR"> T  </i>
  </separator>
  <i type="logical" name="GGA_COMPAT"> T  </i>
  <i type="logical" name="LBERRY"> F  </i>
  <i type="int" name="ICORELEVEL">     0</i>
  <i type="logical" name="LDAU"> F  </i>
  <i type="int" name="I_CONSTRAINED_M">     0</i>
  <separator name="electronic exchange-correlation" >
   <i type="string" name="GGA">--</i>
   <i type="int" name="VOSKOWN">     0</i>
   <i type="logical" name="LHFCALC"> F  </i>
   <i type="string" name="PRECFOCK"></i>
   <i type="logical" name="LSYMGRAD"> F  </i>
   <i type="logical" name="LHFONE"> F  </i>
   <i type="logical" name="LRHFCALC"> F  </i>
   <i type="logical" name="LTHOMAS"> F  </i>
   <i type="logical" name="LMODELHF"> F  </i>
   <i name="ENCUT4O">     -1.00000000</i>
   <i type="int" name="EXXOEP">     0</i>
   <i type="int" name="FOURORBIT">     0</i>
   <i name="AEXX">      0.00000000</i>
   <i name="HFALPHA">      0.00000000</i>
   <i name="MCALPHA">      0.00000000</i>
   <i name="ALDAX">      1.00000000</i>
   <i name="AGGAX">      1.00000000</i>
   <i name="ALDAC">      1.00000000</i>
   <i name="AGGAC">      1.00000000</i>
   <i type="int" name="NKREDX">     1</i>
   <i type="int" name="NKREDY">     1</i>
   <i type="int" name="NKREDZ">     1</i>
   <i type="logical" name="SHIFTRED"> F  </i>
   <i type="logical" name="ODDONLY"> F  </i>
   <i type="logical" name="EVENONLY"> F  </i>
   <i type="int" name="LMAXFOCK">     0</i>
   <i type="int" name="NMAXFOCKAE">     0</i>
   <i type="logical" name="LFOCKAEDFT"> F  </i>
   <i name="HFSCREEN">      0.00000000</i>
   <i name="HFSCREENC">      0.00000000</i>
   <i type="int" name="NBANDSGWLOW">     0</i>
  </separator>
  <separator name="vdW DFT" >
   <i type="logical" name="LUSE_VDW"> F  </i>
   <i name="Zab_VDW">     -0.84910000</i>
   <i name="PARAM1">      0.12340000</i>
   <i name="PARAM2">      1.00000000</i>
   <i name="PARAM3">      0.00000000</i>
  </separator>
  <separator name="model GW" >
   <i type="int" name="MODEL_GW">     0</i>
   <i name="MODEL_EPS0">      3.35468170</i>
   <i name="MODEL_ALPHA">      1.00000000</i>
  </separator>
  <separator name="linear response parameters" >
   <i type="logical" name="LEPSILON"> F  </i>
   <i type="logical" name="LRPA"> F  </i>
   <i type="logical" name="LNABLA"> F  </i>
   <i type="logical" name="LVEL"> F  </i>
   <i type="int" name="KINTER">     0</i>
   <i name="CSHIFT">      0.10000000</i>
   <i name="OMEGAMAX">     -1.00000000</i>
   <i name="DEG_THRESHOLD">      0.00200000</i>
   <i name="RTIME">     -0.10000000</i>
   <i name="WPLASMAI">      0.00000000</i>
   <v name="DFIELD">      0.00000000      0.00000000      0.00000000</v>
   <v name="WPLASMA">      0.00000000      0.00000000      0.00000000      0.00000000      0.00000000      0.00000000      0.00000000      0.00000000      0.00000000</v>
  </separator>
  <separator name="orbital magnetization" >
   <i type="logical" name="NUCIND"> F  </i>
   <v name="MAGPOS">      0.00000000      0.00000000      0.00000000</v>
   <i type="logical" name="LNICSALL"> T  </i>
   <i type="logical" name="ORBITALMAG"> F  </i>
   <i type="logical" name="LMAGBLOCH"> F  </i>
   <i type="logical" name="LCHIMAG"> F  </i>
   <i type="logical" name="LGAUGE"> T  </i>
   <i type="int" name="MAGATOM">     0</i>
   <v name="MAGDIPOL">      0.00000000      0.00000000      0.00000000</v>
   <v name="AVECCONST">      0.00000000      0.00000000      0.00000000</v>
  </separator>
  <separator name="response functions" >
   <i type="logical" name="LADDER"> F  </i>
   <i type="logical" name="LRPAFORCE"> F  </i>
   <i type="logical" name="LFXC"> F  </i>
   <i type="logical" name="LHARTREE"> T  </i>
   <i type="int" name="IBSE">     0</i>
   <v type="int" name="KPOINT">    -1     0     0     0</v>
   <i type="logical" name="LTCTE"> F  </i>
   <i type="logical" name="LTETE"> F  </i>
   <i type="logical" name="LTRIPLET"> F  </i>
   <i type="logical" name="LFXCEPS"> F  </i>
   <i type="logical" name="LFXHEG"> F  </i>
   <i type="int" name="NATURALO">     2</i>
   <i type="logical" name="L2ORDER"> F  </i>
   <i type="logical" name="LMP2LT"> F  </i>
   <i type="logical" name="LUSEW"> F  </i>
   <i name="ENCUTGW">     -2.00000000</i>
   <i name="ENCUTGWSOFT">     -2.00000000</i>
   <i name="ENCUTLF">     -1.00000000</i>
   <i type="int" name="LMAXMP2">    -1</i>
   <i name="SCISSOR">      0.00000000</i>
   <i type="int" name="NOMEGA">     0</i>
   <i type="int" name="NOMEGAR">     0</i>
   <i type="int" name="NBANDSGW">    -1</i>
   <i type="int" name="NBANDSO">    -1</i>
   <i type="int" name="NBANDSV">    -1</i>
   <i type="int" name="NELM">    40</i>
   <i type="int" name="NELMHF">     1</i>
   <i type="int" name="DIM">     3</i>
   <i type="int" name="ANTIRES">     0</i>
   <i name="OMEGAMAX">    -30.00000000</i>
   <i name="OMEGAMIN">    -30.00000000</i>
   <i name="OMEGATL">   -200.00000000</i>
   <i type="int" name="OMEGAGRID">   140</i>
   <i name="CSHIFT">     -0.10000000</i>
   <i type="logical" name="SELFENERGY"> F  </i>
   <i type="logical" name="LSPECTRAL"> F  </i>
   <i type="logical" name="LSPECTRALGW"> F  </i>
   <i type="logical" name="LSINGLES"> F  </i>
   <i type="logical" name="LFERMIGW"> F  </i>
   <i type="logical" name="ODDONLYGW"> F  </i>
   <i type="logical" name="EVENONLYGW"> F  </i>
   <i type="int" name="NKREDLFX">     1</i>
   <i type="int" name="NKREDLFY">     1</i>
   <i type="int" name="NKREDLFZ">     1</i>
   <i type="int" name="MAXMEM">  2800</i>
   <i type="int" name="TELESCOPE">     0</i>
   <i type="int" name="TAUPAR">     1</i>
   <i type="int" name="OMEGAPAR">    -1</i>
   <i name="LAMBDA">      1.00000000</i>
  </separator>
  <separator name="External order field" >
   <i name="OFIELD_KAPPA">      0.00000000</i>
   <v name="OFIELD_K">      0.00000000      0.00000000      0.00000000</v>
   <i name="OFIELD_Q6_NEAR">      0.00000000</i>
   <i name="OFIELD_Q6_FAR">      0.00000000</i>
   <i name="OFIELD_A">      0.00000000</i>
  </separator>
 </parameters>
 <atominfo>
  <atoms>       8 </atoms>
  <types>       1 </types>
  <array name="atoms" >
   <dimension dim="1">ion</dimension>
   <field type="string">element</field>
   <field type="int">atomtype</field>
   <set>
    <rc><c>C </c><c>   1</c></rc>
    <rc><c>C </c><c>   1</c></rc>
    <rc><c>C </c><c>   1</c></rc>
    <rc><c>C </c><c>   1</c></rc>
    <rc><c>C </c><c>   1</c></rc>
    <rc><c>C </c><c>   1</c></rc>
    <rc><c>C </c><c>   1</c></rc>
    <rc><c>C </c><c>   1</c></rc>
   </set>
  </array>
  <array name="atomtypes" >
   <dimension dim="1">type</dimension>
   <field type="int">atomspertype</field>
   <field type="string">element</field>
   <field>mass</field>
   <field>valence</field>
   <field type="string">pseudopotential</field>
   <set>
    <rc><c>   8</c><c>C </c><c>     12.01100000</c><c>      4.00000000</c><c>  PAW_PBE C_h 06Feb2004                 </c></rc>
   </set>
  </array>
 </atominfo>
 <structure name="initialpos" >
  <crystal>
   <varray name="basis" >
    <v>       3.53786902       0.00000000       0.00000000 </v>
    <v>       0.00000000       3.53786902       0.00000000 </v>
    <v>       0.00000000       0.00000000       3.57360507 </v>
   </varray>
   <i name="volume">     44.72908935 </i>
   <varray name="rec_basis" >
    <v>       0.28265603       0.00000000       0.00000000 </v>
    <v>       0.00000000       0.28265603       0.00000000 </v>
    <v>       0.00000000       0.00000000       0.27982947 </v>
   </varray>
  </crystal>
  <varray name="positions" >
   <v>       0.25000000       0.25000000       0.25000000 </v>
   <v>       0.00000000       0.00000000       0.00000000 </v>
   <v>       0.25000000       0.75000000       0.75000000 </v>
   <v>       0.00000000       0.50000000       0.50000000 </v>
   <v>       0.75000000       0.25000000       0.75000000 </v>
   <v>       0.50000000       0.00000000       0.50000000 </v>
   <v>       0.75000000       0.75000000       0.25000000 </v>
   <v>       0.50000000       0.50000000       0.00000000 </v>
  </varray>
 </structure>
 <calculation>
  <scstep>
   <time name="dav">    3.09    3.22</time>
   <time name="total">    3.13    3.30</time>
   <energy>
    <i name="alphaZ">     78.43950473 </i>
    <i name="ewald">  -1398.54607793 </i>
    <i name="hartreedc">    -68.71812438 </i>
    <i name="XCdc">     62.54983979 </i>
    <i name="pawpsdc">    914.77613359 </i>
    <i name="pawaedc">   -872.73161751 </i>
    <i name="eentropy">     -0.00129174 </i>
    <i name="bandstr">    206.90385394 </i>
    <i name="atom">   1177.21277265 </i>
    <i name="e_fr_energy">     99.88499315 </i>
    <i name="e_wo_entrp">     99.88628489 </i>
    <i name="e_0_energy">     99.88563902 </i>
   </energy>
  </scstep>
  <scstep>
   <time name="dav">    5.29    5.33</time>
   <time name="total">    5.30    5.33</time>
   <energy>
    <i name="e_fr_energy">    -72.67573118 </i>
    <i name="e_wo_entrp">    -72.67573118 </i>
    <i name="e_0_energy">    -72.67573118 </i>
   </energy>
  </scstep>
  <scstep>
   <time name="dav">    3.57    3.59</time>
   <time name="total">    3.57    3.59</time>
   <energy>
    <i name="e_fr_energy">    -75.38731865 </i>
    <i name="e_wo_entrp">    -75.38731865 </i>
    <i name="e_0_energy">    -75.38731865 </i>
   </energy>
  </scstep>
  <scstep>
   <time name="dav">    6.63    6.65</time>
   <time name="total">    6.63    6.65</time>
   <energy>
    <i name="e_fr_energy">    -75.40606845 </i>
    <i name="e_wo_entrp">    -75.40606845 </i>
    <i name="e_0_energy">    -75.40606845 </i>
   </energy>
  </scstep>
  <scstep>
   <time name="dav">    3.57    3.59</time>
   <time name="total">    3.73    3.79</time>
   <energy>
    <i name="e_fr_energy">    -75.40607129 </i>
    <i name="e_wo_entrp">    -75.40607129 </i>
    <i name="e_0_energy">    -75.40607129 </i>
   </energy>
  </scstep>
  <scstep>
   <time name="dav">    3.67    3.68</time>
   <time name="total">    3.84    3.87</time>
   <energy>
    <i name="e_fr_energy">    -73.46584665 </i>
    <i name="e_wo_entrp">    -73.46584665 </i>
    <i name="e_0_energy">    -73.46584665 </i>
   </energy>
  </scstep>
  <scstep>
   <time name="dav">    4.82    4.83</time>
   <time name="total">    4.99    5.01</time>
   <energy>
    <i name="e_fr_energy">    -72.81614717 </i>
    <i name="e_wo_entrp">    -72.81614717 </i>
    <i name="e_0_energy">    -72.81614717 </i>
   </energy>
  </scstep>
  <scstep>
   <time name="dav">    5.32    5.33</time>
   <time name="total">    5.48    5.50</time>
   <energy>
    <i name="e_fr_energy">    -72.81416052 </i>
    <i name="e_wo_entrp">    -72.81416052 </i>
    <i name="e_0_energy">    -72.81416052 </i>
   </energy>
  </scstep>
  <scstep>
   <time name="dav">    5.17    5.18</time>
   <time name="total">    5.33    5.35</time>
   <energy>
    <i name="e_fr_energy">    -72.81432656 </i>
    <i name="e_wo_entrp">    -72.81432656 </i>
    <i name="e_0_energy">    -72.81432656 </i>
   </energy>
  </scstep>
  <scstep>
   <time name="dav">    5.11    5.12</time>
   <time name="total">    5.27    5.30</time>
   <energy>
    <i name="e_fr_energy">    -72.81444707 </i>
    <i name="e_wo_entrp">    -72.81444707 </i>
    <i name="e_0_energy">    -72.81444707 </i>
   </energy>
  </scstep>
  <scstep>
   <time name="dav">    5.47    5.49</time>
   <time name="total">    5.63    5.66</time>
   <energy>
    <i name="e_fr_energy">    -72.81444832 </i>
    <i name="e_wo_entrp">    -72.81444832 </i>
    <i name="e_0_energy">    -72.81444832 </i>
   </energy>
  </scstep>
  <scstep>
   <time name="dav">    5.06    5.07</time>
   <time name="total">    5.22    5.25</time>
   <energy>
    <i name="e_fr_energy">    -72.81444866 </i>
    <i name="e_wo_entrp">    -72.81444866 </i>
    <i name="e_0_energy">    -72.81444866 </i>
   </energy>
  </scstep>
  <scstep>
   <time name="dav">    5.39    5.40</time>
   <time name="total">    5.40    5.42</time>
   <energy>
    <i name="alphaZ">     78.43950473 </i>
    <i name="ewald">  -1398.54607793 </i>
    <i name="hartreedc">   -104.43588294 </i>
    <i name="XCdc">     65.63177053 </i>
    <i name="pawpsdc">  15214.46077710 </i>
    <i name="pawaedc"> -15172.97583272 </i>
    <i name="eentropy">     -0.00000000 </i>
    <i name="bandstr">     67.39851991 </i>
    <i name="atom">   1177.21277265 </i>
    <i name="e_fr_energy">    -72.81444867 </i>
    <i name="e_wo_entrp">    -72.81444867 </i>
    <i name="e_0_energy">    -72.81444867 </i>
   </energy>
  </scstep>
  <structure>
   <crystal>
    <varray name="basis" >
     <v>       3.53786902       0.00000000       0.00000000 </v>
     <v>       0.00000000       3.53786902       0.00000000 </v>
     <v>       0.00000000       0.00000000       3.57360507 </v>
    </varray>
    <i name="volume">     44.72908935 </i>
    <varray name="rec_basis" >
     <v>       0.28265603       0.00000000       0.00000000 </v>
     <v>       0.00000000       0.28265603       0.00000000 </v>
     <v>       0.00000000       0.00000000       0.27982947 </v>
    </varray>
   </crystal>
   <varray name="positions" >
    <v>       0.25000000       0.25000000       0.25000000 </v>
    <v>       0.00000000       0.00000000       0.00000000 </v>
    <v>       0.25000000       0.75000000       0.75000000 </v>
    <v>       0.00000000       0.50000000       0.50000000 </v>
    <v>       0.75000000       0.25000000       0.75000000 </v>
    <v>       0.50000000       0.00000000       0.50000000 </v>
    <v>       0.75000000       0.75000000       0.25000000 </v>
    <v>       0.50000000       0.50000000       0.00000000 </v>
   </varray>
  </structure>
  <varray name="forces" >
   <v>       0.00000000       0.00000000       0.00000000 </v>
   <v>      -0.00000000      -0.00000000      -0.00000000 </v>
   <v>       0.00000000       0.00000000      -0.00000000 </v>
   <v>       0.00000000      -0.00000000      -0.00000000 </v>
   <v>      -0.00000000       0.00000000      -0.00000000 </v>
   <v>      -0.00000000      -0.00000000       0.00000000 </v>
   <v>       0.00000000       0.00000000       0.00000000 </v>
   <v>      -0.00000000      -0.00000000      -0.00000000 </v>
  </varray>
  <varray name="stress" >
   <v>     108.07569574       0.00000000       0.00000000 </v>
   <v>       0.00000000     108.07569574       0.00000000 </v>
   <v>       0.00000000       0.00000000      12.01149517 </v>
  </varray>
  <energy>
   <i name="e_fr_energy">    -72.81444867 </i>
   <i name="e_wo_entrp">    -72.81444867 </i>
   <i name="e_0_energy">     -0.00000000 </i>
  </energy>
  <time name="totalsc">   67.03   67.62</time>
  <eigenvalues>
   <array>
    <dimension dim="1">band</dimension>
    <dimension dim="2">kpoint</dimension>
    <dimension dim="3">spin</dimension>
    <field>eigene</field>
    <field>occ</field>
    <set>
     <set comment="spin 1">
      <set comment="kpoint 1">
       <r>  -10.4646    1.0000 </r>
       <r>   -2.3524    1.0000 </r>
       <r>   -2.2033    1.0000 </r>
       <r>   -2.2033    1.0000 </r>
       <r>   -1.2099    1.0000 </r>
       <r>   -1.0454    1.0000 </r>
       <r>   -1.0454    1.0000 </r>
       <r>    4.6206    1.0000 </r>
       <r>    4.6206    1.0000 </r>
       <r>    4.7655    1.0000 </r>
       <r>    4.7655    1.0000 </r>
       <r>    4.7672    1.0000 </r>
       <r>    4.9156    1.0000 </r>
       <r>   10.8795    1.0000 </r>
       <r>   11.0783    1.0000 </r>
       <r>   11.1531    1.0000 </r>
       <r>   15.8016    0.0000 </r>
       <r>   15.8016    0.0000 </r>
       <r>   16.0426    0.0000 </r>
       <r>   16.1883    0.0000 </r>
       <r>   16.1883    0.0000 </r>
       <r>   16.4225    0.0000 </r>
       <r>   16.8523    0.0000 </r>
       <r>   16.8883    0.0000 </r>
      </set>
      <set comment="kpoint 2">
       <r>  -10.3689    1.0000 </r>
       <r>   -3.3120    1.0000 </r>
       <r>   -2.2843    1.0000 </r>
       <r>   -2.1376    1.0000 </r>
       <r>   -1.1539    1.0000 </r>
       <r>   -0.9935    1.0000 </r>
       <r>    0.1486    1.0000 </r>
       <r>    4.2885    1.0000 </r>
       <r>    4.4296    1.0000 </r>
       <r>    4.6968    1.0000 </r>
       <r>    4.7174    1.0000 </r>
       <r>    4.8478    1.0000 </r>
       <r>    4.8589    1.0000 </r>
       <r>   10.4318    1.0000 </r>
       <r>   10.7135    1.0000 </r>
       <r>   11.0218    1.0000 </r>
       <r>   15.5664    0.0000 </r>
       <r>   16.0969    0.0000 </r>
       <r>   16.3331    0.0000 </r>
       <r>   16.6474    0.0000 </r>
       <r>   16.6612    0.0000 </r>
       <r>   16.7822    0.0000 </r>
       <r>   16.8976    0.0000 </r>
       <r>   17.3098    0.0000 </r>
      </set>
      <set comment="kpoint 3">
       <r>  -10.1776    1.0000 </r>
       <r>   -4.3610    1.0000 </r>
       <r>   -2.1523    1.0000 </r>
       <r>   -2.0112    1.0000 </r>
       <r>   -1.0481    1.0000 </r>
       <r>   -0.8970    1.0000 </r>
       <r>    1.3630    1.0000 </r>
       <r>    3.8378    1.0000 </r>
       <r>    3.9697    1.0000 </r>
       <r>    4.4445    1.0000 </r>
       <r>    4.5932    1.0000 </r>
       <r>    4.9110    1.0000 </r>
       <r>    5.0451    1.0000 </r>
       <r>    9.7905    1.0000 </r>
       <r>   10.1063    1.0000 </r>
       <r>   10.6460    1.0000 </r>
       <r>   15.4197    0.0000 </r>
       <r>   16.6389    0.0000 </r>
       <r>   16.7223    0.0000 </r>
       <r>   16.9533    0.0000 </r>
       <r>   17.2419    0.0000 </r>
       <r>   17.4751    0.0000 </r>
       <r>   17.7118    0.0000 </r>
       <r>   18.0493    0.0000 </r>
      </set>
      <set comment="kpoint 4">
       <r>   -9.8914    1.0000 </r>
       <r>   -5.3419    1.0000 </r>
       <r>   -1.9663    1.0000 </r>
       <r>   -1.8353    1.0000 </r>
       <r>   -0.9071    1.0000 </r>
       <r>   -0.7727    1.0000 </r>
       <r>    2.5785    1.0000 </r>
       <r>    3.3503    1.0000 </r>
       <r>    3.4669    1.0000 </r>
       <r>    4.0796    1.0000 </r>
       <r>    4.2201    1.0000 </r>
       <r>    5.2029    1.0000 </r>
       <r>    5.3230    1.0000 </r>
       <r>    9.0603    1.0000 </r>
       <r>    9.3938    1.0000 </r>
       <r>   10.0654    1.0000 </r>
       <r>   15.3592    0.0000 </r>
       <r>   16.4473    0.0000 </r>
       <r>   17.6312    0.0000 </r>
       <r>   17.8571    0.0000 </r>
       <r>   17.9727    0.0000 </r>
       <r>   18.5270    0.0000 </r>
       <r>   18.7619    0.0000 </r>
       <r>   18.9705    0.0000 </r>
      </set>
      <set comment="kpoint 5">
       <r>   -9.5110    1.0000 </r>
       <r>   -6.2482    1.0000 </r>
       <r>   -1.7452    1.0000 </r>
       <r>   -1.6319    1.0000 </r>
       <r>   -0.7558    1.0000 </r>
       <r>   -0.6490    1.0000 </r>
       <r>    2.9062    1.0000 </r>
       <r>    2.9983    1.0000 </r>
       <r>    3.6871    1.0000 </r>
       <r>    3.7705    1.0000 </r>
       <r>    3.8096    1.0000 </r>
       <r>    5.5965    1.0000 </r>
       <r>    5.6905    1.0000 </r>
       <r>    8.3025    1.0000 </r>
       <r>    8.6573    1.0000 </r>
       <r>    9.3301    1.0000 </r>
       <r>   15.3762    0.0000 </r>
       <r>   16.2276    0.0000 </r>
       <r>   18.7461    0.0000 </r>
       <r>   18.8435    0.0000 </r>
       <r>   18.9656    0.0000 </r>
       <r>   19.7321    0.0000 </r>
       <r>   19.9613    0.0000 </r>
       <r>   19.9933    0.0000 </r>
      </set>
      <set comment="kpoint 6">
       <r>   -9.0373    1.0000 </r>
       <r>   -7.0745    1.0000 </r>
       <r>   -1.5237    1.0000 </r>
       <r>   -1.4416    1.0000 </r>
       <r>   -0.6290    1.0000 </r>
       <r>   -0.5618    1.0000 </r>
       <r>    2.5783    1.0000 </r>
       <r>    2.6356    1.0000 </r>
       <r>    3.3548    1.0000 </r>
       <r>    3.4437    1.0000 </r>
       <r>    4.9021    1.0000 </r>
       <r>    6.1000    1.0000 </r>
       <r>    6.1494    1.0000 </r>
       <r>    7.5442    1.0000 </r>
       <r>    7.9418    1.0000 </r>
       <r>    8.4871    1.0000 </r>
       <r>   15.4606    0.0000 </r>
       <r>   16.0010    0.0000 </r>
       <r>   19.8503    0.0000 </r>
       <r>   19.9788    0.0000 </r>
       <r>   20.1855    0.0000 </r>
       <r>   20.9923    0.0000 </r>
       <r>   21.0691    0.0000 </r>
       <r>   21.3281    0.0000 </r>
      </set>
      <set comment="kpoint 7">
       <r>   -8.4720    1.0000 </r>
       <r>   -7.8169    1.0000 </r>
       <r>   -1.3618    1.0000 </r>
       <r>   -1.3304    1.0000 </r>
       <r>   -0.5549    1.0000 </r>
       <r>   -0.5330    1.0000 </r>
       <r>    2.4160    1.0000 </r>
       <r>    2.4347    1.0000 </r>
       <r>    3.1732    1.0000 </r>
       <r>    3.2068    1.0000 </r>
       <r>    5.9162    1.0000 </r>
       <r>    6.6645    1.0000 </r>
       <r>    6.7733    1.0000 </r>
       <r>    6.7775    1.0000 </r>
       <r>    7.2729    1.0000 </r>
       <r>    7.5991    1.0000 </r>
       <r>   15.6016    0.0000 </r>
       <r>   15.7866    0.0000 </r>
       <r>   20.9735    0.0000 </r>
       <r>   21.1702    0.0000 </r>
       <r>   21.3187    0.0000 </r>
       <r>   22.0187    0.0000 </r>
       <r>   22.1038    0.0000 </r>
       <r>   22.1605    0.0000 </r>
      </set>
      <set comment="kpoint 8">
       <r>  -10.2732    1.0000 </r>
       <r>   -3.2369    1.0000 </r>
       <r>   -3.2369    1.0000 </r>
       <r>   -2.2215    1.0000 </r>
       <r>   -1.1015    1.0000 </r>
       <r>    0.1774    1.0000 </r>
       <r>    0.1774    1.0000 </r>
       <r>    3.8879    1.0000 </r>
       <r>    4.3936    1.0000 </r>
       <r>    4.3936    1.0000 </r>
       <r>    4.7959    1.0000 </r>
       <r>    4.7959    1.0000 </r>
       <r>    5.0748    1.0000 </r>
       <r>    9.8959    1.0000 </r>
       <r>   10.3913    1.0000 </r>
       <r>   11.0446    1.0000 </r>
       <r>   15.9218    0.0000 </r>
       <r>   15.9218    0.0000 </r>
       <r>   16.2863    0.0000 </r>
       <r>   17.0398    0.0000 </r>
       <r>   17.0562    0.0000 </r>
       <r>   17.0562    0.0000 </r>
       <r>   17.3986    0.0000 </r>
       <r>   17.6266    0.0000 </r>
      </set>
      <set comment="kpoint 9">
       <r>  -10.0822    1.0000 </r>
       <r>   -4.2797    1.0000 </r>
       <r>   -3.0896    1.0000 </r>
       <r>   -2.1033    1.0000 </r>
       <r>   -1.0036    1.0000 </r>
       <r>    0.2221    1.0000 </r>
       <r>    1.3537    1.0000 </r>
       <r>    3.3026    1.0000 </r>
       <r>    3.9531    1.0000 </r>
       <r>    4.5644    1.0000 </r>
       <r>    4.6052    1.0000 </r>
       <r>    4.9967    1.0000 </r>
       <r>    5.0863    1.0000 </r>
       <r>    9.2021    1.0000 </r>
       <r>    9.8166    1.0000 </r>
       <r>   10.8282    1.0000 </r>
       <r>   15.7960    0.0000 </r>
       <r>   16.6016    0.0000 </r>
       <r>   16.6037    0.0000 </r>
       <r>   16.9966    0.0000 </r>
       <r>   17.6215    0.0000 </r>
       <r>   17.8072    0.0000 </r>
       <r>   18.0371    0.0000 </r>
       <r>   18.4039    0.0000 </r>
      </set>
      <set comment="kpoint 10">
       <r>   -9.7963    1.0000 </r>
       <r>   -5.2564    1.0000 </r>
       <r>   -2.8768    1.0000 </r>
       <r>   -1.9485    1.0000 </r>
       <r>   -0.8733    1.0000 </r>
       <r>    0.2539    1.0000 </r>
       <r>    2.5036    1.0000 </r>
       <r>    2.7552    1.0000 </r>
       <r>    3.4720    1.0000 </r>
       <r>    4.2472    1.0000 </r>
       <r>    4.9120    1.0000 </r>
       <r>    4.9251    1.0000 </r>
       <r>    5.3076    1.0000 </r>
       <r>    8.4454    1.0000 </r>
       <r>    9.1293    1.0000 </r>
       <r>   10.3644    1.0000 </r>
       <r>   15.7464    0.0000 </r>
       <r>   16.8241    0.0000 </r>
       <r>   17.2715    0.0000 </r>
       <r>   17.5473    0.0000 </r>
       <r>   18.3293    0.0000 </r>
       <r>   18.8078    0.0000 </r>
       <r>   18.9441    0.0000 </r>
       <r>   19.2106    0.0000 </r>
      </set>
      <set comment="kpoint 11">
       <r>   -9.4163    1.0000 </r>
       <r>   -6.1597    1.0000 </r>
       <r>   -2.6108    1.0000 </r>
       <r>   -1.7980    1.0000 </r>
       <r>   -0.7245    1.0000 </r>
       <r>    0.2303    1.0000 </r>
       <r>    2.3282    1.0000 </r>
       <r>    3.0128    1.0000 </r>
       <r>    3.5828    1.0000 </r>
       <r>    3.9499    1.0000 </r>
       <r>    4.6194    1.0000 </r>
       <r>    5.3493    1.0000 </r>
       <r>    5.7520    1.0000 </r>
       <r>    7.6731    1.0000 </r>
       <r>    8.4103    1.0000 </r>
       <r>    9.7075    1.0000 </r>
       <r>   15.7695    0.0000 </r>
       <r>   16.6138    0.0000 </r>
       <r>   18.2155    0.0000 </r>
       <r>   18.6873    0.0000 </r>
       <r>   19.1776    0.0000 </r>
       <r>   19.9600    0.0000 </r>
       <r>   19.9667    0.0000 </r>
       <r>   20.1453    0.0000 </r>
      </set>
      <set comment="kpoint 12">
       <r>   -8.9432    1.0000 </r>
       <r>   -6.9840    1.0000 </r>
       <r>   -2.3135    1.0000 </r>
       <r>   -1.7259    1.0000 </r>
       <r>   -0.5532    1.0000 </r>
       <r>    0.1129    1.0000 </r>
       <r>    2.0976    1.0000 </r>
       <r>    2.6108    1.0000 </r>
       <r>    3.7800    1.0000 </r>
       <r>    4.2865    1.0000 </r>
       <r>    4.5446    1.0000 </r>
       <r>    5.8555    1.0000 </r>
       <r>    6.3713    1.0000 </r>
       <r>    6.9081    1.0000 </r>
       <r>    7.7046    1.0000 </r>
       <r>    8.9145    1.0000 </r>
       <r>   15.8570    0.0000 </r>
       <r>   16.3930    0.0000 </r>
       <r>   19.3404    0.0000 </r>
       <r>   19.9404    0.0000 </r>
       <r>   20.1611    0.0000 </r>
       <r>   21.0486    0.0000 </r>
       <r>   21.1130    0.0000 </r>
       <r>   21.1529    0.0000 </r>
      </set>
      <set comment="kpoint 13">
       <r>   -8.3788    1.0000 </r>
       <r>   -7.7248    1.0000 </r>
       <r>   -2.0238    1.0000 </r>
       <r>   -1.8044    1.0000 </r>
       <r>   -0.3376    1.0000 </r>
       <r>   -0.0945    1.0000 </r>
       <r>    2.0967    1.0000 </r>
       <r>    2.2897    1.0000 </r>
       <r>    3.7988    1.0000 </r>
       <r>    3.9887    1.0000 </r>
       <r>    5.3834    1.0000 </r>
       <r>    6.1528    1.0000 </r>
       <r>    6.4195    1.0000 </r>
       <r>    7.0368    1.0000 </r>
       <r>    7.1634    1.0000 </r>
       <r>    8.0431    1.0000 </r>
       <r>   15.9987    0.0000 </r>
       <r>   16.1822    0.0000 </r>
       <r>   20.5092    0.0000 </r>
       <r>   21.0606    0.0000 </r>
       <r>   21.2593    0.0000 </r>
       <r>   21.7540    0.0000 </r>
       <r>   22.1541    0.0000 </r>
       <r>   22.1953    0.0000 </r>
      </set>
      <set comment="kpoint 14">
       <r>   -9.8916    1.0000 </r>
       <r>   -4.1191    1.0000 </r>
       <r>   -4.1191    1.0000 </r>
       <r>   -2.0215    1.0000 </r>
       <r>   -0.9205    1.0000 </r>
       <r>    1.3141    1.0000 </r>
       <r>    1.3141    1.0000 </r>
       <r>    2.6709    1.0000 </r>
       <r>    4.1823    1.0000 </r>
       <r>    4.1823    1.0000 </r>
       <r>    4.8179    1.0000 </r>
       <r>    4.8179    1.0000 </r>
       <r>    5.3879    1.0000 </r>
       <r>    8.4791    1.0000 </r>
       <r>    9.2727    1.0000 </r>
       <r>   10.8155    1.0000 </r>
       <r>   16.5037    0.0000 </r>
       <r>   16.5037    0.0000 </r>
       <r>   16.6043    0.0000 </r>
       <r>   17.4132    0.0000 </r>
       <r>   18.2188    0.0000 </r>
       <r>   18.3275    0.0000 </r>
       <r>   18.3275    0.0000 </r>
       <r>   18.7710    0.0000 </r>
      </set>
      <set comment="kpoint 15">
       <r>   -9.6063    1.0000 </r>
       <r>   -5.0867    1.0000 </r>
       <r>   -3.8832    1.0000 </r>
       <r>   -1.9492    1.0000 </r>
       <r>   -0.8032    1.0000 </r>
       <r>    1.2062    1.0000 </r>
       <r>    2.1619    1.0000 </r>
       <r>    2.3314    1.0000 </r>
       <r>    3.7037    1.0000 </r>
       <r>    4.5168    1.0000 </r>
       <r>    4.6109    1.0000 </r>
       <r>    5.2355    1.0000 </r>
       <r>    5.4746    1.0000 </r>
       <r>    7.7123    1.0000 </r>
       <r>    8.6115    1.0000 </r>
       <r>   10.5328    1.0000 </r>
       <r>   16.4683    0.0000 </r>
       <r>   16.9844    0.0000 </r>
       <r>   17.4393    0.0000 </r>
       <r>   17.4733    0.0000 </r>
       <r>   18.9429    0.0000 </r>
       <r>   18.9949    0.0000 </r>
       <r>   19.2746    0.0000 </r>
       <r>   19.3252    0.0000 </r>
      </set>
      <set comment="kpoint 16">
       <r>   -9.2272    1.0000 </r>
       <r>   -5.9838    1.0000 </r>
       <r>   -3.5796    1.0000 </r>
       <r>   -1.9637    1.0000 </r>
       <r>   -0.6378    1.0000 </r>
       <r>    0.9950    1.0000 </r>
       <r>    1.8596    1.0000 </r>
       <r>    3.2118    1.0000 </r>
       <r>    3.2322    1.0000 </r>
       <r>    4.4860    1.0000 </r>
       <r>    4.9360    1.0000 </r>
       <r>    5.3764    1.0000 </r>
       <r>    5.8512    1.0000 </r>
       <r>    6.9416    1.0000 </r>
       <r>    7.9133    1.0000 </r>
       <r>   10.0069    1.0000 </r>
       <r>   16.4979    0.0000 </r>
       <r>   17.2860    0.0000 </r>
       <r>   17.7032    0.0000 </r>
       <r>   18.6308    0.0000 </r>
       <r>   19.8013    0.0000 </r>
       <r>   19.9339    0.0000 </r>
       <r>   20.0344    0.0000 </r>
       <r>   20.3473    0.0000 </r>
      </set>
      <set comment="kpoint 17">
       <r>   -8.7554    1.0000 </r>
       <r>   -6.8035    1.0000 </r>
       <r>   -3.2214    1.0000 </r>
       <r>   -2.1347    1.0000 </r>
       <r>   -0.3930    1.0000 </r>
       <r>    0.6816    1.0000 </r>
       <r>    1.8084    1.0000 </r>
       <r>    2.7359    1.0000 </r>
       <r>    4.0201    1.0000 </r>
       <r>    4.5048    1.0000 </r>
       <r>    5.1592    1.0000 </r>
       <r>    5.4215    1.0000 </r>
       <r>    6.1877    1.0000 </r>
       <r>    6.6484    1.0000 </r>
       <r>    7.2242    1.0000 </r>
       <r>    9.2934    1.0000 </r>
       <r>   16.5863    0.0000 </r>
       <r>   17.0924    0.0000 </r>
       <r>   18.6770    0.0000 </r>
       <r>   19.8974    0.0000 </r>
       <r>   20.7378    0.0000 </r>
       <r>   20.8520    0.0000 </r>
       <r>   21.0200    0.0000 </r>
       <r>   21.2512    0.0000 </r>
      </set>
      <set comment="kpoint 18">
       <r>   -8.1927    1.0000 </r>
       <r>   -7.5411    1.0000 </r>
       <r>   -2.8310    1.0000 </r>
       <r>   -2.4477    1.0000 </r>
       <r>   -0.0661    1.0000 </r>
       <r>    0.3090    1.0000 </r>
       <r>    1.9804    1.0000 </r>
       <r>    2.3100    1.0000 </r>
       <r>    4.6582    1.0000 </r>
       <r>    4.7449    1.0000 </r>
       <r>    4.8970    1.0000 </r>
       <r>    5.4580    1.0000 </r>
       <r>    5.9672    1.0000 </r>
       <r>    6.5705    1.0000 </r>
       <r>    7.5460    1.0000 </r>
       <r>    8.4524    1.0000 </r>
       <r>   16.7239    0.0000 </r>
       <r>   16.8977    0.0000 </r>
       <r>   19.7911    0.0000 </r>
       <r>   20.7516    0.0000 </r>
       <r>   21.4574    0.0000 </r>
       <r>   21.7339    0.0000 </r>
       <r>   21.7731    0.0000 </r>
       <r>   22.1406    0.0000 </r>
      </set>
      <set comment="kpoint 19">
       <r>   -9.3220    1.0000 </r>
       <r>   -4.8356    1.0000 </r>
       <r>   -4.8356    1.0000 </r>
       <r>   -2.0442    1.0000 </r>
       <r>   -0.6772    1.0000 </r>
       <r>    1.7777    1.0000 </r>
       <r>    2.0413    1.0000 </r>
       <r>    2.0413    1.0000 </r>
       <r>    4.0239    1.0000 </r>
       <r>    4.0239    1.0000 </r>
       <r>    5.2018    1.0000 </r>
       <r>    5.2018    1.0000 </r>
       <r>    5.8437    1.0000 </r>
       <r>    6.9475    1.0000 </r>
       <r>    7.9740    1.0000 </r>
       <r>   10.4506    1.0000 </r>
       <r>   17.0563    0.0000 </r>
       <r>   17.4486    0.0000 </r>
       <r>   17.4486    0.0000 </r>
       <r>   17.9707    0.0000 </r>
       <r>   19.1920    0.0000 </r>
       <r>   19.5716    0.0000 </r>
       <r>   19.8840    0.0000 </r>
       <r>   19.8840    0.0000 </r>
      </set>
      <set comment="kpoint 20">
       <r>   -8.9444    1.0000 </r>
       <r>   -5.7222    1.0000 </r>
       <r>   -4.5079    1.0000 </r>
       <r>   -2.3011    1.0000 </r>
       <r>   -0.4616    1.0000 </r>
       <r>    1.6443    1.0000 </r>
       <r>    1.6546    1.0000 </r>
       <r>    2.7637    1.0000 </r>
       <r>    3.4924    1.0000 </r>
       <r>    4.4164    1.0000 </r>
       <r>    5.2597    1.0000 </r>
       <r>    5.9974    1.0000 </r>
       <r>    5.9979    1.0000 </r>
       <r>    6.1861    1.0000 </r>
       <r>    7.2962    1.0000 </r>
       <r>   10.1010    1.0000 </r>
       <r>   17.4793    0.0000 </r>
       <r>   17.4950    0.0000 </r>
       <r>   18.0805    0.0000 </r>
       <r>   18.6107    0.0000 </r>
       <r>   19.9611    0.0000 </r>
       <r>   19.9743    0.0000 </r>
       <r>   20.6178    0.0000 </r>
       <r>   20.8343    0.0000 </r>
      </set>
      <set comment="kpoint 21">
       <r>   -8.4747    1.0000 </r>
       <r>   -6.5347    1.0000 </r>
       <r>   -4.1118    1.0000 </r>
       <r>   -2.7033    1.0000 </r>
       <r>   -0.1464    1.0000 </r>
       <r>    1.1826    1.0000 </r>
       <r>    1.7704    1.0000 </r>
       <r>    2.9637    1.0000 </r>
       <r>    3.4237    1.0000 </r>
       <r>    4.8762    1.0000 </r>
       <r>    5.4066    1.0000 </r>
       <r>    5.4484    1.0000 </r>
       <r>    5.9675    1.0000 </r>
       <r>    6.6246    1.0000 </r>
       <r>    6.9143    1.0000 </r>
       <r>    9.5150    1.0000 </r>
       <r>   17.5606    0.0000 </r>
       <r>   17.9790    0.0000 </r>
       <r>   18.2517    0.0000 </r>
       <r>   19.8747    0.0000 </r>
       <r>   20.5132    0.0000 </r>
       <r>   21.0064    0.0000 </r>
       <r>   21.2073    0.0000 </r>
       <r>   21.4323    0.0000 </r>
      </set>
      <set comment="kpoint 22">
       <r>   -7.9147    1.0000 </r>
       <r>   -7.2670    1.0000 </r>
       <r>   -3.6607    1.0000 </r>
       <r>   -3.1779    1.0000 </r>
       <r>    0.2512    1.0000 </r>
       <r>    0.7048    1.0000 </r>
       <r>    2.0628    1.0000 </r>
       <r>    2.4749    1.0000 </r>
       <r>    4.0735    1.0000 </r>
       <r>    4.7441    1.0000 </r>
       <r>    5.4014    1.0000 </r>
       <r>    5.6081    1.0000 </r>
       <r>    5.8149    1.0000 </r>
       <r>    5.9875    1.0000 </r>
       <r>    7.8573    1.0000 </r>
       <r>    8.7467    1.0000 </r>
       <r>   17.6823    0.0000 </r>
       <r>   17.8295    0.0000 </r>
       <r>   19.2330    0.0000 </r>
       <r>   20.2783    0.0000 </r>
       <r>   21.1552    0.0000 </r>
       <r>   21.3135    0.0000 </r>
       <r>   21.7756    0.0000 </r>
       <r>   22.1332    0.0000 </r>
      </set>
      <set comment="kpoint 23">
       <r>   -8.5689    1.0000 </r>
       <r>   -5.3784    1.0000 </r>
       <r>   -5.3784    1.0000 </r>
       <r>   -2.7887    1.0000 </r>
       <r>   -0.1847    1.0000 </r>
       <r>    1.6975    1.0000 </r>
       <r>    2.2286    1.0000 </r>
       <r>    2.2286    1.0000 </r>
       <r>    3.8509    1.0000 </r>
       <r>    3.8509    1.0000 </r>
       <r>    5.4387    1.0000 </r>
       <r>    6.1802    1.0000 </r>
       <r>    6.1802    1.0000 </r>
       <r>    6.4238    1.0000 </r>
       <r>    6.6361    1.0000 </r>
       <r>    9.9447    1.0000 </r>
       <r>   17.6332    0.0000 </r>
       <r>   18.6340    0.0000 </r>
       <r>   18.6340    0.0000 </r>
       <r>   18.7062    0.0000 </r>
       <r>   20.0215    0.0000 </r>
       <r>   20.2769    0.0000 </r>
       <r>   21.3075    0.0000 </r>
       <r>   21.3075    0.0000 </r>
      </set>
      <set comment="kpoint 24">
       <r>   -8.1022    1.0000 </r>
       <r>   -6.1798    1.0000 </r>
       <r>   -4.9577    1.0000 </r>
       <r>   -3.3519    1.0000 </r>
       <r>    0.1831    1.0000 </r>
       <r>    1.6723    1.0000 </r>
       <r>    1.9294    1.0000 </r>
       <r>    2.8024    1.0000 </r>
       <r>    3.2864    1.0000 </r>
       <r>    4.2851    1.0000 </r>
       <r>    4.7187    1.0000 </r>
       <r>    5.9809    1.0000 </r>
       <r>    6.3767    1.0000 </r>
       <r>    6.6340    1.0000 </r>
       <r>    7.1475    1.0000 </r>
       <r>    9.5322    1.0000 </r>
       <r>   18.1168    0.0000 </r>
       <r>   18.6960    0.0000 </r>
       <r>   18.9037    0.0000 </r>
       <r>   19.8781    0.0000 </r>
       <r>   20.2173    0.0000 </r>
       <r>   20.8981    0.0000 </r>
       <r>   21.0870    0.0000 </r>
       <r>   21.3786    0.0000 </r>
      </set>
      <set comment="kpoint 25">
       <r>   -7.5463    1.0000 </r>
       <r>   -6.9042    1.0000 </r>
       <r>   -4.4688    1.0000 </r>
       <r>   -3.9256    1.0000 </r>
       <r>    0.6267    1.0000 </r>
       <r>    1.1296    1.0000 </r>
       <r>    2.2958    1.0000 </r>
       <r>    2.7582    1.0000 </r>
       <r>    3.4002    1.0000 </r>
       <r>    4.0377    1.0000 </r>
       <r>    4.7904    1.0000 </r>
       <r>    5.3596    1.0000 </r>
       <r>    6.5520    1.0000 </r>
       <r>    6.6577    1.0000 </r>
       <r>    8.0756    1.0000 </r>
       <r>    8.8918    1.0000 </r>
       <r>   18.7835    0.0000 </r>
       <r>   18.8721    0.0000 </r>
       <r>   18.8897    0.0000 </r>
       <r>   19.8440    0.0000 </r>
       <r>   20.5537    0.0000 </r>
       <r>   20.9880    0.0000 </r>
       <r>   21.2388    0.0000 </r>
       <r>   22.1641    0.0000 </r>
      </set>
      <set comment="kpoint 26">
       <r>   -7.6397    1.0000 </r>
       <r>   -5.7426    1.0000 </r>
       <r>   -5.7426    1.0000 </r>
       <r>   -4.0141    1.0000 </r>
       <r>    0.5897    1.0000 </r>
       <r>    2.1879    1.0000 </r>
       <r>    2.1879    1.0000 </r>
       <r>    2.2330    1.0000 </r>
       <r>    3.6952    1.0000 </r>
       <r>    3.6952    1.0000 </r>
       <r>    4.0178    1.0000 </r>
       <r>    5.3409    1.0000 </r>
       <r>    7.1013    1.0000 </r>
       <r>    7.3245    1.0000 </r>
       <r>    7.3245    1.0000 </r>
       <r>    9.3137    1.0000 </r>
       <r>   18.3054    0.0000 </r>
       <r>   19.6091    0.0000 </r>
       <r>   19.9000    0.0000 </r>
       <r>   19.9000    0.0000 </r>
       <r>   20.0370    0.0000 </r>
       <r>   20.5132    0.0000 </r>
       <r>   20.5132    0.0000 </r>
       <r>   21.4687    0.0000 </r>
      </set>
      <set comment="kpoint 27">
       <r>   -7.0896    1.0000 </r>
       <r>   -6.4556    1.0000 </r>
       <r>   -5.2289    1.0000 </r>
       <r>   -4.6479    1.0000 </r>
       <r>    1.0664    1.0000 </r>
       <r>    1.6033    1.0000 </r>
       <r>    2.6453    1.0000 </r>
       <r>    2.7477    1.0000 </r>
       <r>    3.1403    1.0000 </r>
       <r>    3.3583    1.0000 </r>
       <r>    4.1814    1.0000 </r>
       <r>    4.7345    1.0000 </r>
       <r>    7.3511    1.0000 </r>
       <r>    7.4089    1.0000 </r>
       <r>    8.1721    1.0000 </r>
       <r>    8.8523    1.0000 </r>
       <r>   18.8082    0.0000 </r>
       <r>   19.5619    0.0000 </r>
       <r>   19.8823    0.0000 </r>
       <r>   19.9173    0.0000 </r>
       <r>   20.0328    0.0000 </r>
       <r>   20.2058    0.0000 </r>
       <r>   21.1686    0.0000 </r>
       <r>   22.3115    0.0000 </r>
      </set>
      <set comment="kpoint 28">
       <r>   -6.5478    1.0000 </r>
       <r>   -5.9253    1.0000 </r>
       <r>   -5.9253    1.0000 </r>
       <r>   -5.3195    1.0000 </r>
       <r>    1.5702    1.0000 </r>
       <r>    2.1335    1.0000 </r>
       <r>    2.1335    1.0000 </r>
       <r>    2.7203    1.0000 </r>
       <r>    3.0882    1.0000 </r>
       <r>    3.6064    1.0000 </r>
       <r>    3.6064    1.0000 </r>
       <r>    4.1430    1.0000 </r>
       <r>    7.8404    1.0000 </r>
       <r>    8.1073    1.0000 </r>
       <r>    8.1073    1.0000 </r>
       <r>    8.5953    1.0000 </r>
       <r>   19.0135    0.0000 </r>
       <r>   19.4889    0.0000 </r>
       <r>   19.4889    0.0000 </r>
       <r>   19.6476    0.0000 </r>
       <r>   20.6620    0.0000 </r>
       <r>   21.0301    0.0000 </r>
       <r>   21.0301    0.0000 </r>
       <r>   21.8390    0.0000 </r>
      </set>
      <set comment="kpoint 29">
       <r>  -10.3708    1.0000 </r>
       <r>   -3.4443    1.0000 </r>
       <r>   -2.1385    1.0000 </r>
       <r>   -2.1385    1.0000 </r>
       <r>   -0.9937    1.0000 </r>
       <r>   -0.9937    1.0000 </r>
       <r>   -0.0292    1.0000 </r>
       <r>    4.2961    1.0000 </r>
       <r>    4.2961    1.0000 </r>
       <r>    4.7048    1.0000 </r>
       <r>    4.7048    1.0000 </r>
       <r>    4.8620    1.0000 </r>
       <r>    5.0072    1.0000 </r>
       <r>   10.4451    1.0000 </r>
       <r>   10.7833    1.0000 </r>
       <r>   10.9360    1.0000 </r>
       <r>   15.8119    0.0000 </r>
       <r>   16.0856    0.0000 </r>
       <r>   16.0856    0.0000 </r>
       <r>   16.6505    0.0000 </r>
       <r>   16.6505    0.0000 </r>
       <r>   16.8677    0.0000 </r>
       <r>   16.9070    0.0000 </r>
       <r>   17.3052    0.0000 </r>
      </set>
      <set comment="kpoint 30">
       <r>  -10.2752    1.0000 </r>
       <r>   -3.3678    1.0000 </r>
       <r>   -3.2381    1.0000 </r>
       <r>   -2.0789    1.0000 </r>
       <r>   -0.9460    1.0000 </r>
       <r>    0.0071    1.0000 </r>
       <r>    0.1782    1.0000 </r>
       <r>    3.7662    1.0000 </r>
       <r>    4.4022    1.0000 </r>
       <r>    4.5319    1.0000 </r>
       <r>    4.8020    1.0000 </r>
       <r>    4.9238    1.0000 </r>
       <r>    4.9434    1.0000 </r>
       <r>    9.8836    1.0000 </r>
       <r>   10.4792    1.0000 </r>
       <r>   10.9664    1.0000 </r>
       <r>   15.9107    0.0000 </r>
       <r>   16.0484    0.0000 </r>
       <r>   16.1635    0.0000 </r>
       <r>   17.0455    0.0000 </r>
       <r>   17.0885    0.0000 </r>
       <r>   17.2779    0.0000 </r>
       <r>   17.3744    0.0000 </r>
       <r>   17.4961    0.0000 </r>
      </set>
      <set comment="kpoint 31">
       <r>  -10.0841    1.0000 </r>
       <r>   -4.2811    1.0000 </r>
       <r>   -3.2174    1.0000 </r>
       <r>   -1.9683    1.0000 </r>
       <r>   -0.8582    1.0000 </r>
       <r>    0.0686    1.0000 </r>
       <r>    1.3561    1.0000 </r>
       <r>    3.1981    1.0000 </r>
       <r>    4.0816    1.0000 </r>
       <r>    4.6168    1.0000 </r>
       <r>    4.7045    1.0000 </r>
       <r>    4.9300    1.0000 </r>
       <r>    4.9979    1.0000 </r>
       <r>    9.1884    1.0000 </r>
       <r>    9.8948    1.0000 </r>
       <r>   10.7624    1.0000 </r>
       <r>   15.7853    0.0000 </r>
       <r>   16.3751    0.0000 </r>
       <r>   16.8378    0.0000 </r>
       <r>   17.0020    0.0000 </r>
       <r>   17.6112    0.0000 </r>
       <r>   18.0299    0.0000 </r>
       <r>   18.1907    0.0000 </r>
       <r>   18.2552    0.0000 </r>
      </set>
      <set comment="kpoint 32">
       <r>   -9.7982    1.0000 </r>
       <r>   -5.2580    1.0000 </r>
       <r>   -2.9990    1.0000 </r>
       <r>   -1.8289    1.0000 </r>
       <r>   -0.7448    1.0000 </r>
       <r>    0.1308    1.0000 </r>
       <r>    2.5084    1.0000 </r>
       <r>    2.6777    1.0000 </r>
       <r>    3.5872    1.0000 </r>
       <r>    4.3674    1.0000 </r>
       <r>    4.7547    1.0000 </r>
       <r>    4.9437    1.0000 </r>
       <r>    5.2985    1.0000 </r>
       <r>    8.4349    1.0000 </r>
       <r>    9.1991    1.0000 </r>
       <r>   10.3062    1.0000 </r>
       <r>   15.7362    0.0000 </r>
       <r>   16.8240    0.0000 </r>
       <r>   17.0518    0.0000 </r>
       <r>   17.7777    0.0000 </r>
       <r>   18.3196    0.0000 </r>
       <r>   19.0062    0.0000 </r>
       <r>   19.0294    0.0000 </r>
       <r>   19.1548    0.0000 </r>
      </set>
      <set comment="kpoint 33">
       <r>   -9.4182    1.0000 </r>
       <r>   -6.1615    1.0000 </r>
       <r>   -2.7233    1.0000 </r>
       <r>   -1.7089    1.0000 </r>
       <r>   -0.6180    1.0000 </r>
       <r>    0.1540    1.0000 </r>
       <r>    2.2915    1.0000 </r>
       <r>    3.1141    1.0000 </r>
       <r>    3.5904    1.0000 </r>
       <r>    4.0301    1.0000 </r>
       <r>    4.4683    1.0000 </r>
       <r>    5.3822    1.0000 </r>
       <r>    5.7249    1.0000 </r>
       <r>    7.6669    1.0000 </r>
       <r>    8.4736    1.0000 </r>
       <r>    9.6538    1.0000 </r>
       <r>   15.7599    0.0000 </r>
       <r>   16.6110    0.0000 </r>
       <r>   18.0045    0.0000 </r>
       <r>   18.9108    0.0000 </r>
       <r>   19.1688    0.0000 </r>
       <r>   19.9109    0.0000 </r>
       <r>   20.1739    0.0000 </r>
       <r>   20.2049    0.0000 </r>
      </set>
      <set comment="kpoint 34">
       <r>   -8.9451    1.0000 </r>
       <r>   -6.9858    1.0000 </r>
       <r>   -2.4097    1.0000 </r>
       <r>   -1.6887    1.0000 </r>
       <r>   -0.4662    1.0000 </r>
       <r>    0.0948    1.0000 </r>
       <r>    2.1117    1.0000 </r>
       <r>    2.7028    1.0000 </r>
       <r>    3.7976    1.0000 </r>
       <r>    4.1518    1.0000 </r>
       <r>    4.5534    1.0000 </r>
       <r>    5.9037    1.0000 </r>
       <r>    6.3262    1.0000 </r>
       <r>    6.9064    1.0000 </r>
       <r>    7.7635    1.0000 </r>
       <r>    8.8634    1.0000 </r>
       <r>   15.8483    0.0000 </r>
       <r>   16.3883    0.0000 </r>
       <r>   19.1403    0.0000 </r>
       <r>   20.1499    0.0000 </r>
       <r>   20.1535    0.0000 </r>
       <r>   20.8891    0.0000 </r>
       <r>   21.2872    0.0000 </r>
       <r>   21.3133    0.0000 </r>
      </set>
      <set comment="kpoint 35">
       <r>   -8.3806    1.0000 </r>
       <r>   -7.7266    1.0000 </r>
       <r>   -2.0920    1.0000 </r>
       <r>   -1.8271    1.0000 </r>
       <r>   -0.2697    1.0000 </r>
       <r>   -0.0603    1.0000 </r>
       <r>    2.1544    1.0000 </r>
       <r>    2.3719    1.0000 </r>
       <r>    3.7482    1.0000 </r>
       <r>    3.8858    1.0000 </r>
       <r>    5.3902    1.0000 </r>
       <r>    6.1556    1.0000 </r>
       <r>    6.4737    1.0000 </r>
       <r>    7.0932    1.0000 </r>
       <r>    7.1128    1.0000 </r>
       <r>    7.9926    1.0000 </r>
       <r>   15.9912    0.0000 </r>
       <r>   16.1760    0.0000 </r>
       <r>   20.3371    0.0000 </r>
       <r>   21.1220    0.0000 </r>
       <r>   21.2533    0.0000 </r>
       <r>   21.8282    0.0000 </r>
       <r>   21.9064    0.0000 </r>
       <r>   22.4221    0.0000 </r>
      </set>
      <set comment="kpoint 36">
       <r>  -10.1796    1.0000 </r>
       <r>   -3.2936    1.0000 </r>
       <r>   -3.1656    1.0000 </r>
       <r>   -3.1656    1.0000 </r>
       <r>    0.0316    1.0000 </r>
       <r>    0.1931    1.0000 </r>
       <r>    0.1931    1.0000 </r>
       <r>    3.8972    1.0000 </r>
       <r>    3.8972    1.0000 </r>
       <r>    4.0113    1.0000 </r>
       <r>    5.0156    1.0000 </r>
       <r>    5.0156    1.0000 </r>
       <r>    5.1648    1.0000 </r>
       <r>    9.2644    1.0000 </r>
       <r>   10.6025    1.0000 </r>
       <r>   10.7116    1.0000 </r>
       <r>   16.0021    0.0000 </r>
       <r>   16.0021    0.0000 </r>
       <r>   16.2432    0.0000 </r>
       <r>   17.4429    0.0000 </r>
       <r>   17.4984    0.0000 </r>
       <r>   17.6375    0.0000 </r>
       <r>   17.6375    0.0000 </r>
       <r>   17.8923    0.0000 </r>
      </set>
      <set comment="kpoint 37">
       <r>   -9.9888    1.0000 </r>
       <r>   -4.2013    1.0000 </r>
       <r>   -3.1488    1.0000 </r>
       <r>   -3.0246    1.0000 </r>
       <r>    0.0640    1.0000 </r>
       <r>    0.2030    1.0000 </r>
       <r>    1.3147    1.0000 </r>
       <r>    3.3711    1.0000 </r>
       <r>    3.4608    1.0000 </r>
       <r>    4.1725    1.0000 </r>
       <r>    5.0259    1.0000 </r>
       <r>    5.1789    1.0000 </r>
       <r>    5.1982    1.0000 </r>
       <r>    8.5268    1.0000 </r>
       <r>   10.0683    1.0000 </r>
       <r>   10.6183    1.0000 </r>
       <r>   15.9630    0.0000 </r>
       <r>   16.3807    0.0000 </r>
       <r>   16.6101    0.0000 </r>
       <r>   17.3311    0.0000 </r>
       <r>   18.1103    0.0000 </r>
       <r>   18.1505    0.0000 </r>
       <r>   18.4149    0.0000 </r>
       <r>   18.5706    0.0000 </r>
      </set>
      <set comment="kpoint 38">
       <r>   -9.7032    1.0000 </r>
       <r>   -5.1733    1.0000 </r>
       <r>   -2.9420    1.0000 </r>
       <r>   -2.8250    1.0000 </r>
       <r>    0.0685    1.0000 </r>
       <r>    0.1678    1.0000 </r>
       <r>    2.3659    1.0000 </r>
       <r>    2.9209    1.0000 </r>
       <r>    2.9730    1.0000 </r>
       <r>    4.6220    1.0000 </r>
       <r>    4.8664    1.0000 </r>
       <r>    5.0163    1.0000 </r>
       <r>    5.4703    1.0000 </r>
       <r>    7.7499    1.0000 </r>
       <r>    9.4033    1.0000 </r>
       <r>   10.2625    1.0000 </r>
       <r>   15.9669    0.0000 </r>
       <r>   17.0791    0.0000 </r>
       <r>   17.1486    0.0000 </r>
       <r>   17.2985    0.0000 </r>
       <r>   18.7557    0.0000 </r>
       <r>   18.9686    0.0000 </r>
       <r>   19.1848    0.0000 </r>
       <r>   19.7029    0.0000 </r>
      </set>
      <set comment="kpoint 39">
       <r>   -9.3236    1.0000 </r>
       <r>   -6.0735    1.0000 </r>
       <r>   -2.6910    1.0000 </r>
       <r>   -2.5873    1.0000 </r>
       <r>   -0.0011    1.0000 </r>
       <r>    0.0451    1.0000 </r>
       <r>    2.6277    1.0000 </r>
       <r>    2.6337    1.0000 </r>
       <r>    3.2884    1.0000 </r>
       <r>    4.6140    1.0000 </r>
       <r>    4.7488    1.0000 </r>
       <r>    5.2794    1.0000 </r>
       <r>    5.8292    1.0000 </r>
       <r>    6.9728    1.0000 </r>
       <r>    8.7047    1.0000 </r>
       <r>    9.6732    1.0000 </r>
       <r>   16.0252    0.0000 </r>
       <r>   16.9342    0.0000 </r>
       <r>   18.0398    0.0000 </r>
       <r>   18.2499    0.0000 </r>
       <r>   19.5572    0.0000 </r>
       <r>   19.8809    0.0000 </r>
       <r>   20.1191    0.0000 </r>
       <r>   20.9376    0.0000 </r>
      </set>
      <set comment="kpoint 40">
       <r>   -8.8512    1.0000 </r>
       <r>   -6.8955    1.0000 </r>
       <r>   -2.4321    1.0000 </r>
       <r>   -2.3540    1.0000 </r>
       <r>   -0.1530    1.0000 </r>
       <r>   -0.1496    1.0000 </r>
       <r>    2.4802    1.0000 </r>
       <r>    2.5040    1.0000 </r>
       <r>    4.0747    1.0000 </r>
       <r>    4.3655    1.0000 </r>
       <r>    4.4657    1.0000 </r>
       <r>    6.1233    1.0000 </r>
       <r>    6.2172    1.0000 </r>
       <r>    6.2741    1.0000 </r>
       <r>    8.0188    1.0000 </r>
       <r>    8.9091    1.0000 </r>
       <r>   16.1369    0.0000 </r>
       <r>   16.7087    0.0000 </r>
       <r>   19.1731    0.0000 </r>
       <r>   19.3702    0.0000 </r>
       <r>   20.5020    0.0000 </r>
       <r>   20.8662    0.0000 </r>
       <r>   21.1340    0.0000 </r>
       <r>   22.0938    0.0000 </r>
      </set>
      <set comment="kpoint 41">
       <r>   -8.2876    1.0000 </r>
       <r>   -7.6347    1.0000 </r>
       <r>   -2.2381    1.0000 </r>
       <r>   -2.2071    1.0000 </r>
       <r>   -0.3058    1.0000 </r>
       <r>   -0.2997    1.0000 </r>
       <r>    2.4584    1.0000 </r>
       <r>    2.4737    1.0000 </r>
       <r>    4.2240    1.0000 </r>
       <r>    4.2627    1.0000 </r>
       <r>    4.7877    1.0000 </r>
       <r>    5.4913    1.0000 </r>
       <r>    6.7844    1.0000 </r>
       <r>    7.0775    1.0000 </r>
       <r>    7.3733    1.0000 </r>
       <r>    8.0254    1.0000 </r>
       <r>   16.2954    0.0000 </r>
       <r>   16.4904    0.0000 </r>
       <r>   20.3180    0.0000 </r>
       <r>   20.4607    0.0000 </r>
       <r>   21.5654    0.0000 </r>
       <r>   21.8941    0.0000 </r>
       <r>   22.0517    0.0000 </r>
       <r>   22.1834    0.0000 </r>
      </set>
      <set comment="kpoint 42">
       <r>   -9.7984    1.0000 </r>
       <r>   -4.0438    1.0000 </r>
       <r>   -4.0438    1.0000 </r>
       <r>   -3.0180    1.0000 </r>
       <r>    0.0265    1.0000 </r>
       <r>    1.1982    1.0000 </r>
       <r>    1.1982    1.0000 </r>
       <r>    2.9040    1.0000 </r>
       <r>    3.7424    1.0000 </r>
       <r>    3.7424    1.0000 </r>
       <r>    5.2198    1.0000 </r>
       <r>    5.2198    1.0000 </r>
       <r>    5.4746    1.0000 </r>
       <r>    7.7608    1.0000 </r>
       <r>    9.7236    1.0000 </r>
[...]
       <r>   -5.1852    1.0000 </r>
       <r>   -4.7158    1.0000 </r>
       <r>   -1.7167    1.0000 </r>
       <r>   -1.2586    1.0000 </r>
       <r>   -1.2491    1.0000 </r>
       <r>   -0.7173    1.0000 </r>
       <r>    7.0705    1.0000 </r>
       <r>    7.3371    1.0000 </r>
       <r>    7.3686    1.0000 </r>
       <r>    7.7133    1.0000 </r>
       <r>    7.9972    1.0000 </r>
       <r>    8.1228    1.0000 </r>
       <r>    8.1400    1.0000 </r>
       <r>    8.4272    1.0000 </r>
       <r>   19.2956    0.0000 </r>
       <r>   19.5222    0.0000 </r>
       <r>   19.5818    0.0000 </r>
       <r>   19.6444    0.0000 </r>
       <r>   19.8349    0.0000 </r>
       <r>   19.8364    0.0000 </r>
       <r>   20.1159    0.0000 </r>
       <r>   20.3947    0.0000 </r>
      </set>
      <set comment="kpoint 194">
       <r>   -5.8317    1.0000 </r>
       <r>   -5.2829    1.0000 </r>
       <r>   -4.4854    1.0000 </r>
       <r>   -4.4854    1.0000 </r>
       <r>   -2.1134    1.0000 </r>
       <r>   -2.1134    1.0000 </r>
       <r>   -1.3341    1.0000 </r>
       <r>   -0.7995    1.0000 </r>
       <r>    7.5042    1.0000 </r>
       <r>    7.5042    1.0000 </r>
       <r>    7.8641    1.0000 </r>
       <r>    7.8641    1.0000 </r>
       <r>    7.8937    1.0000 </r>
       <r>    8.1169    1.0000 </r>
       <r>    8.3310    1.0000 </r>
       <r>    8.3747    1.0000 </r>
       <r>   19.3531    0.0000 </r>
       <r>   19.3733    0.0000 </r>
       <r>   19.3733    0.0000 </r>
       <r>   19.4821    0.0000 </r>
       <r>   19.9418    0.0000 </r>
       <r>   20.0434    0.0000 </r>
       <r>   20.0434    0.0000 </r>
       <r>   20.2511    0.0000 </r>
      </set>
      <set comment="kpoint 195">
       <r>   -5.3604    1.0000 </r>
       <r>   -4.8871    1.0000 </r>
       <r>   -4.8787    1.0000 </r>
       <r>   -4.5739    1.0000 </r>
       <r>   -2.1971    1.0000 </r>
       <r>   -1.8976    1.0000 </r>
       <r>   -1.8898    1.0000 </r>
       <r>   -1.4265    1.0000 </r>
       <r>    7.7736    1.0000 </r>
       <r>    7.8884    1.0000 </r>
       <r>    7.9690    1.0000 </r>
       <r>    8.1239    1.0000 </r>
       <r>    8.1577    1.0000 </r>
       <r>    8.1815    1.0000 </r>
       <r>    8.2296    1.0000 </r>
       <r>    8.4069    1.0000 </r>
       <r>   19.4692    0.0000 </r>
       <r>   19.5506    0.0000 </r>
       <r>   19.5786    0.0000 </r>
       <r>   19.6051    0.0000 </r>
       <r>   19.7669    0.0000 </r>
       <r>   19.7802    0.0000 </r>
       <r>   19.9946    0.0000 </r>
       <r>   20.0321    0.0000 </r>
      </set>
      <set comment="kpoint 196">
       <r>   -4.9650    1.0000 </r>
       <r>   -4.6586    1.0000 </r>
       <r>   -4.6551    1.0000 </r>
       <r>   -4.6551    1.0000 </r>
       <r>   -2.2889    1.0000 </r>
       <r>   -2.2889    1.0000 </r>
       <r>   -2.2855    1.0000 </r>
       <r>   -1.9841    1.0000 </r>
       <r>    8.1111    1.0000 </r>
       <r>    8.1545    1.0000 </r>
       <r>    8.1545    1.0000 </r>
       <r>    8.2626    1.0000 </r>
       <r>    8.3139    1.0000 </r>
       <r>    8.3139    1.0000 </r>
       <r>    8.3545    1.0000 </r>
       <r>    8.4454    1.0000 </r>
       <r>   19.5881    0.0000 </r>
       <r>   19.5881    0.0000 </r>
       <r>   19.5920    0.0000 </r>
       <r>   19.5929    0.0000 </r>
       <r>   19.7351    0.0000 </r>
       <r>   19.7887    0.0000 </r>
       <r>   19.7887    0.0000 </r>
       <r>   19.8607    0.0000 </r>
      </set>
     </set>
    </set>
   </array>
  </eigenvalues>
  <separator name="orbital magnetization" >
   <v name="MAGDIPOLOUT">      0.00000000      0.00000000      0.00000000</v>
  </separator>
  <dos>
   <i name="efermi">     11.40943733 </i>
   <total>
    <array>
     <dimension dim="1">gridpoints</dimension>
     <dimension dim="2">spin</dimension>
     <field>energy</field>
     <field>total</field>
     <field>integrated</field>
     <set>
      <set comment="spin 1">
       <r>   -12.1458     0.0000     0.0000 </r>
       <r>   -12.0225     0.0000     0.0000 </r>
       <r>   -11.8992     0.0000     0.0000 </r>
       <r>   -11.7759     0.0000     0.0000 </r>
       <r>   -11.6527     0.0000     0.0000 </r>
       <r>   -11.5294     0.0000     0.0000 </r>
       <r>   -11.4061     0.0000     0.0000 </r>
       <r>   -11.2828     0.0000     0.0000 </r>
       <r>   -11.1595     0.0000     0.0000 </r>
       <r>   -11.0362     0.0000     0.0000 </r>
       <r>   -10.9129     0.0000     0.0000 </r>
       <r>   -10.7897     0.0000     0.0000 </r>
       <r>   -10.6664     0.0000     0.0000 </r>
       <r>   -10.5431     0.0006     0.0001 </r>
       <r>   -10.4198     0.0528     0.0066 </r>
       <r>   -10.2965     0.1709     0.0277 </r>
       <r>   -10.1732     0.2162     0.0543 </r>
       <r>   -10.0499     0.3236     0.0942 </r>
       <r>    -9.9267     0.2304     0.1226 </r>
       <r>    -9.8034     0.4347     0.1762 </r>
       <r>    -9.6801     0.3443     0.2187 </r>
       <r>    -9.5568     0.3933     0.2672 </r>
       <r>    -9.4335     0.4940     0.3281 </r>
       <r>    -9.3102     0.4849     0.3878 </r>
       <r>    -9.1869     0.5353     0.4538 </r>
       <r>    -9.0637     0.3822     0.5010 </r>
       <r>    -8.9404     0.6564     0.5819 </r>
       <r>    -8.8171     0.6522     0.6623 </r>
       <r>    -8.6938     0.5116     0.7254 </r>
       <r>    -8.5705     0.5030     0.7874 </r>
       <r>    -8.4472     0.7132     0.8753 </r>
       <r>    -8.3239     0.8099     0.9751 </r>
       <r>    -8.2007     0.5651     1.0448 </r>
       <r>    -8.0774     0.7431     1.1364 </r>
       <r>    -7.9541     0.6308     1.2142 </r>
       <r>    -7.8308     0.8385     1.3176 </r>
       <r>    -7.7075     0.5692     1.3877 </r>
       <r>    -7.5842     0.9109     1.5000 </r>
       <r>    -7.4609     1.0428     1.6286 </r>
       <r>    -7.3377     0.5661     1.6984 </r>
       <r>    -7.2144     0.7910     1.7959 </r>
       <r>    -7.0911     0.7094     1.8834 </r>
       <r>    -6.9678     1.2160     2.0333 </r>
       <r>    -6.8445     0.8472     2.1377 </r>
       <r>    -6.7212     0.9349     2.2530 </r>
       <r>    -6.5979     0.7569     2.3463 </r>
       <r>    -6.4747     1.0256     2.4728 </r>
       <r>    -6.3514     0.9093     2.5849 </r>
       <r>    -6.2281     1.0223     2.7109 </r>
       <r>    -6.1048     0.9974     2.8339 </r>
       <r>    -5.9815     1.0468     2.9629 </r>
       <r>    -5.8582     1.1272     3.1019 </r>
       <r>    -5.7349     1.0025     3.2255 </r>
       <r>    -5.6117     1.4177     3.4002 </r>
       <r>    -5.4884     0.6041     3.4747 </r>
       <r>    -5.3651     0.9594     3.5930 </r>
       <r>    -5.2418     1.5782     3.7876 </r>
       <r>    -5.1185     1.3790     3.9576 </r>
       <r>    -4.9952     1.0757     4.0902 </r>
       <r>    -4.8720     1.4272     4.2662 </r>
       <r>    -4.7487     1.0982     4.4016 </r>
       <r>    -4.6254     1.3340     4.5660 </r>
       <r>    -4.5021     1.5950     4.7627 </r>
       <r>    -4.3788     1.5395     4.9524 </r>
       <r>    -4.2555     1.5118     5.1388 </r>
       <r>    -4.1322     1.3034     5.2995 </r>
       <r>    -4.0090     1.2703     5.4561 </r>
       <r>    -3.8857     1.8679     5.6864 </r>
       <r>    -3.7624     1.2388     5.8391 </r>
       <r>    -3.6391     1.0325     5.9664 </r>
       <r>    -3.5158     1.0327     6.0938 </r>
       <r>    -3.3925     0.9386     6.2095 </r>
       <r>    -3.2692     1.4889     6.3930 </r>
       <r>    -3.1460     1.7115     6.6040 </r>
       <r>    -3.0227     0.5787     6.6754 </r>
       <r>    -2.8994     0.9258     6.7895 </r>
       <r>    -2.7761     1.2645     6.9454 </r>
       <r>    -2.6528     1.0579     7.0758 </r>
       <r>    -2.5295     1.0707     7.2078 </r>
       <r>    -2.4062     0.5873     7.2802 </r>
       <r>    -2.2830     0.7903     7.3777 </r>
       <r>    -2.1597     0.9272     7.4920 </r>
       <r>    -2.0364     1.1578     7.6347 </r>
       <r>    -1.9131     1.4383     7.8120 </r>
       <r>    -1.7898     1.4512     7.9909 </r>
       <r>    -1.6665     1.2100     8.1401 </r>
       <r>    -1.5432     0.7109     8.2278 </r>
       <r>    -1.4200     0.8952     8.3381 </r>
       <r>    -1.2967     1.1074     8.4747 </r>
       <r>    -1.1734     0.8290     8.5769 </r>
       <r>    -1.0501     0.8437     8.6809 </r>
       <r>    -0.9268     1.8761     8.9122 </r>
       <r>    -0.8035     1.3911     9.0837 </r>
       <r>    -0.6802     1.8562     9.3125 </r>
       <r>    -0.5570     2.2796     9.5936 </r>
       <r>    -0.4337     2.3462     9.8828 </r>
       <r>    -0.3104     1.9824    10.1272 </r>
       <r>    -0.1871     1.4969    10.3118 </r>
       <r>    -0.0638     1.9647    10.5540 </r>
       <r>     0.0595     2.2895    10.8362 </r>
       <r>     0.1828     2.1719    11.1040 </r>
       <r>     0.3060     1.9024    11.3385 </r>
       <r>     0.4293     1.5306    11.5272 </r>
       <r>     0.5526     0.8037    11.6263 </r>
       <r>     0.6759     1.0761    11.7590 </r>
       <r>     0.7992     1.4819    11.9417 </r>
       <r>     0.9225     0.8834    12.0506 </r>
       <r>     1.0458     1.3487    12.2169 </r>
       <r>     1.1690     1.2365    12.3693 </r>
       <r>     1.2923     1.4106    12.5432 </r>
       <r>     1.4156     1.1410    12.6839 </r>
       <r>     1.5389     0.8100    12.7838 </r>
       <r>     1.6622     1.3299    12.9477 </r>
       <r>     1.7855     1.3978    13.1201 </r>
       <r>     1.9088     1.1175    13.2578 </r>
       <r>     2.0320     1.1672    13.4017 </r>
       <r>     2.1553     2.0090    13.6494 </r>
       <r>     2.2786     1.8643    13.8792 </r>
       <r>     2.4019     2.1257    14.1413 </r>
       <r>     2.5252     2.2870    14.4233 </r>
       <r>     2.6485     2.1293    14.6858 </r>
       <r>     2.7717     2.1381    14.9494 </r>
       <r>     2.8950     1.9398    15.1885 </r>
       <r>     3.0183     1.6416    15.3909 </r>
       <r>     3.1416     1.2724    15.5478 </r>
       <r>     3.2649     2.3304    15.8351 </r>
       <r>     3.3882     2.8641    16.1882 </r>
       <r>     3.5115     2.7205    16.5236 </r>
       <r>     3.6347     1.2147    16.6733 </r>
       <r>     3.7580     1.9189    16.9099 </r>
       <r>     3.8813     2.2462    17.1868 </r>
       <r>     4.0046     2.1877    17.4565 </r>
       <r>     4.1279     2.7843    17.7998 </r>
       <r>     4.2512     2.5472    18.1138 </r>
       <r>     4.3745     2.0323    18.3644 </r>
       <r>     4.4977     2.0452    18.6165 </r>
       <r>     4.6210     2.9798    18.9839 </r>
       <r>     4.7443     3.1872    19.3768 </r>
       <r>     4.8676     3.3842    19.7940 </r>
       <r>     4.9909     2.9541    20.1582 </r>
       <r>     5.1142     2.5308    20.4702 </r>
       <r>     5.2375     2.9241    20.8308 </r>
       <r>     5.3607     2.7964    21.1755 </r>
       <r>     5.4840     4.2259    21.6965 </r>
       <r>     5.6073     3.6870    22.1511 </r>
       <r>     5.7306     1.9818    22.3954 </r>
       <r>     5.8539     2.0177    22.6441 </r>
       <r>     5.9772     3.3062    23.0517 </r>
       <r>     6.1005     3.0257    23.4248 </r>
       <r>     6.2237     3.7873    23.8917 </r>
       <r>     6.3470     2.3565    24.1822 </r>
       <r>     6.4703     2.5100    24.4917 </r>
       <r>     6.5936     3.0038    24.8620 </r>
       <r>     6.7169     2.6212    25.1851 </r>
       <r>     6.8402     2.5391    25.4982 </r>
       <r>     6.9635     3.2807    25.9026 </r>
       <r>     7.0867     2.3378    26.1909 </r>
       <r>     7.2100     2.4341    26.4909 </r>
       <r>     7.3333     2.8987    26.8483 </r>
       <r>     7.4566     3.1316    27.2344 </r>
       <r>     7.5799     2.2094    27.5068 </r>
       <r>     7.7032     2.2919    27.7893 </r>
       <r>     7.8265     2.4567    28.0922 </r>
       <r>     7.9497     2.3200    28.3782 </r>
       <r>     8.0730     3.5674    28.8180 </r>
       <r>     8.1963     2.5051    29.1269 </r>
       <r>     8.3196     1.5422    29.3170 </r>
       <r>     8.4429     1.7347    29.5309 </r>
       <r>     8.5662     2.3819    29.8245 </r>
       <r>     8.6895     2.1656    30.0915 </r>
       <r>     8.8127     1.7059    30.3018 </r>
       <r>     8.9360     1.1518    30.4438 </r>
       <r>     9.0593     0.7798    30.5400 </r>
       <r>     9.1826     1.4091    30.7137 </r>
       <r>     9.3059     1.5550    30.9054 </r>
       <r>     9.4292     1.2585    31.0606 </r>
       <r>     9.5524     0.7769    31.1563 </r>
       <r>     9.6757     0.6255    31.2335 </r>
       <r>     9.7990     0.7508    31.3260 </r>
       <r>     9.9223     1.1270    31.4650 </r>
       <r>    10.0456     0.7775    31.5608 </r>
       <r>    10.1689     0.5450    31.6280 </r>
       <r>    10.2922     0.5214    31.6923 </r>
       <r>    10.4154     0.5172    31.7561 </r>
       <r>    10.5387     0.5867    31.8284 </r>
       <r>    10.6620     0.3266    31.8686 </r>
       <r>    10.7853     0.4599    31.9253 </r>
       <r>    10.9086     0.2314    31.9539 </r>
       <r>    11.0319     0.2139    31.9802 </r>
       <r>    11.1552     0.1369    31.9971 </r>
       <r>    11.2784     0.0233    32.0000 </r>
       <r>    11.4017     0.0000    32.0000 </r>
       <r>    11.5250     0.0000    32.0000 </r>
       <r>    11.6483     0.0000    32.0000 </r>
       <r>    11.7716     0.0000    32.0000 </r>
       <r>    11.8949     0.0000    32.0000 </r>
       <r>    12.0182     0.0000    32.0000 </r>
       <r>    12.1414     0.0000    32.0000 </r>
       <r>    12.2647     0.0000    32.0000 </r>
       <r>    12.3880     0.0000    32.0000 </r>
       <r>    12.5113     0.0000    32.0000 </r>
       <r>    12.6346     0.0000    32.0000 </r>
       <r>    12.7579     0.0000    32.0000 </r>
       <r>    12.8812     0.0000    32.0000 </r>
       <r>    13.0044     0.0000    32.0000 </r>
       <r>    13.1277     0.0000    32.0000 </r>
       <r>    13.2510     0.0000    32.0000 </r>
       <r>    13.3743     0.0000    32.0000 </r>
       <r>    13.4976     0.0000    32.0000 </r>
       <r>    13.6209     0.0000    32.0000 </r>
       <r>    13.7442     0.0000    32.0000 </r>
       <r>    13.8674     0.0000    32.0000 </r>
       <r>    13.9907     0.0000    32.0000 </r>
       <r>    14.1140     0.0000    32.0000 </r>
       <r>    14.2373     0.0000    32.0000 </r>
       <r>    14.3606     0.0000    32.0000 </r>
       <r>    14.4839     0.0000    32.0000 </r>
       <r>    14.6072     0.0000    32.0000 </r>
       <r>    14.7304     0.0000    32.0000 </r>
       <r>    14.8537     0.0000    32.0000 </r>
       <r>    14.9770     0.0000    32.0000 </r>
       <r>    15.1003     0.0000    32.0000 </r>
       <r>    15.2236     0.0000    32.0000 </r>
       <r>    15.3469     0.0555    32.0068 </r>
       <r>    15.4702     0.2782    32.0411 </r>
       <r>    15.5934     0.1915    32.0648 </r>
       <r>    15.7167     0.2888    32.1004 </r>
       <r>    15.8400     0.8045    32.1995 </r>
       <r>    15.9633     0.5582    32.2684 </r>
       <r>    16.0866     1.0582    32.3988 </r>
       <r>    16.2099     0.7443    32.4906 </r>
       <r>    16.3332     0.6195    32.5669 </r>
       <r>    16.4564     1.4510    32.7458 </r>
       <r>    16.5797     1.2619    32.9014 </r>
       <r>    16.7030     1.7467    33.1167 </r>
       <r>    16.8263     1.6563    33.3209 </r>
       <r>    16.9496     1.5509    33.5121 </r>
       <r>    17.0729     1.6843    33.7198 </r>
       <r>    17.1961     1.3899    33.8911 </r>
       <r>    17.3194     1.8531    34.1196 </r>
       <r>    17.4427     1.8639    34.3494 </r>
       <r>    17.5660     2.8072    34.6955 </r>
       <r>    17.6893     1.9691    34.9382 </r>
       <r>    17.8126     2.0520    35.1912 </r>
       <r>    17.9359     1.8320    35.4171 </r>
       <r>    18.0591     2.3935    35.7122 </r>
       <r>    18.1824     2.4059    36.0088 </r>
       <r>    18.3057     2.6792    36.3391 </r>
       <r>    18.4290     2.0489    36.5917 </r>
       <r>    18.5523     2.3771    36.8847 </r>
       <r>    18.6756     2.7350    37.2219 </r>
       <r>    18.7989     2.9334    37.5836 </r>
       <r>    18.9221     3.2749    37.9873 </r>
       <r>    19.0454     4.1564    38.4997 </r>
       <r>    19.1687     3.1390    38.8867 </r>
       <r>    19.2920     3.1134    39.2706 </r>
       <r>    19.4153     3.4675    39.6981 </r>
       <r>    19.5386     3.8565    40.1735 </r>
       <r>    19.6619     3.7369    40.6342 </r>
       <r>    19.7851     3.5237    41.0686 </r>
       <r>    19.9084     4.5910    41.6346 </r>
       <r>    20.0317     4.5095    42.1906 </r>
       <r>    20.1550     3.5822    42.6322 </r>
       <r>    20.2783     3.4792    43.0612 </r>
       <r>    20.4016     2.9704    43.4274 </r>
       <r>    20.5249     2.8212    43.7752 </r>
       <r>    20.6481     2.4227    44.0739 </r>
       <r>    20.7714     2.3540    44.3641 </r>
       <r>    20.8947     3.2377    44.7633 </r>
       <r>    21.0180     2.9936    45.1323 </r>
       <r>    21.1413     3.5302    45.5675 </r>
       <r>    21.2646     2.8079    45.9137 </r>
       <r>    21.3879     2.5993    46.2342 </r>
       <r>    21.5111     2.1447    46.4986 </r>
       <r>    21.6344     2.0689    46.7536 </r>
       <r>    21.7577     1.6035    46.9513 </r>
       <r>    21.8810     1.7905    47.1721 </r>
       <r>    22.0043     1.3797    47.3422 </r>
       <r>    22.1276     1.4062    47.5155 </r>
       <r>    22.2509     1.4664    47.6963 </r>
       <r>    22.3741     0.8632    47.8028 </r>
       <r>    22.4974     0.7001    47.8891 </r>
       <r>    22.6207     0.4813    47.9484 </r>
       <r>    22.7440     0.1346    47.9650 </r>
       <r>    22.8673     0.0002    47.9650 </r>
       <r>    22.9906     0.0317    47.9689 </r>
       <r>    23.1139     0.1208    47.9838 </r>
       <r>    23.2371     0.1300    47.9998 </r>
       <r>    23.3604     0.0013    48.0000 </r>
       <r>    23.4837     0.0000    48.0000 </r>
       <r>    23.6070     0.0000    48.0000 </r>
       <r>    23.7303     0.0000    48.0000 </r>
       <r>    23.8536     0.0000    48.0000 </r>
       <r>    23.9769     0.0000    48.0000 </r>
       <r>    24.1001     0.0000    48.0000 </r>
       <r>    24.2234     0.0000    48.0000 </r>
       <r>    24.3467     0.0000    48.0000 </r>
       <r>    24.4700     0.0000    48.0000 </r>
       <r>    24.5933     0.0000    48.0000 </r>
       <r>    24.7166     0.0000    48.0000 </r>
       <r>    24.8398     0.0000    48.0000 </r>
      </set>
     </set>
    </array>
   </total>
  </dos>
 </calculation>
 <structure name="finalpos" >
  <crystal>
   <varray name="basis" >
    <v>       3.53786902       0.00000000       0.00000000 </v>
    <v>       0.00000000       3.53786902       0.00000000 </v>
    <v>       0.00000000       0.00000000       3.57360507 </v>
   </varray>
   <i name="volume">     44.72908935 </i>
   <varray name="rec_basis" >
    <v>       0.28265603       0.00000000       0.00000000 </v>
    <v>       0.00000000       0.28265603       0.00000000 </v>
    <v>       0.00000000       0.00000000       0.27982947 </v>
   </varray>
  </crystal>
  <varray name="positions" >
   <v>       0.25000000       0.25000000       0.25000000 </v>
   <v>       0.00000000       0.00000000       0.00000000 </v>
   <v>       0.25000000       0.75000000       0.75000000 </v>
   <v>       0.00000000       0.50000000       0.50000000 </v>
   <v>       0.75000000       0.25000000       0.75000000 </v>
   <v>       0.50000000       0.00000000       0.50000000 </v>
   <v>       0.75000000       0.75000000       0.25000000 </v>
   <v>       0.50000000       0.50000000       0.00000000 </v>
  </varray>
 </structure>
</modeling>
