   8   8   0   0
  0.5535225E+01  0.3537869E-09  0.3537869E-09  0.3537869E-09  0.5000000E-15
  1.000000000000000E-004
  CAR 
 unknown system                          
     25.08477428    -12.13319708  301     11.56999843      1.00000000
    -12.133  0.0000E+00  0.0000E+00
    -12.009  0.0000E+00  0.0000E+00
    -11.885  0.0000E+00  0.0000E+00
    -11.761  0.0000E+00  0.0000E+00
    -11.637  0.0000E+00  0.0000E+00
    -11.513  0.0000E+00  0.0000E+00
    -11.389  0.0000E+00  0.0000E+00
    -11.265  0.0000E+00  0.0000E+00
    -11.141  0.0000E+00  0.0000E+00
    -11.017  0.0000E+00  0.0000E+00
    -10.893  0.0000E+00  0.0000E+00
    -10.769  0.0000E+00  0.0000E+00
    -10.644  0.2200E-11  0.2729E-12
    -10.520  0.6005E-05  0.7450E-06
    -10.396  0.5237E-03  0.6572E-04
    -10.272  0.1698E-02  0.2763E-03
    -10.148  0.2148E-02  0.5428E-03
    -10.024  0.3218E-02  0.9421E-03
     -9.900  0.2275E-02  0.1224E-02
     -9.776  0.4317E-02  0.1760E-02
     -9.652  0.3431E-02  0.2186E-02
     -9.528  0.3885E-02  0.2668E-02
     -9.404  0.4916E-02  0.3277E-02
     -9.280  0.4820E-02  0.3875E-02
     -9.156  0.5325E-02  0.4536E-02
     -9.032  0.3774E-02  0.5004E-02
     -8.908  0.6531E-02  0.5814E-02
     -8.784  0.6478E-02  0.6618E-02
     -8.660  0.5032E-02  0.7242E-02
     -8.535  0.5039E-02  0.7867E-02
     -8.411  0.7047E-02  0.8742E-02
     -8.287  0.8097E-02  0.9746E-02
     -8.163  0.5576E-02  0.1044E-01
     -8.039  0.7462E-02  0.1136E-01
     -7.915  0.6080E-02  0.1212E-01
     -7.791  0.8410E-02  0.1316E-01
     -7.667  0.5694E-02  0.1387E-01
     -7.543  0.8760E-02  0.1495E-01
     -7.419  0.1069E-01  0.1628E-01
     -7.295  0.5351E-02  0.1695E-01
     -7.171  0.8029E-02  0.1794E-01
     -7.047  0.6906E-02  0.1880E-01
     -6.923  0.1233E-01  0.2033E-01
     -6.799  0.8063E-02  0.2133E-01
     -6.675  0.9628E-02  0.2252E-01
     -6.551  0.6985E-02  0.2339E-01
     -6.426  0.1052E-01  0.2469E-01
     -6.302  0.8930E-02  0.2580E-01
     -6.178  0.9764E-02  0.2701E-01
     -6.054  0.1043E-01  0.2831E-01
     -5.930  0.9920E-02  0.2954E-01
     -5.806  0.1175E-01  0.3100E-01
     -5.682  0.9321E-02  0.3215E-01
     -5.558  0.1491E-01  0.3400E-01
     -5.434  0.5579E-02  0.3469E-01
     -5.310  0.9033E-02  0.3581E-01
     -5.186  0.1602E-01  0.3780E-01
     -5.062  0.1399E-01  0.3954E-01
     -4.938  0.1026E-01  0.4081E-01
     -4.814  0.1390E-01  0.4253E-01
     -4.690  0.1171E-01  0.4399E-01
     -4.566  0.1182E-01  0.4545E-01
     -4.441  0.1573E-01  0.4741E-01
     -4.317  0.1519E-01  0.4929E-01
     -4.193  0.1625E-01  0.5131E-01
     -4.069  0.1210E-01  0.5281E-01
     -3.945  0.1257E-01  0.5437E-01
     -3.821  0.1832E-01  0.5664E-01
     -3.697  0.1316E-01  0.5827E-01
     -3.573  0.9409E-02  0.5944E-01
     -3.449  0.1142E-01  0.6086E-01
     -3.325  0.7986E-02  0.6185E-01
     -3.201  0.1457E-01  0.6365E-01
     -3.077  0.1859E-01  0.6596E-01
     -2.953  0.5922E-02  0.6669E-01
     -2.829  0.8022E-02  0.6769E-01
     -2.705  0.1347E-01  0.6936E-01
     -2.581  0.9073E-02  0.7049E-01
     -2.457  0.1210E-01  0.7199E-01
     -2.332  0.5421E-02  0.7266E-01
     -2.208  0.8001E-02  0.7365E-01
     -2.084  0.1005E-01  0.7490E-01
     -1.960  0.1092E-01  0.7625E-01
     -1.836  0.1410E-01  0.7800E-01
     -1.712  0.1542E-01  0.7992E-01
     -1.588  0.1216E-01  0.8143E-01
     -1.464  0.7398E-02  0.8234E-01
     -1.340  0.9938E-02  0.8358E-01
     -1.216  0.1028E-01  0.8485E-01
     -1.092  0.7226E-02  0.8575E-01
     -0.968  0.8723E-02  0.8683E-01
     -0.844  0.2030E-01  0.8935E-01
     -0.720  0.1185E-01  0.9082E-01
     -0.596  0.1907E-01  0.9319E-01
     -0.472  0.2236E-01  0.9596E-01
     -0.348  0.2438E-01  0.9898E-01
     -0.223  0.1881E-01  0.1013E+00
     -0.099  0.1434E-01  0.1031E+00
      0.025  0.2028E-01  0.1056E+00
      0.149  0.1966E-01  0.1081E+00
      0.273  0.2402E-01  0.1110E+00
      0.397  0.1939E-01  0.1134E+00
      0.521  0.1572E-01  0.1154E+00
      0.645  0.7314E-02  0.1163E+00
      0.769  0.9922E-02  0.1175E+00
      0.893  0.1622E-01  0.1195E+00
      1.017  0.7088E-02  0.1204E+00
      1.141  0.1393E-01  0.1221E+00
      1.265  0.1049E-01  0.1234E+00
      1.389  0.1640E-01  0.1255E+00
      1.513  0.1153E-01  0.1269E+00
      1.637  0.7195E-02  0.1278E+00
      1.762  0.1379E-01  0.1295E+00
      1.886  0.1555E-01  0.1314E+00
      2.010  0.1007E-01  0.1327E+00
      2.134  0.1190E-01  0.1342E+00
      2.258  0.2130E-01  0.1368E+00
      2.382  0.1615E-01  0.1388E+00
      2.506  0.2471E-01  0.1419E+00
      2.630  0.2283E-01  0.1447E+00
      2.754  0.2119E-01  0.1473E+00
      2.878  0.1776E-01  0.1495E+00
      3.002  0.2151E-01  0.1522E+00
      3.126  0.1559E-01  0.1541E+00
      3.250  0.1113E-01  0.1555E+00
      3.374  0.2743E-01  0.1589E+00
      3.498  0.2770E-01  0.1624E+00
      3.622  0.2382E-01  0.1653E+00
      3.746  0.1075E-01  0.1667E+00
      3.871  0.2594E-01  0.1699E+00
      3.995  0.1679E-01  0.1720E+00
      4.119  0.2342E-01  0.1749E+00
      4.243  0.2835E-01  0.1784E+00
      4.367  0.2689E-01  0.1817E+00
      4.491  0.1931E-01  0.1841E+00
      4.615  0.1882E-01  0.1864E+00
      4.739  0.3159E-01  0.1904E+00
      4.863  0.2833E-01  0.1939E+00
      4.987  0.3851E-01  0.1987E+00
      5.111  0.2720E-01  0.2020E+00
      5.235  0.2708E-01  0.2054E+00
      5.359  0.2635E-01  0.2087E+00
      5.483  0.2802E-01  0.2121E+00
      5.607  0.4391E-01  0.2176E+00
      5.731  0.3532E-01  0.2220E+00
      5.855  0.1861E-01  0.2243E+00
      5.980  0.1929E-01  0.2267E+00
      6.104  0.3418E-01  0.2309E+00
      6.228  0.3060E-01  0.2347E+00
      6.352  0.3761E-01  0.2394E+00
      6.476  0.2169E-01  0.2421E+00
      6.600  0.2415E-01  0.2451E+00
      6.724  0.3421E-01  0.2493E+00
      6.848  0.2316E-01  0.2522E+00
      6.972  0.2606E-01  0.2554E+00
      7.096  0.3027E-01  0.2592E+00
      7.220  0.2560E-01  0.2623E+00
      7.344  0.2043E-01  0.2649E+00
      7.468  0.3314E-01  0.2690E+00
      7.592  0.3113E-01  0.2728E+00
      7.716  0.2069E-01  0.2754E+00
      7.840  0.1941E-01  0.2778E+00
      7.965  0.2725E-01  0.2812E+00
      8.089  0.1956E-01  0.2836E+00
      8.213  0.4069E-01  0.2887E+00
      8.337  0.2368E-01  0.2916E+00
      8.461  0.1345E-01  0.2933E+00
      8.585  0.1643E-01  0.2953E+00
      8.709  0.2610E-01  0.2986E+00
      8.833  0.2023E-01  0.3011E+00
      8.957  0.1795E-01  0.3033E+00
      9.081  0.9545E-02  0.3045E+00
      9.205  0.7284E-02  0.3054E+00
      9.329  0.1453E-01  0.3072E+00
      9.453  0.1544E-01  0.3091E+00
      9.577  0.1289E-01  0.3107E+00
      9.701  0.6600E-02  0.3115E+00
      9.825  0.7706E-02  0.3125E+00
      9.949  0.6216E-02  0.3132E+00
     10.074  0.1203E-01  0.3147E+00
     10.198  0.7818E-02  0.3157E+00
     10.322  0.4414E-02  0.3163E+00
     10.446  0.5763E-02  0.3170E+00
     10.570  0.4336E-02  0.3175E+00
     10.694  0.6484E-02  0.3183E+00
     10.818  0.3265E-02  0.3187E+00
     10.942  0.4825E-02  0.3193E+00
     11.066  0.1539E-02  0.3195E+00
     11.190  0.2753E-02  0.3199E+00
     11.314  0.1149E-02  0.3200E+00
     11.438  0.5866E-04  0.3200E+00
     11.562  0.2144E-09  0.3200E+00
     11.686  0.0000E+00  0.3200E+00
     11.810  0.0000E+00  0.3200E+00
     11.934  0.0000E+00  0.3200E+00
     12.058  0.0000E+00  0.3200E+00
     12.183  0.0000E+00  0.3200E+00
     12.307  0.0000E+00  0.3200E+00
     12.431  0.0000E+00  0.3200E+00
     12.555  0.0000E+00  0.3200E+00
     12.679  0.0000E+00  0.3200E+00
     12.803  0.0000E+00  0.3200E+00
     12.927  0.0000E+00  0.3200E+00
     13.051  0.0000E+00  0.3200E+00
     13.175  0.0000E+00  0.3200E+00
     13.299  0.0000E+00  0.3200E+00
     13.423  0.0000E+00  0.3200E+00
     13.547  0.0000E+00  0.3200E+00
     13.671  0.0000E+00  0.3200E+00
     13.795  0.0000E+00  0.3200E+00
     13.919  0.0000E+00  0.3200E+00
     14.043  0.0000E+00  0.3200E+00
     14.168  0.0000E+00  0.3200E+00
     14.292  0.0000E+00  0.3200E+00
     14.416  0.0000E+00  0.3200E+00
     14.540  0.0000E+00  0.3200E+00
     14.664  0.0000E+00  0.3200E+00
     14.788  0.0000E+00  0.3200E+00
     14.912  0.0000E+00  0.3200E+00
     15.036  0.0000E+00  0.3200E+00
     15.160  0.0000E+00  0.3200E+00
     15.284  0.0000E+00  0.3200E+00
     15.408  0.1066E-11  0.3200E+00
     15.532  0.9754E-05  0.3200E+00
     15.656  0.2520E-02  0.3203E+00
     15.780  0.3183E-02  0.3207E+00
     15.904  0.2596E-02  0.3210E+00
     16.028  0.4933E-02  0.3216E+00
     16.152  0.9506E-02  0.3228E+00
     16.277  0.1001E-01  0.3241E+00
     16.401  0.7780E-02  0.3250E+00
     16.525  0.6136E-02  0.3258E+00
     16.649  0.9489E-02  0.3270E+00
     16.773  0.1839E-01  0.3292E+00
     16.897  0.1661E-01  0.3313E+00
     17.021  0.1723E-01  0.3334E+00
     17.145  0.1493E-01  0.3353E+00
     17.269  0.1299E-01  0.3369E+00
     17.393  0.2001E-01  0.3394E+00
     17.517  0.1215E-01  0.3409E+00
     17.641  0.1925E-01  0.3433E+00
     17.765  0.3022E-01  0.3470E+00
     17.889  0.2148E-01  0.3497E+00
     18.013  0.2076E-01  0.3523E+00
     18.137  0.1470E-01  0.3541E+00
     18.261  0.2047E-01  0.3566E+00
     18.386  0.3321E-01  0.3608E+00
     18.510  0.2076E-01  0.3633E+00
     18.634  0.2405E-01  0.3663E+00
     18.758  0.1620E-01  0.3683E+00
     18.882  0.2818E-01  0.3718E+00
     19.006  0.3396E-01  0.3760E+00
     19.130  0.3444E-01  0.3803E+00
     19.254  0.3517E-01  0.3847E+00
     19.378  0.3219E-01  0.3887E+00
     19.502  0.3510E-01  0.3930E+00
     19.626  0.3148E-01  0.3969E+00
     19.750  0.3698E-01  0.4015E+00
     19.874  0.3877E-01  0.4063E+00
     19.998  0.2658E-01  0.4096E+00
     20.122  0.4331E-01  0.4150E+00
     20.246  0.5671E-01  0.4220E+00
     20.370  0.3818E-01  0.4268E+00
     20.495  0.2486E-01  0.4299E+00
     20.619  0.3728E-01  0.4345E+00
     20.743  0.2134E-01  0.4371E+00
     20.867  0.3025E-01  0.4409E+00
     20.991  0.2260E-01  0.4437E+00
     21.115  0.1812E-01  0.4459E+00
     21.239  0.3994E-01  0.4509E+00
     21.363  0.3720E-01  0.4555E+00
     21.487  0.3628E-01  0.4600E+00
     21.611  0.1498E-01  0.4619E+00
     21.735  0.1839E-01  0.4641E+00
     21.859  0.3229E-01  0.4681E+00
     21.983  0.1524E-01  0.4700E+00
     22.107  0.8730E-02  0.4711E+00
     22.231  0.1409E-01  0.4729E+00
     22.355  0.2018E-01  0.4754E+00
     22.480  0.7079E-02  0.4762E+00
     22.604  0.1606E-01  0.4782E+00
     22.728  0.6086E-02  0.4790E+00
     22.852  0.4324E-02  0.4795E+00
     22.976  0.7152E-03  0.4796E+00
     23.100  0.2309E-03  0.4797E+00
     23.224  0.1544E-07  0.4797E+00
     23.348  0.2976E-03  0.4797E+00
     23.472  0.2489E-02  0.4800E+00
     23.596  0.3383E-04  0.4800E+00
     23.720  0.1150E-10  0.4800E+00
     23.844  0.0000E+00  0.4800E+00
     23.968  0.0000E+00  0.4800E+00
     24.092  0.0000E+00  0.4800E+00
     24.216  0.0000E+00  0.4800E+00
     24.340  0.0000E+00  0.4800E+00
     24.464  0.0000E+00  0.4800E+00
     24.589  0.0000E+00  0.4800E+00
     24.713  0.0000E+00  0.4800E+00
     24.837  0.0000E+00  0.4800E+00
     24.961  0.0000E+00  0.4800E+00
     25.085  0.0000E+00  0.4800E+00
