       N       E                     dE             d eps       ncg     rms          rms(c)
DAV:   1     0.998001636950E+02    0.99800E+02   -0.26040E+04  4032   0.199E+03
DAV:   2    -0.728133070480E+02   -0.17261E+03   -0.16946E+03  6624   0.226E+02
DAV:   3    -0.754489807438E+02   -0.26357E+01   -0.26357E+01  4632   0.395E+01
DAV:   4    -0.754645883409E+02   -0.15608E-01   -0.15608E-01  7584   0.236E+00
DAV:   5    -0.754645902536E+02   -0.19127E-05   -0.19127E-05  4512   0.312E-02    0.172E+01
DAV:   6    -0.734648973107E+02    0.19997E+01   -0.14991E+00  4560   0.659E+00    0.113E+01
DAV:   7    -0.727951187891E+02    0.66978E+00   -0.19380E+00  5592   0.755E+00    0.248E+00
DAV:   8    -0.727931516327E+02    0.19672E-02   -0.25898E-02  6696   0.123E+00    0.121E-01
DAV:   9    -0.727933118334E+02   -0.16020E-03   -0.44763E-04  5736   0.142E-01    0.616E-02
DAV:  10    -0.727934319901E+02   -0.12016E-03   -0.10961E-04  6360   0.838E-02    0.494E-03
DAV:  11    -0.727934332279E+02   -0.12379E-05   -0.18565E-06  6168   0.109E-02    0.310E-03
DAV:  12    -0.727934335723E+02   -0.34431E-06   -0.62174E-08  6168   0.230E-03    0.160E-04
DAV:  13    -0.727934335810E+02   -0.87584E-08   -0.10311E-10  6192   0.829E-05
   1 F= -.72793434E+02 E0= -.72793434E+02  d E =-.727934E+02
