 vasp.5.4.4.18Apr17-6-g9f103f2a35 (build Jan 14 2019 14:48:31) complex          
  
 executed on             LinuxIFC date 2019.08.26  21:13:34
 running on   24 total cores
 distrk:  each k-point on   24 cores,    1 groups
 distr:  one band on NCORES_PER_BAND=   1 cores,   24 groups


--------------------------------------------------------------------------------------------------------


 INCAR:
 POTCAR:    PAW_PBE C_h 06Feb2004                 

 ----------------------------------------------------------------------------- 
|                                                                             |
|           W    W    AA    RRRRR   N    N  II  N    N   GGGG   !!!           |
|           W    W   A  A   R    R  NN   N  II  NN   N  G    G  !!!           |
|           W    W  A    A  R    R  N N  N  II  N N  N  G       !!!           |
|           W WW W  AAAAAA  RRRRR   N  N N  II  N  N N  G  GGG   !            |
|           WW  WW  A    A  R   R   N   NN  II  N   NN  G    G                |
|           W    W  A    A  R    R  N    N  II  N    N   GGGG   !!!           |
|                                                                             |
|      For optimal performance we recommend to set                            |
|        NCORE= 4 - approx SQRT( number of cores)                             |
|      NCORE specifies how many cores store one orbital (NPAR=cpu/NCORE).     |
|      This setting can  greatly improve the performance of VASP for DFT.     |
|      The default,   NCORE=1            might be grossly inefficient         |
|      on modern multi-core architectures or massively parallel machines.     |
|      Do your own testing !!!!                                               |
|      Unfortunately you need to use the default for GW and RPA calculations. |
|      (for HF NCORE is supported but not extensively tested yet)             |
|                                                                             |
 ----------------------------------------------------------------------------- 

 POTCAR:    PAW_PBE C_h 06Feb2004                 
   VRHFIN =C: s2p2                                                              
   LEXCH  = PE                                                                  
   EATOM  =   147.1560 eV,   10.8157 Ry                                         
                                                                                
   TITEL  = PAW_PBE C_h 06Feb2004                                               
   LULTRA =        F    use ultrasoft PP ?                                      
   IUNSCR =        1    unscreen: 0-lin 1-nonlin 2-no                           
   RPACOR =    0.800    partial core radius                                     
   POMASS =   12.011; ZVAL   =    4.000    mass and valenz                      
   RCORE  =    1.100    outmost cutoff radius                                   
   RWIGS  =    1.630; RWIGS  =    0.863    wigner-seitz radius (au A)           
   ENMAX  =  700.000; ENMIN  =  500.000 eV                                      
   ICORE  =        2    local potential                                         
   LCOR   =        T    correct aug charges                                     
   LPAW   =        T    paw PP                                                  
   EAUG   =  946.768                                                            
   DEXC   =    0.000                                                            
   RMAX   =    1.128    core radius for proj-oper                               
   RAUG   =    1.300    factor for augmentation sphere                          
   RDEP   =    1.162    radius for radial grids                                 
   RDEPT  =    1.088    core radius for aug-charge                              
                                                                                
   Atomic configuration                                                         
    4 entries                                                                   
     n  l   j            E        occ.                                          
     1  0  0.50      -273.3789   2.0000                                         
     2  0  0.50       -13.7508   2.0000                                         
     2  1  0.50        -5.2854   2.0000                                         
     3  2  1.50        -5.4423   0.0000                                         
   Description                                                                  
     l       E           TYP  RCUT    TYP  RCUT                                 
     0    -13.7508458     23  1.100                                             
     0     -8.2022199     23  1.100                                             
     1     -5.2854383     23  1.100                                             
     1      1.1560700     23  1.100                                             
     2     -5.4423304      7  1.100                                             
  local pseudopotential read in
  partial core-charges read in
  partial kinetic energy density read in
  atomic valenz-charges read in
  non local Contribution for L=           0  read in
    real space projection operators read in
  non local Contribution for L=           0  read in
    real space projection operators read in
  non local Contribution for L=           1  read in
    real space projection operators read in
  non local Contribution for L=           1  read in
    real space projection operators read in
    PAW grid and wavefunctions read in
 
   number of l-projection  operators is LMAX  =           4
   number of lm-projection operators is LMMAX =           8
 
  PAW_PBE C_h 06Feb2004                 :
 energy of atom  1       EATOM= -147.1560
 kinetic energy error for atom=    0.0044 (will be added to EATOM!!)
 
 
 POSCAR: C8                                      
  positions in direct lattice
  velocities in cartesian coordinates
 exchange correlation table for  LEXCH =        8
   RHO(1)=    0.500       N(1)  =     2000
   RHO(2)=  100.500       N(2)  =     4000

 VTST: version 3.1, (03/28/14)

 CHAIN: initializing optimizer
 
 OPT: Using VASP Conjugate-Gradient optimizer
 CHAIN: Read ICHAIN            0
 
 POSCAR: C8                                      
  positions in direct lattice
  velocities in cartesian coordinates
 


--------------------------------------------------------------------------------------------------------


 ion  position               nearest neighbor table
   1  0.250  0.250  0.250-   2 1.53   4 1.53   6 1.53   8 1.53
   2  0.000  0.000  0.000-   1 1.53   3 1.53   5 1.53   7 1.53
   3  0.250  0.750  0.750-   2 1.53   4 1.53   6 1.53   8 1.53
   4  0.000  0.500  0.500-   1 1.53   3 1.53   5 1.53   7 1.53
   5  0.750  0.250  0.750-   2 1.53   4 1.53   6 1.53   8 1.53
   6  0.500  0.000  0.500-   1 1.53   3 1.53   5 1.53   7 1.53
   7  0.750  0.750  0.250-   2 1.53   4 1.53   6 1.53   8 1.53
   8  0.500  0.500  0.000-   1 1.53   3 1.53   5 1.53   7 1.53
 
  LATTYP: Found a simple cubic cell.
 ALAT       =     3.5378690203
  
  Lattice vectors:
  
 A1 = (   3.5378690203,   0.0000000000,   0.0000000000)
 A2 = (   0.0000000000,   3.5378690203,   0.0000000000)
 A3 = (   0.0000000000,   0.0000000000,   3.5378690203)


Analysis of symmetry for initial positions (statically):
=====================================================================
 Subroutine PRICEL returns following result:
 
  LATTYP: Found a face centered cubic cell.
 ALAT       =     3.5378690203
  
  Lattice vectors:
  
 A1 = (   1.7689345101,   1.7689345101,   0.0000000000)
 A2 = (   1.7689345101,   0.0000000000,  -1.7689345101)
 A3 = (   0.0000000000,   1.7689345101,  -1.7689345101)
 
   4 primitive cells build up your supercell.
 

 Routine SETGRP: Setting up the symmetry group for a 
 simple cubic supercell.


 Subroutine GETGRP returns: Found 48 space group operations
 (whereof 24 operations were pure point group operations)
 out of a pool of 48 trial point group operations.


The static configuration has the point symmetry T_d .
 The point group associated with its full space group is O_h .


Analysis of symmetry for dynamics (positions and initial velocities):
=====================================================================
 Subroutine PRICEL returns following result:
 
  LATTYP: Found a face centered cubic cell.
 ALAT       =     3.5378690203
  
  Lattice vectors:
  
 A1 = (   1.7689345101,   1.7689345101,   0.0000000000)
 A2 = (   1.7689345101,   0.0000000000,  -1.7689345101)
 A3 = (   0.0000000000,   1.7689345101,  -1.7689345101)
 
   4 primitive cells build up your supercell.
 

 Routine SETGRP: Setting up the symmetry group for a 
 simple cubic supercell.


 Subroutine GETGRP returns: Found 48 space group operations
 (whereof 24 operations were pure point group operations)
 out of a pool of 48 trial point group operations.


The dynamic configuration has the point symmetry T_d .
 The point group associated with its full space group is O_h .


 Subroutine INISYM returns: Found 48 space group operations
 (whereof 24 operations are pure point group operations),
 and found     4 'primitive' translations

 
 
 KPOINTS: K-Mesh Generated with KP-Resolved Value 

Automatic generation of k-mesh.
Space group operators:
 irot       det(A)        alpha          n_x          n_y          n_z        tau_x        tau_y        tau_z
    1     1.000000     0.000000     1.000000     0.000000     0.000000     0.000000     0.000000     0.000000
    2     1.000000   120.000000    -0.577350    -0.577350    -0.577350     0.000000     0.000000     0.000000
    3     1.000000   120.000000     0.577350     0.577350     0.577350     0.000000     0.000000     0.000000
    4    -1.000000    90.000000     0.000000     0.000000    -1.000000     0.000000     0.000000     0.000000
    5    -1.000000   180.000000     0.000000     0.707107     0.707107     0.000000     0.000000     0.000000
    6    -1.000000    90.000000     0.000000     1.000000     0.000000     0.000000     0.000000     0.000000
    7     1.000000   180.000000     0.000000     0.000000     1.000000     0.000000     0.000000     0.000000
    8     1.000000   120.000000    -0.577350     0.577350     0.577350     0.000000     0.000000     0.000000
    9     1.000000   120.000000    -0.577350     0.577350    -0.577350     0.000000     0.000000     0.000000
   10    -1.000000    90.000000     0.000000     0.000000     1.000000     0.000000     0.000000     0.000000
   11    -1.000000    90.000000    -1.000000     0.000000     0.000000     0.000000     0.000000     0.000000
   12    -1.000000   180.000000     0.707107     0.000000     0.707107     0.000000     0.000000     0.000000
   13     1.000000   120.000000     0.577350    -0.577350     0.577350     0.000000     0.000000     0.000000
   14     1.000000   120.000000    -0.577350    -0.577350     0.577350     0.000000     0.000000     0.000000
   15     1.000000   180.000000     1.000000     0.000000     0.000000     0.000000     0.000000     0.000000
   16    -1.000000    90.000000     0.000000    -1.000000     0.000000     0.000000     0.000000     0.000000
   17    -1.000000   180.000000     0.707107     0.707107     0.000000     0.000000     0.000000     0.000000
   18    -1.000000    90.000000     1.000000     0.000000     0.000000     0.000000     0.000000     0.000000
   19     1.000000   120.000000     0.577350    -0.577350    -0.577350     0.000000     0.000000     0.000000
   20     1.000000   180.000000     0.000000     1.000000     0.000000     0.000000     0.000000     0.000000
   21     1.000000   120.000000     0.577350     0.577350    -0.577350     0.000000     0.000000     0.000000
   22    -1.000000   180.000000     0.000000    -0.707107     0.707107     0.000000     0.000000     0.000000
   23    -1.000000   180.000000     0.707107    -0.707107     0.000000     0.000000     0.000000     0.000000
   24    -1.000000   180.000000     0.707107     0.000000    -0.707107     0.000000     0.000000     0.000000
   25    -1.000000     0.000000     1.000000     0.000000     0.000000     0.750000     0.750000    -0.750000
   26    -1.000000   120.000000    -0.577350    -0.577350    -0.577350     0.750000     0.750000    -0.750000
   27    -1.000000   120.000000     0.577350     0.577350     0.577350     0.750000     0.750000    -0.750000
   28     1.000000    90.000000     0.000000     0.000000    -1.000000     0.750000     0.750000    -0.750000
   29     1.000000   180.000000     0.000000     0.707107     0.707107     0.750000     0.750000    -0.750000
   30     1.000000    90.000000     0.000000     1.000000     0.000000     0.750000     0.750000    -0.750000
   31    -1.000000   180.000000     0.000000     0.000000     1.000000     0.750000     0.750000    -0.750000
   32    -1.000000   120.000000    -0.577350     0.577350     0.577350     0.750000     0.750000    -0.750000
   33    -1.000000   120.000000    -0.577350     0.577350    -0.577350     0.750000     0.750000    -0.750000
   34     1.000000    90.000000     0.000000     0.000000     1.000000     0.750000     0.750000    -0.750000
   35     1.000000    90.000000    -1.000000     0.000000     0.000000     0.750000     0.750000    -0.750000
   36     1.000000   180.000000     0.707107     0.000000     0.707107     0.750000     0.750000    -0.750000
   37    -1.000000   120.000000     0.577350    -0.577350     0.577350     0.750000     0.750000    -0.750000
   38    -1.000000   120.000000    -0.577350    -0.577350     0.577350     0.750000     0.750000    -0.750000
   39    -1.000000   180.000000     1.000000     0.000000     0.000000     0.750000     0.750000    -0.750000
   40     1.000000    90.000000     0.000000    -1.000000     0.000000     0.750000     0.750000    -0.750000
   41     1.000000   180.000000     0.707107     0.707107     0.000000     0.750000     0.750000    -0.750000
   42     1.000000    90.000000     1.000000     0.000000     0.000000     0.750000     0.750000    -0.750000
   43    -1.000000   120.000000     0.577350    -0.577350    -0.577350     0.750000     0.750000    -0.750000
   44    -1.000000   180.000000     0.000000     1.000000     0.000000     0.750000     0.750000    -0.750000
   45    -1.000000   120.000000     0.577350     0.577350    -0.577350     0.750000     0.750000    -0.750000
   46     1.000000   180.000000     0.000000    -0.707107     0.707107     0.750000     0.750000    -0.750000
   47     1.000000   180.000000     0.707107    -0.707107     0.000000     0.750000     0.750000    -0.750000
   48     1.000000   180.000000     0.707107     0.000000    -0.707107     0.750000     0.750000    -0.750000
 
 Subroutine IBZKPT returns following result:
 ===========================================
 
 Found     84 irreducible k-points:
 
 Following reciprocal coordinates:
            Coordinates               Weight
  0.035714  0.035714  0.035714      8.000000
  0.107143  0.035714  0.035714     24.000000
  0.178571  0.035714  0.035714     24.000000
  0.250000  0.035714  0.035714     24.000000
  0.321429  0.035714  0.035714     24.000000
  0.392857  0.035714  0.035714     24.000000
  0.464286  0.035714  0.035714     24.000000
  0.107143  0.107143  0.035714     24.000000
  0.178571  0.107143  0.035714     48.000000
  0.250000  0.107143  0.035714     48.000000
  0.321429  0.107143  0.035714     48.000000
  0.392857  0.107143  0.035714     48.000000
  0.464286  0.107143  0.035714     48.000000
  0.178571  0.178571  0.035714     24.000000
  0.250000  0.178571  0.035714     48.000000
  0.321429  0.178571  0.035714     48.000000
  0.392857  0.178571  0.035714     48.000000
  0.464286  0.178571  0.035714     48.000000
  0.250000  0.250000  0.035714     24.000000
  0.321429  0.250000  0.035714     48.000000
  0.392857  0.250000  0.035714     48.000000
  0.464286  0.250000  0.035714     48.000000
  0.321429  0.321429  0.035714     24.000000
  0.392857  0.321429  0.035714     48.000000
  0.464286  0.321429  0.035714     48.000000
  0.392857  0.392857  0.035714     24.000000
  0.464286  0.392857  0.035714     48.000000
  0.464286  0.464286  0.035714     24.000000
  0.107143  0.107143  0.107143      8.000000
  0.178571  0.107143  0.107143     24.000000
  0.250000  0.107143  0.107143     24.000000
  0.321429  0.107143  0.107143     24.000000
  0.392857  0.107143  0.107143     24.000000
  0.464286  0.107143  0.107143     24.000000
  0.178571  0.178571  0.107143     24.000000
  0.250000  0.178571  0.107143     48.000000
  0.321429  0.178571  0.107143     48.000000
  0.392857  0.178571  0.107143     48.000000
  0.464286  0.178571  0.107143     48.000000
  0.250000  0.250000  0.107143     24.000000
  0.321429  0.250000  0.107143     48.000000
  0.392857  0.250000  0.107143     48.000000
  0.464286  0.250000  0.107143     48.000000
  0.321429  0.321429  0.107143     24.000000
  0.392857  0.321429  0.107143     48.000000
  0.464286  0.321429  0.107143     48.000000
  0.392857  0.392857  0.107143     24.000000
  0.464286  0.392857  0.107143     48.000000
  0.464286  0.464286  0.107143     24.000000
  0.178571  0.178571  0.178571      8.000000
  0.250000  0.178571  0.178571     24.000000
  0.321429  0.178571  0.178571     24.000000
  0.392857  0.178571  0.178571     24.000000
  0.464286  0.178571  0.178571     24.000000
  0.250000  0.250000  0.178571     24.000000
  0.321429  0.250000  0.178571     48.000000
  0.392857  0.250000  0.178571     48.000000
  0.464286  0.250000  0.178571     48.000000
  0.321429  0.321429  0.178571     24.000000
  0.392857  0.321429  0.178571     48.000000
  0.464286  0.321429  0.178571     48.000000
  0.392857  0.392857  0.178571     24.000000
  0.464286  0.392857  0.178571     48.000000
  0.464286  0.464286  0.178571     24.000000
  0.250000  0.250000  0.250000      8.000000
  0.321429  0.250000  0.250000     24.000000
  0.392857  0.250000  0.250000     24.000000
  0.464286  0.250000  0.250000     24.000000
  0.321429  0.321429  0.250000     24.000000
  0.392857  0.321429  0.250000     48.000000
  0.464286  0.321429  0.250000     48.000000
  0.392857  0.392857  0.250000     24.000000
  0.464286  0.392857  0.250000     48.000000
  0.464286  0.464286  0.250000     24.000000
  0.321429  0.321429  0.321429      8.000000
  0.392857  0.321429  0.321429     24.000000
  0.464286  0.321429  0.321429     24.000000
  0.392857  0.392857  0.321429     24.000000
  0.464286  0.392857  0.321429     48.000000
  0.464286  0.464286  0.321429     24.000000
  0.392857  0.392857  0.392857      8.000000
  0.464286  0.392857  0.392857     24.000000
  0.464286  0.464286  0.392857     24.000000
  0.464286  0.464286  0.464286      8.000000
 
 Following cartesian coordinates:
            Coordinates               Weight
  0.010095  0.010095  0.010095      8.000000
  0.030285  0.010095  0.010095     24.000000
  0.050474  0.010095  0.010095     24.000000
  0.070664  0.010095  0.010095     24.000000
  0.090854  0.010095  0.010095     24.000000
  0.111043  0.010095  0.010095     24.000000
  0.131233  0.010095  0.010095     24.000000
  0.030285  0.030285  0.010095     24.000000
  0.050474  0.030285  0.010095     48.000000
  0.070664  0.030285  0.010095     48.000000
  0.090854  0.030285  0.010095     48.000000
  0.111043  0.030285  0.010095     48.000000
  0.131233  0.030285  0.010095     48.000000
  0.050474  0.050474  0.010095     24.000000
  0.070664  0.050474  0.010095     48.000000
  0.090854  0.050474  0.010095     48.000000
  0.111043  0.050474  0.010095     48.000000
  0.131233  0.050474  0.010095     48.000000
  0.070664  0.070664  0.010095     24.000000
  0.090854  0.070664  0.010095     48.000000
  0.111043  0.070664  0.010095     48.000000
  0.131233  0.070664  0.010095     48.000000
  0.090854  0.090854  0.010095     24.000000
  0.111043  0.090854  0.010095     48.000000
  0.131233  0.090854  0.010095     48.000000
  0.111043  0.111043  0.010095     24.000000
  0.131233  0.111043  0.010095     48.000000
  0.131233  0.131233  0.010095     24.000000
  0.030285  0.030285  0.030285      8.000000
  0.050474  0.030285  0.030285     24.000000
  0.070664  0.030285  0.030285     24.000000
  0.090854  0.030285  0.030285     24.000000
  0.111043  0.030285  0.030285     24.000000
  0.131233  0.030285  0.030285     24.000000
  0.050474  0.050474  0.030285     24.000000
  0.070664  0.050474  0.030285     48.000000
  0.090854  0.050474  0.030285     48.000000
  0.111043  0.050474  0.030285     48.000000
  0.131233  0.050474  0.030285     48.000000
  0.070664  0.070664  0.030285     24.000000
  0.090854  0.070664  0.030285     48.000000
  0.111043  0.070664  0.030285     48.000000
  0.131233  0.070664  0.030285     48.000000
  0.090854  0.090854  0.030285     24.000000
  0.111043  0.090854  0.030285     48.000000
  0.131233  0.090854  0.030285     48.000000
  0.111043  0.111043  0.030285     24.000000
  0.131233  0.111043  0.030285     48.000000
  0.131233  0.131233  0.030285     24.000000
  0.050474  0.050474  0.050474      8.000000
  0.070664  0.050474  0.050474     24.000000
  0.090854  0.050474  0.050474     24.000000
  0.111043  0.050474  0.050474     24.000000
  0.131233  0.050474  0.050474     24.000000
  0.070664  0.070664  0.050474     24.000000
  0.090854  0.070664  0.050474     48.000000
  0.111043  0.070664  0.050474     48.000000
  0.131233  0.070664  0.050474     48.000000
  0.090854  0.090854  0.050474     24.000000
  0.111043  0.090854  0.050474     48.000000
  0.131233  0.090854  0.050474     48.000000
  0.111043  0.111043  0.050474     24.000000
  0.131233  0.111043  0.050474     48.000000
  0.131233  0.131233  0.050474     24.000000
  0.070664  0.070664  0.070664      8.000000
  0.090854  0.070664  0.070664     24.000000
  0.111043  0.070664  0.070664     24.000000
  0.131233  0.070664  0.070664     24.000000
  0.090854  0.090854  0.070664     24.000000
  0.111043  0.090854  0.070664     48.000000
  0.131233  0.090854  0.070664     48.000000
  0.111043  0.111043  0.070664     24.000000
  0.131233  0.111043  0.070664     48.000000
  0.131233  0.131233  0.070664     24.000000
  0.090854  0.090854  0.090854      8.000000
  0.111043  0.090854  0.090854     24.000000
  0.131233  0.090854  0.090854     24.000000
  0.111043  0.111043  0.090854     24.000000
  0.131233  0.111043  0.090854     48.000000
  0.131233  0.131233  0.090854     24.000000
  0.111043  0.111043  0.111043      8.000000
  0.131233  0.111043  0.111043     24.000000
  0.131233  0.131233  0.111043     24.000000
  0.131233  0.131233  0.131233      8.000000
 


--------------------------------------------------------------------------------------------------------




 Dimension of arrays:
   k-points           NKPTS =     84   k-points in BZ     NKDIM =     84   number of bands    NBANDS=     24
   number of dos      NEDOS =    301   number of ions     NIONS =      8
   non local maximal  LDIM  =      4   non local SUM 2l+1 LMDIM =      8
   total plane-waves  NPLWV =  46656
   max r-space proj   IRMAX =      1   max aug-charges    IRDMAX=  16765
   dimension x,y,z NGX =    36 NGY =   36 NGZ =   36
   dimension x,y,z NGXF=    48 NGYF=   48 NGZF=   48
   support grid    NGXF=    96 NGYF=   96 NGZF=   96
   ions per type =               8
   NGX,Y,Z   is equivalent  to a cutoff of  16.92, 16.92, 16.92 a.u.
   NGXF,Y,Z  is equivalent  to a cutoff of  22.56, 22.56, 22.56 a.u.

 SYSTEM =  unknown system                          
 POSCAR =  C8                                      

 Startparameter for this run:
   NWRITE =      2    write-flag & timer
   PREC   = high      normal or accurate (medium, high low for compatibility)
   ISTART =      0    job   : 0-new  1-cont  2-samecut
   ICHARG =      2    charge: 1-file 2-atom 10-const
   ISPIN  =      1    spin polarized calculation?
   LNONCOLLINEAR =      F non collinear calculations
   LSORBIT =      F    spin-orbit coupling
   INIWAV =      1    electr: 0-lowe 1-rand  2-diag
   LASPH  =      F    aspherical Exc in radial PAW
   METAGGA=      F    non-selfconsistent MetaGGA calc.

 Electronic Relaxation 1
   ENCUT  =  875.0 eV  64.31 Ry    8.02 a.u.   8.53  8.53  8.53*2*pi/ulx,y,z
   ENINI  =  875.0     initial cutoff
   ENAUG  =  946.8 eV  augmentation charge cutoff
   NELM   =     40;   NELMIN=  4; NELMDL= -5     # of ELM steps 
   EDIFF  = 0.1E-07   stopping-criterion for ELM
   LREAL  =      F    real-space projection
   NLSPLINE    = F    spline interpolate recip. space projectors
   LCOMPAT=      F    compatible to vasp.4.4
   GGA_COMPAT  = T    GGA compatible to vasp.4.4-vasp.4.6
   LMAXPAW     = -100 max onsite density
   LMAXMIX     =    2 max onsite mixed and CHGCAR
   VOSKOWN=      0    Vosko Wilk Nusair interpolation
   ROPT   =    0.00000
 Ionic relaxation
   EDIFFG = -.1E-01   stopping-criterion for IOM
   NSW    =    100    number of steps for IOM
   NBLOCK =      1;   KBLOCK =    100    inner block; outer block 
   IBRION =      2    ionic relax: 0-MD 1-quasi-New 2-CG
   NFREE  =      1    steps in history (QN), initial steepest desc. (CG)
   ISIF   =      2    stress and relaxation
   IWAVPR =     11    prediction:  0-non 1-charg 2-wave 3-comb
   ISYM   =      2    0-nonsym 1-usesym 2-fastsym
   LCORR  =      T    Harris-Foulkes like correction to forces

   POTIM  = 0.5000    time-step for ionic-motion
   TEIN   =    0.0    initial temperature
   TEBEG  =    0.0;   TEEND  =   0.0 temperature during run
   SMASS  =  -3.00    Nose mass-parameter (am)
   estimated Nose-frequenzy (Omega)   =  0.10E-29 period in steps =****** mass=  -0.286E-27a.u.
   SCALEE = 1.0000    scale energy and forces
   NPACO  =    256;   APACO  = 16.0  distance and # of slots for P.C.
   PSTRESS=    0.0 pullay stress

  Mass of Ions in am
   POMASS =  12.01
  Ionic Valenz
   ZVAL   =   4.00
  Atomic Wigner-Seitz radii
   RWIGS  =  -1.00
  virtual crystal weights 
   VCA    =   1.00
   NELECT =      32.0000    total number of electrons
   NUPDOWN=      -1.0000    fix difference up-down

 DOS related values:
   EMIN   =  10.00;   EMAX   =-10.00  energy-range for DOS
   EFERMI =   0.00
   ISMEAR =     0;   SIGMA  =   0.05  broadening in eV -4-tet -1-fermi 0-gaus

 Electronic relaxation 2 (details)
   IALGO  =     38    algorithm
   LDIAG  =      T    sub-space diagonalisation (order eigenvalues)
   LSUBROT=      F    optimize rotation matrix (better conditioning)
   TURBO    =      0    0=normal 1=particle mesh
   IRESTART =      0    0=no restart 2=restart with 2 vectors
   NREBOOT  =      0    no. of reboots
   NMIN     =      0    reboot dimension
   EREF     =   0.00    reference energy to select bands
   IMIX   =      4    mixing-type and parameters
     AMIX     =   0.40;   BMIX     =  1.00
     AMIX_MAG =   1.60;   BMIX_MAG =  1.00
     AMIN     =   0.10
     WC   =   100.;   INIMIX=   1;  MIXPRE=   1;  MAXMIX= -45

 Intra band minimization:
   WEIMIN = 0.0010     energy-eigenvalue tresh-hold
   EBREAK =  0.10E-09  absolut break condition
   DEPER  =   0.30     relativ break condition  

   TIME   =   0.40     timestep for ELM

  volume/ion in A,a.u.               =       5.54        37.35
  Fermi-wavevector in a.u.,A,eV,Ry     =   1.469095  2.776186 29.364621  2.158239
  Thomas-Fermi vector in A             =   2.584513
 
 Write flags
   LWAVE        =      F    write WAVECAR
   LDOWNSAMPLE  =      F    k-point downsampling of WAVECAR
   LCHARG       =      F    write CHGCAR
   LVTOT        =      F    write LOCPOT, total local potential
   LVHAR        =      F    write LOCPOT, Hartree potential only
   LELF         =      F    write electronic localiz. function (ELF)
   LORBIT       =      0    0 simple, 1 ext, 2 COOP (PROOUT), +10 PAW based schemes


 Dipole corrections
   LMONO  =      F    monopole corrections only (constant potential shift)
   LDIPOL =      F    correct potential (dipole corrections)
   IDIPOL =      0    1-x, 2-y, 3-z, 4-all directions 
   EPSILON=  1.0000000 bulk dielectric constant

 Exchange correlation treatment:
   GGA     =    --    GGA type
   LEXCH   =     8    internal setting for exchange type
   VOSKOWN=      0    Vosko Wilk Nusair interpolation
   LHFCALC =     F    Hartree Fock is set to
   LHFONE  =     F    Hartree Fock one center treatment
   AEXX    =    0.0000 exact exchange contribution

 Linear response parameters
   LEPSILON=     F    determine dielectric tensor
   LRPA    =     F    only Hartree local field effects (RPA)
   LNABLA  =     F    use nabla operator in PAW spheres
   LVEL    =     F    velocity operator in full k-point grid
   LINTERFAST=   F  fast interpolation
   KINTER  =     0    interpolate to denser k-point grid
   CSHIFT  =0.1000    complex shift for real part using Kramers Kronig
   OMEGAMAX=  -1.0    maximum frequency
   DEG_THRESHOLD= 0.2000000E-02 threshold for treating states as degnerate
   RTIME   =   -0.100 relaxation time in fs
  (WPLASMAI=    0.000 imaginary part of plasma frequency in eV, 0.658/RTIME)
   DFIELD  = 0.0000000 0.0000000 0.0000000 field for delta impulse in time
 
 Orbital magnetization related:
   ORBITALMAG=     F  switch on orbital magnetization
   LCHIMAG   =     F  perturbation theory with respect to B field
   DQ        =  0.001000  dq finite difference perturbation B field
   LLRAUG    =     F  two centre corrections for induced B field



--------------------------------------------------------------------------------------------------------


 conjugate gradient relaxation of ions
 charge density and potential will be updated during run
 non-spin polarized calculation
 Variant of blocked Davidson
 Davidson routine will perform the subspace rotation
 perform sub-space diagonalisation
    after iterative eigenvector-optimisation
 modified Broyden-mixing scheme, WC =      100.0
 initial mixing is a Kerker type mixing with AMIX =  0.4000 and BMIX =      1.0000
 Hartree-type preconditioning will be used
 using additional bands            8
 reciprocal scheme for non local part
 use partial core corrections
 calculate Harris-corrections to forces 
   (improved forces if not selfconsistent)
 use gradient corrections 
 use of overlap-Matrix (Vanderbilt PP)
 Gauss-broadening in eV      SIGMA  =   0.05


--------------------------------------------------------------------------------------------------------


  energy-cutoff  :      875.00
  volume of cell :       44.28
      direct lattice vectors                 reciprocal lattice vectors
     3.537869020  0.000000000  0.000000000     0.282656027  0.000000000  0.000000000
     0.000000000  3.537869020  0.000000000     0.000000000  0.282656027  0.000000000
     0.000000000  0.000000000  3.537869020     0.000000000  0.000000000  0.282656027

  length of vectors
     3.537869020  3.537869020  3.537869020     0.282656027  0.282656027  0.282656027


 
 k-points in units of 2pi/SCALE and weight: K-Mesh Generated with KP-Resolved Value 
   0.01009486  0.01009486  0.01009486       0.003
   0.03028457  0.01009486  0.01009486       0.009
   0.05047429  0.01009486  0.01009486       0.009
   0.07066401  0.01009486  0.01009486       0.009
   0.09085372  0.01009486  0.01009486       0.009
   0.11104344  0.01009486  0.01009486       0.009
   0.13123316  0.01009486  0.01009486       0.009
   0.03028457  0.03028457  0.01009486       0.009
   0.05047429  0.03028457  0.01009486       0.017
   0.07066401  0.03028457  0.01009486       0.017
   0.09085372  0.03028457  0.01009486       0.017
   0.11104344  0.03028457  0.01009486       0.017
   0.13123316  0.03028457  0.01009486       0.017
   0.05047429  0.05047429  0.01009486       0.009
   0.07066401  0.05047429  0.01009486       0.017
   0.09085372  0.05047429  0.01009486       0.017
   0.11104344  0.05047429  0.01009486       0.017
   0.13123316  0.05047429  0.01009486       0.017
   0.07066401  0.07066401  0.01009486       0.009
   0.09085372  0.07066401  0.01009486       0.017
   0.11104344  0.07066401  0.01009486       0.017
   0.13123316  0.07066401  0.01009486       0.017
   0.09085372  0.09085372  0.01009486       0.009
   0.11104344  0.09085372  0.01009486       0.017
   0.13123316  0.09085372  0.01009486       0.017
   0.11104344  0.11104344  0.01009486       0.009
   0.13123316  0.11104344  0.01009486       0.017
   0.13123316  0.13123316  0.01009486       0.009
   0.03028457  0.03028457  0.03028457       0.003
   0.05047429  0.03028457  0.03028457       0.009
   0.07066401  0.03028457  0.03028457       0.009
   0.09085372  0.03028457  0.03028457       0.009
   0.11104344  0.03028457  0.03028457       0.009
   0.13123316  0.03028457  0.03028457       0.009
   0.05047429  0.05047429  0.03028457       0.009
   0.07066401  0.05047429  0.03028457       0.017
   0.09085372  0.05047429  0.03028457       0.017
   0.11104344  0.05047429  0.03028457       0.017
   0.13123316  0.05047429  0.03028457       0.017
   0.07066401  0.07066401  0.03028457       0.009
   0.09085372  0.07066401  0.03028457       0.017
   0.11104344  0.07066401  0.03028457       0.017
   0.13123316  0.07066401  0.03028457       0.017
   0.09085372  0.09085372  0.03028457       0.009
   0.11104344  0.09085372  0.03028457       0.017
   0.13123316  0.09085372  0.03028457       0.017
   0.11104344  0.11104344  0.03028457       0.009
   0.13123316  0.11104344  0.03028457       0.017
   0.13123316  0.13123316  0.03028457       0.009
   0.05047429  0.05047429  0.05047429       0.003
   0.07066401  0.05047429  0.05047429       0.009
   0.09085372  0.05047429  0.05047429       0.009
   0.11104344  0.05047429  0.05047429       0.009
   0.13123316  0.05047429  0.05047429       0.009
   0.07066401  0.07066401  0.05047429       0.009
   0.09085372  0.07066401  0.05047429       0.017
   0.11104344  0.07066401  0.05047429       0.017
   0.13123316  0.07066401  0.05047429       0.017
   0.09085372  0.09085372  0.05047429       0.009
   0.11104344  0.09085372  0.05047429       0.017
   0.13123316  0.09085372  0.05047429       0.017
   0.11104344  0.11104344  0.05047429       0.009
   0.13123316  0.11104344  0.05047429       0.017
   0.13123316  0.13123316  0.05047429       0.009
   0.07066401  0.07066401  0.07066401       0.003
   0.09085372  0.07066401  0.07066401       0.009
   0.11104344  0.07066401  0.07066401       0.009
   0.13123316  0.07066401  0.07066401       0.009
   0.09085372  0.09085372  0.07066401       0.009
   0.11104344  0.09085372  0.07066401       0.017
   0.13123316  0.09085372  0.07066401       0.017
   0.11104344  0.11104344  0.07066401       0.009
   0.13123316  0.11104344  0.07066401       0.017
   0.13123316  0.13123316  0.07066401       0.009
   0.09085372  0.09085372  0.09085372       0.003
   0.11104344  0.09085372  0.09085372       0.009
   0.13123316  0.09085372  0.09085372       0.009
   0.11104344  0.11104344  0.09085372       0.009
   0.13123316  0.11104344  0.09085372       0.017
   0.13123316  0.13123316  0.09085372       0.009
   0.11104344  0.11104344  0.11104344       0.003
   0.13123316  0.11104344  0.11104344       0.009
   0.13123316  0.13123316  0.11104344       0.009
   0.13123316  0.13123316  0.13123316       0.003
 
 k-points in reciprocal lattice and weights: K-Mesh Generated with KP-Resolved Value 
   0.03571429  0.03571429  0.03571429       0.003
   0.10714286  0.03571429  0.03571429       0.009
   0.17857143  0.03571429  0.03571429       0.009
   0.25000000  0.03571429  0.03571429       0.009
   0.32142857  0.03571429  0.03571429       0.009
   0.39285714  0.03571429  0.03571429       0.009
   0.46428571  0.03571429  0.03571429       0.009
   0.10714286  0.10714286  0.03571429       0.009
   0.17857143  0.10714286  0.03571429       0.017
   0.25000000  0.10714286  0.03571429       0.017
   0.32142857  0.10714286  0.03571429       0.017
   0.39285714  0.10714286  0.03571429       0.017
   0.46428571  0.10714286  0.03571429       0.017
   0.17857143  0.17857143  0.03571429       0.009
   0.25000000  0.17857143  0.03571429       0.017
   0.32142857  0.17857143  0.03571429       0.017
   0.39285714  0.17857143  0.03571429       0.017
   0.46428571  0.17857143  0.03571429       0.017
   0.25000000  0.25000000  0.03571429       0.009
   0.32142857  0.25000000  0.03571429       0.017
   0.39285714  0.25000000  0.03571429       0.017
   0.46428571  0.25000000  0.03571429       0.017
   0.32142857  0.32142857  0.03571429       0.009
   0.39285714  0.32142857  0.03571429       0.017
   0.46428571  0.32142857  0.03571429       0.017
   0.39285714  0.39285714  0.03571429       0.009
   0.46428571  0.39285714  0.03571429       0.017
   0.46428571  0.46428571  0.03571429       0.009
   0.10714286  0.10714286  0.10714286       0.003
   0.17857143  0.10714286  0.10714286       0.009
   0.25000000  0.10714286  0.10714286       0.009
   0.32142857  0.10714286  0.10714286       0.009
   0.39285714  0.10714286  0.10714286       0.009
   0.46428571  0.10714286  0.10714286       0.009
   0.17857143  0.17857143  0.10714286       0.009
   0.25000000  0.17857143  0.10714286       0.017
   0.32142857  0.17857143  0.10714286       0.017
   0.39285714  0.17857143  0.10714286       0.017
   0.46428571  0.17857143  0.10714286       0.017
   0.25000000  0.25000000  0.10714286       0.009
   0.32142857  0.25000000  0.10714286       0.017
   0.39285714  0.25000000  0.10714286       0.017
   0.46428571  0.25000000  0.10714286       0.017
   0.32142857  0.32142857  0.10714286       0.009
   0.39285714  0.32142857  0.10714286       0.017
   0.46428571  0.32142857  0.10714286       0.017
   0.39285714  0.39285714  0.10714286       0.009
   0.46428571  0.39285714  0.10714286       0.017
   0.46428571  0.46428571  0.10714286       0.009
   0.17857143  0.17857143  0.17857143       0.003
   0.25000000  0.17857143  0.17857143       0.009
   0.32142857  0.17857143  0.17857143       0.009
   0.39285714  0.17857143  0.17857143       0.009
   0.46428571  0.17857143  0.17857143       0.009
   0.25000000  0.25000000  0.17857143       0.009
   0.32142857  0.25000000  0.17857143       0.017
   0.39285714  0.25000000  0.17857143       0.017
   0.46428571  0.25000000  0.17857143       0.017
   0.32142857  0.32142857  0.17857143       0.009
   0.39285714  0.32142857  0.17857143       0.017
   0.46428571  0.32142857  0.17857143       0.017
   0.39285714  0.39285714  0.17857143       0.009
   0.46428571  0.39285714  0.17857143       0.017
   0.46428571  0.46428571  0.17857143       0.009
   0.25000000  0.25000000  0.25000000       0.003
   0.32142857  0.25000000  0.25000000       0.009
   0.39285714  0.25000000  0.25000000       0.009
   0.46428571  0.25000000  0.25000000       0.009
   0.32142857  0.32142857  0.25000000       0.009
   0.39285714  0.32142857  0.25000000       0.017
   0.46428571  0.32142857  0.25000000       0.017
   0.39285714  0.39285714  0.25000000       0.009
   0.46428571  0.39285714  0.25000000       0.017
   0.46428571  0.46428571  0.25000000       0.009
   0.32142857  0.32142857  0.32142857       0.003
   0.39285714  0.32142857  0.32142857       0.009
   0.46428571  0.32142857  0.32142857       0.009
   0.39285714  0.39285714  0.32142857       0.009
   0.46428571  0.39285714  0.32142857       0.017
   0.46428571  0.46428571  0.32142857       0.009
   0.39285714  0.39285714  0.39285714       0.003
   0.46428571  0.39285714  0.39285714       0.009
   0.46428571  0.46428571  0.39285714       0.009
   0.46428571  0.46428571  0.46428571       0.003
 
 position of ions in fractional coordinates (direct lattice) 
   0.25000000  0.25000000  0.25000000
   0.00000000  0.00000000  0.00000000
   0.25000000  0.75000000  0.75000000
   0.00000000  0.50000000  0.50000000
   0.75000000  0.25000000  0.75000000
   0.50000000  0.00000000  0.50000000
   0.75000000  0.75000000  0.25000000
   0.50000000  0.50000000  0.00000000
 
 position of ions in cartesian coordinates  (Angst):
   0.88446726  0.88446726  0.88446726
   0.00000000  0.00000000  0.00000000
   0.88446726  2.65340177  2.65340177
   0.00000000  1.76893451  1.76893451
   2.65340177  0.88446726  2.65340177
   1.76893451  0.00000000  1.76893451
   2.65340177  2.65340177  0.88446726
   1.76893451  1.76893451  0.00000000
 


--------------------------------------------------------------------------------------------------------


 k-point  1 :   0.0357 0.0357 0.0357  plane waves:    2565
 k-point  2 :   0.1071 0.0357 0.0357  plane waves:    2586
 k-point  3 :   0.1786 0.0357 0.0357  plane waves:    2607
 k-point  4 :   0.2500 0.0357 0.0357  plane waves:    2611
 k-point  5 :   0.3214 0.0357 0.0357  plane waves:    2607
 k-point  6 :   0.3929 0.0357 0.0357  plane waves:    2613
 k-point  7 :   0.4643 0.0357 0.0357  plane waves:    2607
 k-point  8 :   0.1071 0.1071 0.0357  plane waves:    2594
 k-point  9 :   0.1786 0.1071 0.0357  plane waves:    2608
 k-point 10 :   0.2500 0.1071 0.0357  plane waves:    2606
 k-point 11 :   0.3214 0.1071 0.0357  plane waves:    2606
 k-point 12 :   0.3929 0.1071 0.0357  plane waves:    2614
 k-point 13 :   0.4643 0.1071 0.0357  plane waves:    2609
 k-point 14 :   0.1786 0.1786 0.0357  plane waves:    2610
 k-point 15 :   0.2500 0.1786 0.0357  plane waves:    2618
 k-point 16 :   0.3214 0.1786 0.0357  plane waves:    2614
 k-point 17 :   0.3929 0.1786 0.0357  plane waves:    2611
 k-point 18 :   0.4643 0.1786 0.0357  plane waves:    2603
 k-point 19 :   0.2500 0.2500 0.0357  plane waves:    2624
 k-point 20 :   0.3214 0.2500 0.0357  plane waves:    2616
 k-point 21 :   0.3929 0.2500 0.0357  plane waves:    2609
 k-point 22 :   0.4643 0.2500 0.0357  plane waves:    2600
 k-point 23 :   0.3214 0.3214 0.0357  plane waves:    2609
 k-point 24 :   0.3929 0.3214 0.0357  plane waves:    2603
 k-point 25 :   0.4643 0.3214 0.0357  plane waves:    2604
 k-point 26 :   0.3929 0.3929 0.0357  plane waves:    2602
 k-point 27 :   0.4643 0.3929 0.0357  plane waves:    2605
 k-point 28 :   0.4643 0.4643 0.0357  plane waves:    2607
 k-point 29 :   0.1071 0.1071 0.1071  plane waves:    2605
 k-point 30 :   0.1786 0.1071 0.1071  plane waves:    2610
 k-point 31 :   0.2500 0.1071 0.1071  plane waves:    2608
 k-point 32 :   0.3214 0.1071 0.1071  plane waves:    2606
 k-point 33 :   0.3929 0.1071 0.1071  plane waves:    2615
 k-point 34 :   0.4643 0.1071 0.1071  plane waves:    2615
 k-point 35 :   0.1786 0.1786 0.1071  plane waves:    2615
 k-point 36 :   0.2500 0.1786 0.1071  plane waves:    2610
 k-point 37 :   0.3214 0.1786 0.1071  plane waves:    2610
 k-point 38 :   0.3929 0.1786 0.1071  plane waves:    2607
 k-point 39 :   0.4643 0.1786 0.1071  plane waves:    2599
 k-point 40 :   0.2500 0.2500 0.1071  plane waves:    2610
 k-point 41 :   0.3214 0.2500 0.1071  plane waves:    2610
 k-point 42 :   0.3929 0.2500 0.1071  plane waves:    2605
 k-point 43 :   0.4643 0.2500 0.1071  plane waves:    2600
 k-point 44 :   0.3214 0.3214 0.1071  plane waves:    2600
 k-point 45 :   0.3929 0.3214 0.1071  plane waves:    2604
 k-point 46 :   0.4643 0.3214 0.1071  plane waves:    2596
 k-point 47 :   0.3929 0.3929 0.1071  plane waves:    2599
 k-point 48 :   0.4643 0.3929 0.1071  plane waves:    2602
 k-point 49 :   0.4643 0.4643 0.1071  plane waves:    2598
 k-point 50 :   0.1786 0.1786 0.1786  plane waves:    2614
 k-point 51 :   0.2500 0.1786 0.1786  plane waves:    2611
 k-point 52 :   0.3214 0.1786 0.1786  plane waves:    2608
 k-point 53 :   0.3929 0.1786 0.1786  plane waves:    2610
 k-point 54 :   0.4643 0.1786 0.1786  plane waves:    2601
 k-point 55 :   0.2500 0.2500 0.1786  plane waves:    2603
 k-point 56 :   0.3214 0.2500 0.1786  plane waves:    2604
 k-point 57 :   0.3929 0.2500 0.1786  plane waves:    2602
 k-point 58 :   0.4643 0.2500 0.1786  plane waves:    2599
 k-point 59 :   0.3214 0.3214 0.1786  plane waves:    2599
 k-point 60 :   0.3929 0.3214 0.1786  plane waves:    2598
 k-point 61 :   0.4643 0.3214 0.1786  plane waves:    2599
 k-point 62 :   0.3929 0.3929 0.1786  plane waves:    2596
 k-point 63 :   0.4643 0.3929 0.1786  plane waves:    2588
 k-point 64 :   0.4643 0.4643 0.1786  plane waves:    2590
 k-point 65 :   0.2500 0.2500 0.2500  plane waves:    2605
 k-point 66 :   0.3214 0.2500 0.2500  plane waves:    2599
 k-point 67 :   0.3929 0.2500 0.2500  plane waves:    2598
 k-point 68 :   0.4643 0.2500 0.2500  plane waves:    2594
 k-point 69 :   0.3214 0.3214 0.2500  plane waves:    2599
 k-point 70 :   0.3929 0.3214 0.2500  plane waves:    2589
 k-point 71 :   0.4643 0.3214 0.2500  plane waves:    2592
 k-point 72 :   0.3929 0.3929 0.2500  plane waves:    2591
 k-point 73 :   0.4643 0.3929 0.2500  plane waves:    2592
 k-point 74 :   0.4643 0.4643 0.2500  plane waves:    2597
 k-point 75 :   0.3214 0.3214 0.3214  plane waves:    2611
 k-point 76 :   0.3929 0.3214 0.3214  plane waves:    2592
 k-point 77 :   0.4643 0.3214 0.3214  plane waves:    2598
 k-point 78 :   0.3929 0.3929 0.3214  plane waves:    2595
 k-point 79 :   0.4643 0.3929 0.3214  plane waves:    2587
 k-point 80 :   0.4643 0.4643 0.3214  plane waves:    2585
 k-point 81 :   0.3929 0.3929 0.3929  plane waves:    2581
 k-point 82 :   0.4643 0.3929 0.3929  plane waves:    2581
 k-point 83 :   0.4643 0.4643 0.3929  plane waves:    2569
 k-point 84 :   0.4643 0.4643 0.4643  plane waves:    2566

 maximum and minimum number of plane-waves per node :      2624     2565

 maximum number of plane-waves:      2624
 maximum index in each direction: 
   IXMAX=    8   IYMAX=    8   IZMAX=    8
   IXMIN=   -8   IYMIN=   -8   IZMIN=   -8


 serial   3D FFT for wavefunctions
 parallel 3D FFT for charge:
    minimum data exchange during FFTs selected (reduces bandwidth)


 total amount of memory used by VASP MPI-rank0    51217. kBytes
=======================================================================

   base      :      30000. kBytes
   nonl-proj :      14530. kBytes
   fftplans  :        905. kBytes
   grid      :       2114. kBytes
   one-center:         24. kBytes
   wavefun   :       3644. kBytes
 
     INWAV:  cpu time    0.0000: real time    0.0002
 Broyden mixing: mesh for mixing (old mesh)
   NGX = 17   NGY = 17   NGZ = 17
  (NGX  = 48   NGY  = 48   NGZ  = 48)
  gives a total of   4913 points

 initial charge density was supplied:
 charge density of overlapping atoms calculated
 number of electron      32.0000000 magnetization 
 keeping initial charge density in first step


--------------------------------------------------------------------------------------------------------


 Maximum index for augmentation-charges          777 (set IRDMAX)


--------------------------------------------------------------------------------------------------------


 First call to EWALD:  gamma=   0.501
 Maximum number of real-space cells 3x 3x 3
 Maximum number of reciprocal cells 3x 3x 3

    FEWALD:  cpu time    0.0020: real time    0.0051


--------------------------------------- Iteration      1(   1)  ---------------------------------------


    POTLOK:  cpu time    0.0180: real time    0.0429
    SETDIJ:  cpu time    0.0180: real time    0.0285
     EDDAV:  cpu time    1.3398: real time    1.4310
       DOS:  cpu time    0.0040: real time    0.0194
    --------------------------------------------
      LOOP:  cpu time    1.3798: real time    1.5219

 eigenvalue-minimisations  :  4032
 total energy-change (2. order) : 0.9980016E+02  (-0.2604020E+04)
 number of electron      32.0000000 magnetization 
 augmentation part       32.0000000 magnetization 

 Free energy of the ion-electron system (eV)
  ---------------------------------------------------
  alpha Z        PSCENC =        79.23182296
  Ewald energy   TEWEN  =     -1403.21756155
  -Hartree energ DENC   =       -67.85958932
  -exchange      EXHF   =         0.00000000
  -V(xc)+E(xc)   XCENC  =        62.80648317
  PAW double counting   =       914.77613359     -872.73161751
  entropy T*S    EENTRO =        -0.00103139
  eigenvalues    EBANDS =       209.58275108
  atomic energy  EATOM  =      1177.21277265
  Solvation  Ediel_sol  =         0.00000000
  ---------------------------------------------------
  free energy    TOTEN  =        99.80016369 eV

  energy without entropy =       99.80119509  energy(sigma->0) =       99.80067939


--------------------------------------------------------------------------------------------------------




--------------------------------------- Iteration      1(   2)  ---------------------------------------


     EDDAV:  cpu time    2.3396: real time    2.3715
       DOS:  cpu time    0.0010: real time    0.0007
    --------------------------------------------
      LOOP:  cpu time    2.3406: real time    2.3722

 eigenvalue-minimisations  :  6624
 total energy-change (2. order) :-0.1726135E+03  (-0.1694607E+03)
 number of electron      32.0000000 magnetization 
 augmentation part       32.0000000 magnetization 

 Free energy of the ion-electron system (eV)
  ---------------------------------------------------
  alpha Z        PSCENC =        79.23182296
  Ewald energy   TEWEN  =     -1403.21756155
  -Hartree energ DENC   =       -67.85958932
  -exchange      EXHF   =         0.00000000
  -V(xc)+E(xc)   XCENC  =        62.80648317
  PAW double counting   =       914.77613359     -872.73161751
  entropy T*S    EENTRO =        -0.00000000
  eigenvalues    EBANDS =        36.96824895
  atomic energy  EATOM  =      1177.21277265
  Solvation  Ediel_sol  =         0.00000000
  ---------------------------------------------------
  free energy    TOTEN  =       -72.81330705 eV

  energy without entropy =      -72.81330705  energy(sigma->0) =      -72.81330705


--------------------------------------------------------------------------------------------------------




--------------------------------------- Iteration      1(   3)  ---------------------------------------


     EDDAV:  cpu time    1.5728: real time    1.5867
       DOS:  cpu time    0.0000: real time    0.0006
    --------------------------------------------
      LOOP:  cpu time    1.5728: real time    1.5873

 eigenvalue-minimisations  :  4632
 total energy-change (2. order) :-0.2635674E+01  (-0.2635674E+01)
 number of electron      32.0000000 magnetization 
 augmentation part       32.0000000 magnetization 

 Free energy of the ion-electron system (eV)
  ---------------------------------------------------
  alpha Z        PSCENC =        79.23182296
  Ewald energy   TEWEN  =     -1403.21756155
  -Hartree energ DENC   =       -67.85958932
  -exchange      EXHF   =         0.00000000
  -V(xc)+E(xc)   XCENC  =        62.80648317
  PAW double counting   =       914.77613359     -872.73161751
  entropy T*S    EENTRO =        -0.00000000
  eigenvalues    EBANDS =        34.33257525
  atomic energy  EATOM  =      1177.21277265
  Solvation  Ediel_sol  =         0.00000000
  ---------------------------------------------------
  free energy    TOTEN  =       -75.44898074 eV

  energy without entropy =      -75.44898074  energy(sigma->0) =      -75.44898074


--------------------------------------------------------------------------------------------------------




--------------------------------------- Iteration      1(   4)  ---------------------------------------


     EDDAV:  cpu time    2.8496: real time    2.8679
       DOS:  cpu time    0.0010: real time    0.0007
    --------------------------------------------
      LOOP:  cpu time    2.8506: real time    2.8686

 eigenvalue-minimisations  :  7584
 total energy-change (2. order) :-0.1560760E-01  (-0.1560760E-01)
 number of electron      32.0000000 magnetization 
 augmentation part       32.0000000 magnetization 

 Free energy of the ion-electron system (eV)
  ---------------------------------------------------
  alpha Z        PSCENC =        79.23182296
  Ewald energy   TEWEN  =     -1403.21756155
  -Hartree energ DENC   =       -67.85958932
  -exchange      EXHF   =         0.00000000
  -V(xc)+E(xc)   XCENC  =        62.80648317
  PAW double counting   =       914.77613359     -872.73161751
  entropy T*S    EENTRO =        -0.00000000
  eigenvalues    EBANDS =        34.31696766
  atomic energy  EATOM  =      1177.21277265
  Solvation  Ediel_sol  =         0.00000000
  ---------------------------------------------------
  free energy    TOTEN  =       -75.46458834 eV

  energy without entropy =      -75.46458834  energy(sigma->0) =      -75.46458834


--------------------------------------------------------------------------------------------------------




--------------------------------------- Iteration      1(   5)  ---------------------------------------


     EDDAV:  cpu time    1.5278: real time    1.5400
       DOS:  cpu time    0.0000: real time    0.0007
    CHARGE:  cpu time    0.0820: real time    0.1096
    MIXING:  cpu time    0.0030: real time    0.0134
    --------------------------------------------
      LOOP:  cpu time    1.6128: real time    1.6636

 eigenvalue-minimisations  :  4512
 total energy-change (2. order) :-0.1912676E-05  (-0.1912676E-05)
 number of electron      32.0000000 magnetization 
 augmentation part       -0.0650088 magnetization 

 Broyden mixing:
  rms(total) = 0.17184E+01    rms(broyden)= 0.17183E+01
  rms(prec ) = 0.27322E+01
  weight for this iteration     100.00

 Free energy of the ion-electron system (eV)
  ---------------------------------------------------
  alpha Z        PSCENC =        79.23182296
  Ewald energy   TEWEN  =     -1403.21756155
  -Hartree energ DENC   =       -67.85958932
  -exchange      EXHF   =         0.00000000
  -V(xc)+E(xc)   XCENC  =        62.80648317
  PAW double counting   =       914.77613359     -872.73161751
  entropy T*S    EENTRO =        -0.00000000
  eigenvalues    EBANDS =        34.31696574
  atomic energy  EATOM  =      1177.21277265
  Solvation  Ediel_sol  =         0.00000000
  ---------------------------------------------------
  free energy    TOTEN  =       -75.46459025 eV

  energy without entropy =      -75.46459025  energy(sigma->0) =      -75.46459025


--------------------------------------------------------------------------------------------------------




--------------------------------------- Iteration      1(   6)  ---------------------------------------


    POTLOK:  cpu time    0.0060: real time    0.0141
    SETDIJ:  cpu time    0.0040: real time    0.0036
     EDDAV:  cpu time    1.5188: real time    1.5222
       DOS:  cpu time    0.0010: real time    0.0007
    CHARGE:  cpu time    0.0750: real time    0.0750
    MIXING:  cpu time    0.0020: real time    0.0192
    --------------------------------------------
      LOOP:  cpu time    1.6068: real time    1.6348

 eigenvalue-minimisations  :  4560
 total energy-change (2. order) : 0.1999693E+01  (-0.1499086E+00)
 number of electron      32.0000000 magnetization 
 augmentation part       -0.0680339 magnetization 

 Broyden mixing:
  rms(total) = 0.11336E+01    rms(broyden)= 0.11336E+01
  rms(prec ) = 0.16108E+01
  weight for this iteration     100.00

 eigenvalues of (default mixing * dielectric matrix)
  average eigenvalue GAMMA=   2.7531
  2.7531

 Free energy of the ion-electron system (eV)
  ---------------------------------------------------
  alpha Z        PSCENC =        79.23182296
  Ewald energy   TEWEN  =     -1403.21756155
  -Hartree energ DENC   =       -83.40862140
  -exchange      EXHF   =         0.00000000
  -V(xc)+E(xc)   XCENC  =        64.09433840
  PAW double counting   =      3863.89018884    -3822.23850898
  entropy T*S    EENTRO =        -0.00000000
  eigenvalues    EBANDS =        50.97067177
  atomic energy  EATOM  =      1177.21277265
  Solvation  Ediel_sol  =         0.00000000
  ---------------------------------------------------
  free energy    TOTEN  =       -73.46489731 eV

  energy without entropy =      -73.46489731  energy(sigma->0) =      -73.46489731


--------------------------------------------------------------------------------------------------------




--------------------------------------- Iteration      1(   7)  ---------------------------------------


    POTLOK:  cpu time    0.0070: real time    0.0146
    SETDIJ:  cpu time    0.0030: real time    0.0036
     EDDAV:  cpu time    1.9277: real time    1.9318
       DOS:  cpu time    0.0010: real time    0.0008
    CHARGE:  cpu time    0.0750: real time    0.0751
    MIXING:  cpu time    0.0010: real time    0.0078
    --------------------------------------------
      LOOP:  cpu time    2.0147: real time    2.0336

 eigenvalue-minimisations  :  5592
 total energy-change (2. order) : 0.6697785E+00  (-0.1938043E+00)
 number of electron      32.0000000 magnetization 
 augmentation part       -0.0721461 magnetization 

 Broyden mixing:
  rms(total) = 0.24802E+00    rms(broyden)= 0.24801E+00
  rms(prec ) = 0.27254E+00
  weight for this iteration     100.00

 eigenvalues of (default mixing * dielectric matrix)
  average eigenvalue GAMMA=   2.1797
  1.9399  2.4195

 Free energy of the ion-electron system (eV)
  ---------------------------------------------------
  alpha Z        PSCENC =        79.23182296
  Ewald energy   TEWEN  =     -1403.21756155
  -Hartree energ DENC   =      -105.00067252
  -exchange      EXHF   =         0.00000000
  -V(xc)+E(xc)   XCENC  =        65.96993371
  PAW double counting   =     13177.63759828   -13136.30569853
  entropy T*S    EENTRO =        -0.00000000
  eigenvalues    EBANDS =        71.67668621
  atomic energy  EATOM  =      1177.21277265
  Solvation  Ediel_sol  =         0.00000000
  ---------------------------------------------------
  free energy    TOTEN  =       -72.79511879 eV

  energy without entropy =      -72.79511879  energy(sigma->0) =      -72.79511879


--------------------------------------------------------------------------------------------------------




--------------------------------------- Iteration      1(   8)  ---------------------------------------


    POTLOK:  cpu time    0.0060: real time    0.0107
    SETDIJ:  cpu time    0.0040: real time    0.0035
     EDDAV:  cpu time    2.4366: real time    2.4419
       DOS:  cpu time    0.0010: real time    0.0007
    CHARGE:  cpu time    0.0750: real time    0.0750
    MIXING:  cpu time    0.0010: real time    0.0041
    --------------------------------------------
      LOOP:  cpu time    2.5236: real time    2.5359

 eigenvalue-minimisations  :  6696
 total energy-change (2. order) : 0.1967156E-02  (-0.2589785E-02)
 number of electron      32.0000000 magnetization 
 augmentation part       -0.0720072 magnetization 

 Broyden mixing:
  rms(total) = 0.12079E-01    rms(broyden)= 0.12079E-01
  rms(prec ) = 0.19498E-01
  weight for this iteration     100.00

 eigenvalues of (default mixing * dielectric matrix)
  average eigenvalue GAMMA=   2.0089
  1.5081  2.2593  2.2593

 Free energy of the ion-electron system (eV)
  ---------------------------------------------------
  alpha Z        PSCENC =        79.23182296
  Ewald energy   TEWEN  =     -1403.21756155
  -Hartree energ DENC   =      -103.99015608
  -exchange      EXHF   =         0.00000000
  -V(xc)+E(xc)   XCENC  =        65.92525298
  PAW double counting   =     15742.64133063   -15701.19131248
  entropy T*S    EENTRO =        -0.00000000
  eigenvalues    EBANDS =        70.59469925
  atomic energy  EATOM  =      1177.21277265
  Solvation  Ediel_sol  =         0.00000000
  ---------------------------------------------------
  free energy    TOTEN  =       -72.79315163 eV

  energy without entropy =      -72.79315163  energy(sigma->0) =      -72.79315163


--------------------------------------------------------------------------------------------------------




--------------------------------------- Iteration      1(   9)  ---------------------------------------


    POTLOK:  cpu time    0.0060: real time    0.0153
    SETDIJ:  cpu time    0.0030: real time    0.0035
     EDDAV:  cpu time    2.0457: real time    2.0516
       DOS:  cpu time    0.0010: real time    0.0007
    CHARGE:  cpu time    0.0750: real time    0.0750
    MIXING:  cpu time    0.0000: real time    0.0005
    --------------------------------------------
      LOOP:  cpu time    2.1307: real time    2.1466

 eigenvalue-minimisations  :  5736
 total energy-change (2. order) :-0.1602007E-03  (-0.4476344E-04)
 number of electron      32.0000000 magnetization 
 augmentation part       -0.0719039 magnetization 

 Broyden mixing:
  rms(total) = 0.61632E-02    rms(broyden)= 0.61631E-02
  rms(prec ) = 0.93702E-02
  weight for this iteration     100.00

 eigenvalues of (default mixing * dielectric matrix)
  average eigenvalue GAMMA=   1.9625
  0.9839  2.0259  2.4202  2.4202

 Free energy of the ion-electron system (eV)
  ---------------------------------------------------
  alpha Z        PSCENC =        79.23182296
  Ewald energy   TEWEN  =     -1403.21756155
  -Hartree energ DENC   =      -103.79864767
  -exchange      EXHF   =         0.00000000
  -V(xc)+E(xc)   XCENC  =        65.90996375
  PAW double counting   =     15678.60765919   -15637.14786838
  entropy T*S    EENTRO =        -0.00000000
  eigenvalues    EBANDS =        70.40854722
  atomic energy  EATOM  =      1177.21277265
  Solvation  Ediel_sol  =         0.00000000
  ---------------------------------------------------
  free energy    TOTEN  =       -72.79331183 eV

  energy without entropy =      -72.79331183  energy(sigma->0) =      -72.79331183


--------------------------------------------------------------------------------------------------------




--------------------------------------- Iteration      1(  10)  ---------------------------------------


    POTLOK:  cpu time    0.0060: real time    0.0151
    SETDIJ:  cpu time    0.0040: real time    0.0035
     EDDAV:  cpu time    2.3236: real time    2.3279
       DOS:  cpu time    0.0000: real time    0.0007
    CHARGE:  cpu time    0.0750: real time    0.0749
    MIXING:  cpu time    0.0010: real time    0.0006
    --------------------------------------------
      LOOP:  cpu time    2.4096: real time    2.4226

 eigenvalue-minimisations  :  6360
 total energy-change (2. order) :-0.1201566E-03  (-0.1096052E-04)
 number of electron      32.0000000 magnetization 
 augmentation part       -0.0718735 magnetization 

 Broyden mixing:
  rms(total) = 0.49385E-03    rms(broyden)= 0.49379E-03
  rms(prec ) = 0.86232E-03
  weight for this iteration     100.00

 eigenvalues of (default mixing * dielectric matrix)
  average eigenvalue GAMMA=   1.9176
  2.8184  2.4114  2.0191  1.0284  1.3108

 Free energy of the ion-electron system (eV)
  ---------------------------------------------------
  alpha Z        PSCENC =        79.23182296
  Ewald energy   TEWEN  =     -1403.21756155
  -Hartree energ DENC   =      -103.88222661
  -exchange      EXHF   =         0.00000000
  -V(xc)+E(xc)   XCENC  =        65.91683895
  PAW double counting   =     15610.23294335   -15568.77085160
  entropy T*S    EENTRO =        -0.00000000
  eigenvalues    EBANDS =        70.48282987
  atomic energy  EATOM  =      1177.21277265
  Solvation  Ediel_sol  =         0.00000000
  ---------------------------------------------------
  free energy    TOTEN  =       -72.79343199 eV

  energy without entropy =      -72.79343199  energy(sigma->0) =      -72.79343199


--------------------------------------------------------------------------------------------------------




--------------------------------------- Iteration      1(  11)  ---------------------------------------


    POTLOK:  cpu time    0.0060: real time    0.0121
    SETDIJ:  cpu time    0.0030: real time    0.0035
     EDDAV:  cpu time    2.2287: real time    2.2324
       DOS:  cpu time    0.0010: real time    0.0007
    CHARGE:  cpu time    0.0750: real time    0.0750
    MIXING:  cpu time    0.0000: real time    0.0006
    --------------------------------------------
      LOOP:  cpu time    2.3136: real time    2.3244

 eigenvalue-minimisations  :  6168
 total energy-change (2. order) :-0.1237884E-05  (-0.1856502E-06)
 number of electron      32.0000000 magnetization 
 augmentation part       -0.0718710 magnetization 

 Broyden mixing:
  rms(total) = 0.30995E-03    rms(broyden)= 0.30995E-03
  rms(prec ) = 0.34622E-03
  weight for this iteration     100.00

 eigenvalues of (default mixing * dielectric matrix)
  average eigenvalue GAMMA=   1.9999
  2.9006  2.6107  2.4162  2.0609  1.0056  1.0056

 Free energy of the ion-electron system (eV)
  ---------------------------------------------------
  alpha Z        PSCENC =        79.23182296
  Ewald energy   TEWEN  =     -1403.21756155
  -Hartree energ DENC   =      -103.89098085
  -exchange      EXHF   =         0.00000000
  -V(xc)+E(xc)   XCENC  =        65.91761412
  PAW double counting   =     15609.27256103   -15567.81022654
  entropy T*S    EENTRO =        -0.00000000
  eigenvalues    EBANDS =        70.49056495
  atomic energy  EATOM  =      1177.21277265
  Solvation  Ediel_sol  =         0.00000000
  ---------------------------------------------------
  free energy    TOTEN  =       -72.79343323 eV

  energy without entropy =      -72.79343323  energy(sigma->0) =      -72.79343323


--------------------------------------------------------------------------------------------------------




--------------------------------------- Iteration      1(  12)  ---------------------------------------


    POTLOK:  cpu time    0.0180: real time    0.0190
    SETDIJ:  cpu time    0.0040: real time    0.0035
     EDDAV:  cpu time    2.2377: real time    2.2435
       DOS:  cpu time    0.0010: real time    0.0007
    CHARGE:  cpu time    0.0750: real time    0.0749
    MIXING:  cpu time    0.0000: real time    0.0006
    --------------------------------------------
      LOOP:  cpu time    2.3366: real time    2.3422

 eigenvalue-minimisations  :  6168
 total energy-change (2. order) :-0.3443074E-06  (-0.6217428E-08)
 number of electron      32.0000000 magnetization 
 augmentation part       -0.0718716 magnetization 

 Broyden mixing:
  rms(total) = 0.15982E-04    rms(broyden)= 0.15982E-04
  rms(prec ) = 0.16333E-04
  weight for this iteration     100.00

 eigenvalues of (default mixing * dielectric matrix)
  average eigenvalue GAMMA=   1.9390
  2.8482  2.6808  2.4072  2.0521  1.5987  1.0092  0.9769

 Free energy of the ion-electron system (eV)
  ---------------------------------------------------
  alpha Z        PSCENC =        79.23182296
  Ewald energy   TEWEN  =     -1403.21756155
  -Hartree energ DENC   =      -103.89198194
  -exchange      EXHF   =         0.00000000
  -V(xc)+E(xc)   XCENC  =        65.91770856
  PAW double counting   =     15611.41296140   -15569.95072748
  entropy T*S    EENTRO =        -0.00000000
  eigenvalues    EBANDS =        70.49157182
  atomic energy  EATOM  =      1177.21277265
  Solvation  Ediel_sol  =         0.00000000
  ---------------------------------------------------
  free energy    TOTEN  =       -72.79343357 eV

  energy without entropy =      -72.79343357  energy(sigma->0) =      -72.79343357


--------------------------------------------------------------------------------------------------------




--------------------------------------- Iteration      1(  13)  ---------------------------------------


    POTLOK:  cpu time    0.0160: real time    0.0153
    SETDIJ:  cpu time    0.0030: real time    0.0035
     EDDAV:  cpu time    2.2667: real time    2.2720
       DOS:  cpu time    0.0010: real time    0.0007
    --------------------------------------------
      LOOP:  cpu time    2.2857: real time    2.2914

 eigenvalue-minimisations  :  6192
 total energy-change (2. order) :-0.8758434E-08  (-0.1031097E-10)
 number of electron      32.0000000 magnetization 
 augmentation part       -0.0718716 magnetization 

 Free energy of the ion-electron system (eV)
  ---------------------------------------------------
  alpha Z        PSCENC =        79.23182296
  Ewald energy   TEWEN  =     -1403.21756155
  -Hartree energ DENC   =      -103.89194153
  -exchange      EXHF   =         0.00000000
  -V(xc)+E(xc)   XCENC  =        65.91770536
  PAW double counting   =     15611.30992065   -15569.84768921
  entropy T*S    EENTRO =        -0.00000000
  eigenvalues    EBANDS =        70.49153708
  atomic energy  EATOM  =      1177.21277265
  Solvation  Ediel_sol  =         0.00000000
  ---------------------------------------------------
  free energy    TOTEN  =       -72.79343358 eV

  energy without entropy =      -72.79343358  energy(sigma->0) =      -72.79343358


--------------------------------------------------------------------------------------------------------




 average (electrostatic) potential at core
  the test charge radii are     0.5770
  (the norm of the test charge is              1.0000)
       1 -71.1690       2 -71.1690       3 -71.1690       4 -71.1690       5 -71.1690
       6 -71.1690       7 -71.1690       8 -71.1690
 
 
 
 E-fermi :  11.5700     XC(G=0): -13.5047     alpha+bet :-19.0972


 k-point     1 :       0.0357    0.0357    0.0357
  band No.  band energies     occupation 
      1     -10.4415      2.00000
      2      -2.1701      2.00000
      3      -2.1701      2.00000
      4      -2.1701      2.00000
      5      -1.0084      2.00000
      6      -1.0084      2.00000
      7      -1.0084      2.00000
      8       4.7655      2.00000
      9       4.7655      2.00000
     10       4.7655      2.00000
     11       4.9130      2.00000
     12       4.9130      2.00000
     13       4.9130      2.00000
     14      11.0660      2.00000
     15      11.2599      2.00000
     16      11.2599      2.00000
     17      16.0622      0.00000
     18      16.0622      0.00000
     19      16.0622      0.00000
     20      16.4475      0.00000
     21      16.4475      0.00000
     22      16.4475      0.00000
     23      17.0812      0.00000
     24      17.0812      0.00000

 k-point     2 :       0.1071    0.0357    0.0357
  band No.  band energies     occupation 
      1     -10.3457      2.00000
      2      -3.2817      2.00000
      3      -2.1029      2.00000
      4      -2.1029      2.00000
      5      -0.9541      2.00000
      6      -0.9541      2.00000
      7       0.1905      2.00000
      8       4.4306      2.00000
      9       4.4306      2.00000
     10       4.8465      2.00000
     11       4.8465      2.00000
     12       4.8624      2.00000
     13       5.0066      2.00000
     14      10.6025      2.00000
     15      10.8858      2.00000
     16      11.1443      2.00000
     17      15.8289      0.00000
     18      16.3539      0.00000
     19      16.3539      0.00000
     20      16.9028      0.00000
     21      16.9217      0.00000
     22      16.9217      0.00000
     23      17.0122      0.00000
     24      17.5372      0.00000

 k-point     3 :       0.1786    0.0357    0.0357
  band No.  band energies     occupation 
      1     -10.1545      2.00000
      2      -4.3329      2.00000
      3      -1.9731      2.00000
      4      -1.9731      2.00000
      5      -0.8524      2.00000
      6      -0.8524      2.00000
      7       1.4112      2.00000
      8       3.9755      2.00000
      9       3.9755      2.00000
     10       4.5952      2.00000
     11       4.5952      2.00000
     12       5.0565      2.00000
     13       5.1929      2.00000
     14       9.9549      2.00000
     15      10.2740      2.00000
     16      10.7664      2.00000
     17      15.6828      0.00000
     18      16.8734      0.00000
     19      16.9753      0.00000
     20      16.9753      0.00000
     21      17.4929      0.00000
     22      17.7363      0.00000
     23      17.7363      0.00000
     24      18.3131      0.00000

 k-point     4 :       0.2500    0.0357    0.0357
  band No.  band energies     occupation 
      1      -9.8682      2.00000
      2      -5.3154      2.00000
      3      -1.7910      2.00000
      4      -1.7910      2.00000
      5      -0.7189      2.00000
      6      -0.7189      2.00000
      7       2.6346      2.00000
      8       3.4805      2.00000
      9       3.4805      2.00000
     10       4.2278      2.00000
     11       4.2278      2.00000
     12       5.3490      2.00000
     13       5.4707      2.00000
     14       9.2184      2.00000
     15       9.5575      2.00000
     16      10.1823      2.00000
     17      15.6221      0.00000
     18      16.6861      0.00000
     19      17.8810      0.00000
     20      17.8810      0.00000
     21      18.2192      0.00000
     22      18.7884      0.00000
     23      18.7884      0.00000
     24      19.2707      0.00000

 k-point     5 :       0.3214    0.0357    0.0357
  band No.  band energies     occupation 
      1      -9.4877      2.00000
      2      -6.2229      2.00000
      3      -1.5770      2.00000
      4      -1.5770      2.00000
      5      -0.5804      2.00000
      6      -0.5804      2.00000
      7       3.0241      2.00000
      8       3.0241      2.00000
      9       3.8268      2.00000
     10       3.8268      2.00000
     11       3.8363      2.00000
     12       5.7435      2.00000
     13       5.8376      2.00000
     14       8.4535      2.00000
     15       8.8179      2.00000
     16       9.4434      2.00000
     17      15.6377      0.00000
     18      16.4712      0.00000
     19      18.9931      0.00000
     20      18.9931      0.00000
     21      19.0860      0.00000
     22      19.9925      0.00000
     23      19.9925      0.00000
     24      20.3189      0.00000

 k-point     6 :       0.3929    0.0357    0.0357
  band No.  band energies     occupation 
      1      -9.0139      2.00000
      2      -7.0500      2.00000
      3      -1.3686      2.00000
      4      -1.3686      2.00000
      5      -0.4730      2.00000
      6      -0.4730      2.00000
      7       2.6788      2.00000
      8       2.6788      2.00000
      9       3.4769      2.00000
     10       3.4769      2.00000
     11       4.9817      2.00000
     12       6.2513      2.00000
     13       6.2901      2.00000
     14       7.6860      2.00000
     15       8.1002      2.00000
     16       8.5983      2.00000
     17      15.7199      0.00000
     18      16.2492      0.00000
     19      20.0910      0.00000
     20      20.2206      0.00000
     21      20.2206      0.00000
     22      21.2441      0.00000
     23      21.2756      0.00000
     24      21.4253      0.00000

 k-point     7 :       0.4643    0.0357    0.0357
  band No.  band energies     occupation 
      1      -8.4484      2.00000
      2      -7.7929      2.00000
      3      -1.2297      2.00000
      4      -1.2297      2.00000
      5      -0.4219      2.00000
      6      -0.4219      2.00000
      7       2.4979      2.00000
      8       2.4979      2.00000
      9       3.2661      2.00000
     10       3.2661      2.00000
     11       6.0174      2.00000
     12       6.8232      2.00000
     13       6.8994      2.00000
     14       6.9021      2.00000
     15       7.4300      2.00000
     16       7.7135      2.00000
     17      15.8579      0.00000
     18      16.0392      0.00000
     19      21.2171      0.00000
     20      21.3821      0.00000
     21      21.3821      0.00000
     22      22.2053      0.00000
     23      22.2062      0.00000
     24      22.4866      0.00000

 k-point     8 :       0.1071    0.1071    0.0357
  band No.  band energies     occupation 
      1     -10.2501      2.00000
      2      -3.2057      2.00000
      3      -3.2057      2.00000
      4      -2.0414      2.00000
      5      -0.9040      2.00000
      6       0.2232      2.00000
      7       0.2232      2.00000
      8       3.8935      2.00000
      9       4.5360      2.00000
     10       4.5360      2.00000
     11       4.9445      2.00000
     12       4.9445      2.00000
     13       5.0733      2.00000
     14      10.0422      2.00000
     15      10.6006      2.00000
     16      11.1463      2.00000
     17      16.1817      0.00000
     18      16.1817      0.00000
     19      16.3086      0.00000
     20      17.2693      0.00000
     21      17.3120      0.00000
     22      17.3120      0.00000
     23      17.6502      0.00000
     24      17.6568      0.00000

 k-point     9 :       0.1786    0.1071    0.0357
  band No.  band energies     occupation 
      1     -10.0590      2.00000
      2      -4.2510      2.00000
      3      -3.0563      2.00000
      4      -1.9263      2.00000
      5      -0.8111      2.00000
      6       0.2764      2.00000
      7       1.4083      2.00000
      8       3.3160      2.00000
      9       4.0917      2.00000
     10       4.7110      2.00000
     11       4.7485      2.00000
     12       5.0863      2.00000
     13       5.1422      2.00000
     14       9.3440      2.00000
     15      10.0209      2.00000
     16      10.9273      2.00000
     17      16.0572      0.00000
     18      16.6269      0.00000
     19      16.8580      0.00000
     20      17.2326      0.00000
     21      17.8728      0.00000
     22      18.0635      0.00000
     23      18.3158      0.00000
     24      18.5053      0.00000

 k-point    10 :       0.2500    0.1071    0.0357
  band No.  band energies     occupation 
      1      -9.7731      2.00000
      2      -5.2295      2.00000
      3      -2.8397      2.00000
      4      -1.7779      2.00000
      5      -0.6896      2.00000
      6       0.3233      2.00000
      7       2.5705      2.00000
      8       2.7821      2.00000
      9       3.6056      2.00000
     10       4.3850      2.00000
     11       4.9158      2.00000
     12       5.0714      2.00000
     13       5.4461      2.00000
     14       8.5856      2.00000
     15       9.3259      2.00000
     16      10.4609      2.00000
     17      16.0076      0.00000
     18      17.0654      0.00000
     19      17.2959      0.00000
     20      17.8007      0.00000
     21      18.5762      0.00000
     22      19.0641      0.00000
     23      19.2473      0.00000
     24      19.3075      0.00000

 k-point    11 :       0.3214    0.1071    0.0357
  band No.  band energies     occupation 
      1      -9.3930      2.00000
      2      -6.1341      2.00000
      3      -2.5672      2.00000
      4      -1.6410      2.00000
      5      -0.5530      2.00000
      6       0.3217      2.00000
      7       2.3766      2.00000
      8       3.1416      2.00000
      9       3.6668      2.00000
     10       4.0683      2.00000
     11       4.6292      2.00000
     12       5.5031      2.00000
     13       5.8758      2.00000
     14       7.8117      2.00000
     15       8.5999      2.00000
     16       9.8006      2.00000
     17      16.0298      0.00000
     18      16.8594      0.00000
     19      18.2424      0.00000
     20      18.9385      0.00000
     21      19.4209      0.00000
     22      20.2131      0.00000
     23      20.2383      0.00000
     24      20.2960      0.00000

 k-point    12 :       0.3929    0.1071    0.0357
  band No.  band energies     occupation 
      1      -8.9198      2.00000
      2      -6.9593      2.00000
      3      -2.2593      2.00000
      4      -1.5943      2.00000
      5      -0.3932      2.00000
      6       0.2299      2.00000
      7       2.1748      2.00000
      8       2.7367      2.00000
      9       3.8682      2.00000
     10       4.3057      2.00000
     11       4.6485      2.00000
     12       6.0207      2.00000
     13       6.4742      2.00000
     14       7.0440      2.00000
     15       7.8884      2.00000
     16       9.0037      2.00000
     17      16.1156      0.00000
     18      16.6426      0.00000
     19      19.3725      0.00000
     20      20.1865      0.00000
     21      20.4028      0.00000
     22      21.2436      0.00000
     23      21.3445      0.00000
     24      21.4036      0.00000

 k-point    13 :       0.4643    0.1071    0.0357
  band No.  band energies     occupation 
      1      -8.3551      2.00000
      2      -7.7007      2.00000
      3      -1.9520      2.00000
      4      -1.7055      2.00000
[...]
     11       6.4310      2.00000
     12       7.4518      2.00000
     13       7.5649      2.00000
     14       7.5649      2.00000
     15       7.9356      2.00000
     16       9.0795      2.00000
     17      18.7559      0.00000
     18      19.1685      0.00000
     19      19.1685      0.00000
     20      19.6905      0.00000
     21      20.0951      0.00000
     22      20.6568      0.00000
     23      21.0328      0.00000
     24      21.0328      0.00000

 k-point    73 :       0.4643    0.3929    0.2500
  band No.  band energies     occupation 
      1      -6.5309      2.00000
      2      -5.9143      2.00000
      3      -4.7682      2.00000
      4      -4.2949      2.00000
      5      -1.3288      2.00000
      6      -0.8703      2.00000
      7       0.2318      2.00000
      8       0.8251      2.00000
      9       5.8517      2.00000
     10       6.1638      2.00000
     11       6.9918      2.00000
     12       7.4821      2.00000
     13       7.6619      2.00000
     14       7.6905      2.00000
     15       8.2182      2.00000
     16       8.7593      2.00000
     17      19.2049      0.00000
     18      19.4315      0.00000
     19      19.6581      0.00000
     20      19.6692      0.00000
     21      20.2565      0.00000
     22      20.5594      0.00000
     23      20.5784      0.00000
     24      21.2085      0.00000

 k-point    74 :       0.4643    0.4643    0.2500
  band No.  band energies     occupation 
      1      -6.0050      2.00000
      2      -5.4107      2.00000
      3      -5.4107      2.00000
      4      -4.8566      2.00000
      5      -0.9468      2.00000
      6      -0.4119      2.00000
      7      -0.4119      2.00000
      8       0.1603      2.00000
      9       6.2544      2.00000
     10       6.6372      2.00000
     11       6.6372      2.00000
     12       7.0748      2.00000
     13       8.0605      2.00000
     14       8.2493      2.00000
     15       8.2493      2.00000
     16       8.6241      2.00000
     17      19.3875      0.00000
     18      19.7340      0.00000
     19      19.7340      0.00000
     20      19.8865      0.00000
     21      20.2567      0.00000
     22      20.4616      0.00000
     23      20.4616      0.00000
     24      21.0681      0.00000

 k-point    75 :       0.3214    0.3214    0.3214
  band No.  band energies     occupation 
      1      -7.6185      2.00000
      2      -4.5880      2.00000
      3      -4.5880      2.00000
      4      -4.5880      2.00000
      5      -0.7321      2.00000
      6      -0.7321      2.00000
      7      -0.7321      2.00000
      8       2.1854      2.00000
      9       5.9930      2.00000
     10       5.9930      2.00000
     11       5.9930      2.00000
     12       7.1325      2.00000
     13       7.1325      2.00000
     14       7.1325      2.00000
     15       9.0252      2.00000
     16       9.0252      2.00000
     17      18.3716      0.00000
     18      18.3716      0.00000
     19      18.3716      0.00000
     20      19.6825      0.00000
     21      19.6825      0.00000
     22      20.1353      0.00000
     23      22.5175      0.00000
     24      22.5175      0.00000

 k-point    76 :       0.3929    0.3214    0.3214
  band No.  band energies     occupation 
      1      -7.1620      2.00000
      2      -5.3183      2.00000
      3      -4.2885      2.00000
      4      -4.2885      2.00000
      5      -1.3431      2.00000
      6      -1.3431      2.00000
      7      -0.3485      2.00000
      8       1.4292      2.00000
      9       6.1924      2.00000
     10       6.1924      2.00000
     11       7.0065      2.00000
     12       7.3342      2.00000
     13       7.3342      2.00000
     14       7.4587      2.00000
     15       8.6303      2.00000
     16       8.9484      2.00000
     17      18.6704      0.00000
     18      18.8234      0.00000
     19      18.8234      0.00000
     20      19.4973      0.00000
     21      20.0909      0.00000
     22      20.3594      0.00000
     23      21.6798      0.00000
     24      21.6809      0.00000

 k-point    77 :       0.4643    0.3214    0.3214
  band No.  band energies     occupation 
      1      -6.6215      2.00000
      2      -6.0032      2.00000
      3      -4.0698      2.00000
      4      -4.0698      2.00000
      5      -1.7194      2.00000
      6      -1.7194      2.00000
      7       0.1510      2.00000
      8       0.7477      2.00000
      9       6.2979      2.00000
     10       6.2979      2.00000
     11       7.4269      2.00000
     12       7.4269      2.00000
     13       7.8273      2.00000
     14       7.8815      2.00000
     15       8.2238      2.00000
     16       8.5513      2.00000
     17      18.9756      0.00000
     18      19.2594      0.00000
     19      19.4385      0.00000
     20      19.4385      0.00000
     21      20.5910      0.00000
     22      20.7914      0.00000
     23      20.7914      0.00000
     24      20.8225      0.00000

 k-point    78 :       0.3929    0.3929    0.3214
  band No.  band energies     occupation 
      1      -6.7129      2.00000
      2      -4.9396      2.00000
      3      -4.9396      2.00000
      4      -4.1532      2.00000
      5      -1.8059      2.00000
      6      -1.0398      2.00000
      7      -1.0398      2.00000
      8       0.6746      2.00000
      9       6.5341      2.00000
     10       7.0659      2.00000
     11       7.0659      2.00000
     12       7.6584      2.00000
     13       7.7011      2.00000
     14       7.7011      2.00000
     15       8.4464      2.00000
     16       8.8929      2.00000
     17      18.9999      0.00000
     18      19.1021      0.00000
     19      19.1021      0.00000
     20      19.7222      0.00000
     21      19.9967      0.00000
     22      20.4173      0.00000
     23      21.0960      0.00000
     24      21.0960      0.00000

 k-point    79 :       0.4643    0.3929    0.3214
  band No.  band energies     occupation 
      1      -6.1843      2.00000
      2      -5.5865      2.00000
      3      -4.5479      2.00000
      4      -4.2390      2.00000
      5      -1.8886      2.00000
      6      -1.5863      2.00000
      7      -0.5774      2.00000
      8       0.0012      2.00000
      9       6.7888      2.00000
     10       6.9708      2.00000
     11       7.6755      2.00000
     12       7.8425      2.00000
     13       7.8531      2.00000
     14       8.0976      2.00000
     15       8.1957      2.00000
     16       8.6573      2.00000
     17      19.3784      0.00000
     18      19.4054      0.00000
     19      19.6170      0.00000
     20      19.6193      0.00000
     21      20.2413      0.00000
     22      20.4468      0.00000
     23      20.6120      0.00000
     24      20.7631      0.00000

 k-point    80 :       0.4643    0.4643    0.3214
  band No.  band energies     occupation 
      1      -5.6762      2.00000
      2      -5.1162      2.00000
      3      -5.1162      2.00000
      4      -4.6346      2.00000
      5      -1.6691      2.00000
      6      -1.1994      2.00000
      7      -1.1994      2.00000
      8      -0.6555      2.00000
      9       7.1507      2.00000
     10       7.4411      2.00000
     11       7.4411      2.00000
     12       7.8037      2.00000
     13       8.1705      2.00000
     14       8.3017      2.00000
     15       8.3017      2.00000
     16       8.6013      2.00000
     17      19.5634      0.00000
     18      19.7786      0.00000
     19      19.7786      0.00000
     20      19.9457      0.00000
     21      20.0335      0.00000
     22      20.2458      0.00000
     23      20.2458      0.00000
     24      20.6388      0.00000

 k-point    81 :       0.3929    0.3929    0.3929
  band No.  band energies     occupation 
      1      -6.2747      2.00000
      2      -4.6327      2.00000
      3      -4.6327      2.00000
      4      -4.6327      2.00000
      5      -1.6734      2.00000
      6      -1.6734      2.00000
      7      -1.6734      2.00000
      8      -0.0772      2.00000
      9       7.4273      2.00000
     10       7.4273      2.00000
     11       7.4273      2.00000
     12       7.8975      2.00000
     13       7.8975      2.00000
     14       7.8975      2.00000
     15       8.6689      2.00000
     16       8.6689      2.00000
     17      19.2618      0.00000
     18      19.2618      0.00000
     19      19.2618      0.00000
     20      19.8572      0.00000
     21      19.8572      0.00000
     22      20.3843      0.00000
     23      20.9480      0.00000
     24      20.9480      0.00000

 k-point    82 :       0.4643    0.3929    0.3929
  band No.  band energies     occupation 
      1      -5.7650      2.00000
      2      -5.2032      2.00000
      3      -4.4068      2.00000
      4      -4.4068      2.00000
      5      -2.0639      2.00000
      6      -2.0639      2.00000
      7      -1.2847      2.00000
      8      -0.7379      2.00000
      9       7.5528      2.00000
     10       7.5528      2.00000
     11       8.0644      2.00000
     12       8.0644      2.00000
     13       8.1265      2.00000
     14       8.1557      2.00000
     15       8.4182      2.00000
     16       8.5587      2.00000
     17      19.5093      0.00000
     18      19.6071      0.00000
     19      19.6071      0.00000
     20      19.7093      0.00000
     21      20.1092      0.00000
     22      20.4216      0.00000
     23      20.4217      0.00000
     24      20.4791      0.00000

 k-point    83 :       0.4643    0.4643    0.3929
  band No.  band energies     occupation 
      1      -5.2913      2.00000
      2      -4.8056      2.00000
      3      -4.8056      2.00000
      4      -4.4917      2.00000
      5      -2.1513      2.00000
      6      -1.8429      2.00000
      7      -1.8429      2.00000
      8      -1.3678      2.00000
      9       7.8712      2.00000
     10       8.0392      2.00000
     11       8.0392      2.00000
     12       8.2859      2.00000
     13       8.2982      2.00000
     14       8.3461      2.00000
     15       8.3461      2.00000
     16       8.5567      2.00000
     17      19.7251      0.00000
     18      19.7797      0.00000
     19      19.7797      0.00000
     20      19.9030      0.00000
     21      19.9446      0.00000
     22      20.1470      0.00000
     23      20.1470      0.00000
     24      20.2770      0.00000

 k-point    84 :       0.4643    0.4643    0.4643
  band No.  band energies     occupation 
      1      -4.8918      2.00000
      2      -4.5762      2.00000
      3      -4.5762      2.00000
      4      -4.5762      2.00000
      5      -2.2400      2.00000
      6      -2.2400      2.00000
      7      -2.2400      2.00000
      8      -1.9296      2.00000
      9       8.3377      2.00000
     10       8.3377      2.00000
     11       8.3377      2.00000
     12       8.3948      2.00000
     13       8.3948      2.00000
     14       8.3948      2.00000
     15       8.4873      2.00000
     16       8.4873      2.00000
     17      19.8355      0.00000
     18      19.8355      0.00000
     19      19.8355      0.00000
     20      19.8953      0.00000
     21      19.8953      0.00000
     22      20.0218      0.00000
     23      20.0218      0.00000
     24      20.0218      0.00000


--------------------------------------------------------------------------------------------------------


 soft charge-density along one line, spin component           1
         0         1         2         3         4         5         6         7         8         9
 total charge-density along one line
 
 pseudopotential strength for first ion, spin component:           1
 12.153  20.438  -0.000   0.000  -0.000  -0.000   0.000   0.000
 20.438  34.372  -0.000   0.000  -0.000  -0.000   0.000   0.000
 -0.000  -0.000  -2.961   0.000   0.000  -5.290   0.000   0.000
  0.000   0.000   0.000  -2.961   0.000   0.000  -5.290   0.000
 -0.000  -0.000   0.000   0.000  -2.961   0.000   0.000  -5.290
 -0.000  -0.000  -5.290   0.000   0.000  -9.430   0.000   0.000
  0.000   0.000   0.000  -5.290   0.000   0.000  -9.430   0.000
  0.000   0.000   0.000   0.000  -5.290   0.000   0.000  -9.430
 total augmentation occupancy for first ion, spin component:           1
  7.486  -2.645  -0.000   0.000   0.000  -0.000   0.000   0.000
 -2.645   0.990   0.000   0.000   0.000   0.000   0.000   0.000
  0.000   0.000   5.913   0.000   0.000  -1.934  -0.000  -0.000
  0.000   0.000   0.000   5.913   0.000  -0.000  -1.934  -0.000
  0.000   0.000   0.000   0.000   5.913  -0.000   0.000  -1.934
 -0.000   0.000  -1.934  -0.000   0.000   0.651   0.000  -0.000
 -0.000   0.000   0.000  -1.934   0.000  -0.000   0.651   0.000
 -0.000   0.000   0.000  -0.000  -1.934   0.000   0.000   0.651


------------------------ aborting loop because EDIFF is reached ----------------------------------------


    CHARGE:  cpu time    0.0740: real time    0.0748
    FORLOC:  cpu time    0.0020: real time    0.0034
    FORNL :  cpu time    0.1920: real time    0.2002
    STRESS:  cpu time    1.1628: real time    1.2065
    FORCOR:  cpu time    0.0050: real time    0.0123
    FORHAR:  cpu time    0.0010: real time    0.0045
    MIXING:  cpu time    0.0000: real time    0.0007
    OFIELD:  cpu time    0.0010: real time    0.0029

  FORCE on cell =-STRESS in cart. coord.  units (eV):
  Direction    XX          YY          ZZ          XY          YZ          ZX
  --------------------------------------------------------------------------------------
  Alpha Z    79.23182    79.23182    79.23182
  Ewald    -467.73999  -467.73999  -467.73999    -0.00000     0.00000    -0.00000
  Hartree    34.63065    34.63065    34.63065     0.00000    -0.00000    -0.00000
  E(xc)    -132.96796  -132.96796  -132.96796    -0.00000    -0.00000     0.00000
  Local    -124.77868  -124.77868  -124.77868    -0.00000     0.00000     0.00000
  n-local    28.03556    27.27641    27.64132     0.57449     0.77216     0.37180
  augment     0.46722     0.46722     0.46722    -0.00000     0.00000    -0.00000
  Kinetic   575.39739   592.72740   592.62763    -6.02712    -7.92123    -4.28785
  Fock        0.00000     0.00000     0.00000     0.00000     0.00000     0.00000
  -------------------------------------------------------------------------------------
  Total       3.41165     3.41165     3.41165     0.00000     0.00000     0.00000
  in kB     123.43810   123.43810   123.43810     0.00000     0.00000     0.00000
  external pressure =      123.44 kB  Pullay stress =        0.00 kB


 VOLUME and BASIS-vectors are now :
 -----------------------------------------------------------------------------
  energy-cutoff  :      875.00
  volume of cell :       44.28
      direct lattice vectors                 reciprocal lattice vectors
     3.537869020  0.000000000  0.000000000     0.282656027  0.000000000  0.000000000
     0.000000000  3.537869020  0.000000000     0.000000000  0.282656027  0.000000000
     0.000000000  0.000000000  3.537869020     0.000000000  0.000000000  0.282656027

  length of vectors
     3.537869020  3.537869020  3.537869020     0.282656027  0.282656027  0.282656027


 FORCES acting on ions
    electron-ion (+dipol)            ewald-force                    non-local-force                 convergence-correction
 -----------------------------------------------------------------------------------------------
   0.226E-13 0.215E-12 -.110E-13   -.639E-13 -.284E-13 0.000E+00   -.399E-16 0.867E-17 0.590E-16   -.977E-14 -.740E-14 0.103E-13
   0.201E-14 0.439E-15 -.315E-13   -.423E-13 -.214E-13 -.142E-13   -.199E-16 0.434E-16 -.109E-15   0.124E-14 0.459E-14 0.114E-13
   0.346E-13 0.248E-12 0.113E-14   -.213E-13 -.711E-14 0.711E-14   0.486E-16 -.781E-17 -.278E-16   -.986E-14 -.890E-14 0.130E-13
   0.151E-14 0.229E-13 -.894E-14   -.277E-14 -.192E-16 -.626E-14   -.139E-16 0.347E-17 0.278E-16   0.176E-14 0.395E-14 0.112E-13
   0.567E-13 -.185E-12 -.373E-12   0.000E+00 0.000E+00 0.711E-14   -.347E-16 0.234E-16 -.278E-16   0.175E-14 -.775E-14 0.132E-13
   0.166E-13 -.416E-14 -.758E-12   0.355E-13 0.716E-14 -.626E-14   -.382E-16 0.347E-17 0.243E-16   -.914E-14 0.507E-14 0.116E-13
   0.653E-13 -.537E-12 -.357E-13   0.355E-13 0.213E-13 0.142E-13   0.867E-17 -.555E-16 0.118E-15   0.176E-14 -.928E-14 0.944E-14
   0.146E-13 -.378E-12 -.429E-12   0.711E-13 0.284E-13 0.278E-16   0.494E-16 -.121E-16 -.572E-16   -.860E-14 0.435E-14 0.120E-13
 -----------------------------------------------------------------------------------------------
   0.214E-12 -.617E-12 -.165E-11   0.119E-13 -.910E-16 0.171E-14   -.399E-16 0.694E-17 0.694E-17   -.309E-13 -.154E-13 0.922E-13
 
 
 POSITION                                       TOTAL-FORCE (eV/Angst)
 -----------------------------------------------------------------------------------
      0.88447      0.88447      0.88447         0.000000      0.000000      0.000000
      0.00000      0.00000      0.00000         0.000000      0.000000     -0.000000
      0.88447      2.65340      2.65340         0.000000      0.000000      0.000000
      0.00000      1.76893      1.76893        -0.000000      0.000000     -0.000000
      2.65340      0.88447      2.65340         0.000000     -0.000000     -0.000000
      1.76893      0.00000      1.76893         0.000000     -0.000000     -0.000000
      2.65340      2.65340      0.88447        -0.000000     -0.000000      0.000000
      1.76893      1.76893      0.00000        -0.000000     -0.000000     -0.000000
 -----------------------------------------------------------------------------------
    total drift:                                0.000000     -0.000000     -0.000000


--------------------------------------------------------------------------------------------------------



  FREE ENERGIE OF THE ION-ELECTRON SYSTEM (eV)
  ---------------------------------------------------
  free  energy   TOTEN  =       -72.79343358 eV

  energy  without entropy=      -72.79343358  energy(sigma->0) =      -72.79343358
 


--------------------------------------------------------------------------------------------------------


    POTLOK:  cpu time    0.0130: real time    0.0188


--------------------------------------------------------------------------------------------------------


 stress matrix after NEB project (eV)
      3.41165      0.00000      0.00000
      0.00000      3.41165      0.00000
     -0.00000      0.00000      3.41165
  FORCES: max atom, RMS     0.000000    0.000000
  FORCE total and by dimension    0.000000    0.000000
  Stress total and by dimension    5.909143    3.411646


--------------------------------------------------------------------------------------------------------


  
 reached required accuracy - stopping structural energy minimisation
     LOOP+:  cpu time   28.9326: real time   29.4122
    4ORBIT:  cpu time    0.0000: real time    0.0000

 total amount of memory used by VASP MPI-rank0    51217. kBytes
=======================================================================

   base      :      30000. kBytes
   nonl-proj :      14530. kBytes
   fftplans  :        905. kBytes
   grid      :       2114. kBytes
   one-center:         24. kBytes
   wavefun   :       3644. kBytes
 
  
  
 General timing and accounting informations for this job:
 ========================================================
  
                  Total CPU time used (sec):       31.435
                            User time (sec):       30.358
                          System time (sec):        1.077
                         Elapsed time (sec):       32.682
  
                   Maximum memory used (kb):      126376.
                   Average memory used (kb):           0.
  
                          Minor page faults:        31681
                          Major page faults:          337
                 Voluntary context switches:         8690
