 running on   24 total cores
 distrk:  each k-point on   24 cores,    1 groups
 distr:  one band on    1 cores,   24 groups
 using from now: INCAR     
 vasp.5.4.4.18Apr17-6-g9f103f2a35 (build Jan 14 2019 14:48:31) complex          
  
 POSCAR found type information on POSCAR  C 
 POSCAR found :  1 types and       8 ions
 scaLAPACK will be used

 ----------------------------------------------------------------------------- 
|                                                                             |
|           W    W    AA    RRRRR   N    N  II  N    N   GGGG   !!!           |
|           W    W   A  A   R    R  NN   N  II  NN   N  G    G  !!!           |
|           W    W  A    A  R    R  N N  N  II  N N  N  G       !!!           |
|           W WW W  AAAAAA  RRRRR   N  N N  II  N  N N  G  GGG   !            |
|           WW  WW  A    A  R   R   N   NN  II  N   NN  G    G                |
|           W    W  A    A  R    R  N    N  II  N    N   GGGG   !!!           |
|                                                                             |
|      For optimal performance we recommend to set                            |
|        NCORE= 4 - approx SQRT( number of cores)                             |
|      NCORE specifies how many cores store one orbital (NPAR=cpu/NCORE).     |
|      This setting can  greatly improve the performance of VASP for DFT.     |
|      The default,   NCORE=1            might be grossly inefficient         |
|      on modern multi-core architectures or massively parallel machines.     |
|      Do your own testing !!!!                                               |
|      Unfortunately you need to use the default for GW and RPA calculations. |
|      (for HF NCORE is supported but not extensively tested yet)             |
|                                                                             |
 ----------------------------------------------------------------------------- 

 WARNING: for PREC=h ENMAX is automatically increase by 25 %
        this was not the case for versions prior to vasp.4.4
 LDA part: xc-table for Pade appr. of Perdew
 POSCAR found type information on POSCAR  C 
 POSCAR found :  1 types and       8 ions
 POSCAR, INCAR and KPOINTS ok, starting setup
 FFT: planning ...
 WAVECAR not read
 entering main loop
       N       E                     dE             d eps       ncg     rms          rms(c)
DAV:   1     0.998001636950E+02    0.99800E+02   -0.26040E+04  4032   0.199E+03
DAV:   2    -0.728133070480E+02   -0.17261E+03   -0.16946E+03  6624   0.226E+02
DAV:   3    -0.754489807438E+02   -0.26357E+01   -0.26357E+01  4632   0.395E+01
DAV:   4    -0.754645883409E+02   -0.15608E-01   -0.15608E-01  7584   0.236E+00
DAV:   5    -0.754645902536E+02   -0.19127E-05   -0.19127E-05  4512   0.312E-02    0.172E+01
DAV:   6    -0.734648973107E+02    0.19997E+01   -0.14991E+00  4560   0.659E+00    0.113E+01
DAV:   7    -0.727951187891E+02    0.66978E+00   -0.19380E+00  5592   0.755E+00    0.248E+00
DAV:   8    -0.727931516327E+02    0.19672E-02   -0.25898E-02  6696   0.123E+00    0.121E-01
DAV:   9    -0.727933118334E+02   -0.16020E-03   -0.44763E-04  5736   0.142E-01    0.616E-02
DAV:  10    -0.727934319901E+02   -0.12016E-03   -0.10961E-04  6360   0.838E-02    0.494E-03
DAV:  11    -0.727934332279E+02   -0.12379E-05   -0.18565E-06  6168   0.109E-02    0.310E-03
DAV:  12    -0.727934335723E+02   -0.34431E-06   -0.62174E-08  6168   0.230E-03    0.160E-04
DAV:  13    -0.727934335810E+02   -0.87584E-08   -0.10311E-10  6192   0.829E-05
   1 F= -.72793434E+02 E0= -.72793434E+02  d E =-.727934E+02
 curvature:   0.00 expect dE= 0.000E+00 dE for cont linesearch  0.000E+00
 trial: gam= 0.00000 g(F)=  0.954E-59 g(S)=  0.000E+00 ort = 0.000E+00 (trialstep = 0.100E+01)
 search vector abs. value=  0.100E-09
 reached required accuracy - stopping structural energy minimisation
