   4   4   0   0
  0.1512707E+02  0.3925892E-09  0.3925891E-09  0.3925891E-09  0.2000000E-15
  1.000000000000000E-004
  CAR 
 unknown system                          
     23.24332006     -0.67694907  301     11.64217288      1.00000000
     -0.677  0.0000E+00  0.0000E+00
     -0.597  0.0000E+00  0.0000E+00
     -0.517  0.0000E+00  0.0000E+00
     -0.438  0.0000E+00  0.0000E+00
     -0.358  0.0000E+00  0.0000E+00
     -0.278  0.0000E+00  0.0000E+00
     -0.199  0.0000E+00  0.0000E+00
     -0.119  0.2719E-17  0.2168E-18
     -0.039  0.7868E-14  0.6276E-15
      0.041  0.6683E-11  0.5335E-12
      0.120  0.1720E-08  0.1377E-09
      0.200  0.1425E-06  0.1150E-07
      0.280  0.4196E-05  0.3461E-06
      0.360  0.4942E-04  0.4287E-05
      0.439  0.2577E-03  0.2483E-04
      0.519  0.6445E-03  0.7622E-04
      0.599  0.9420E-03  0.1513E-03
      0.679  0.1308E-02  0.2556E-03
      0.758  0.1668E-02  0.3886E-03
      0.838  0.1515E-02  0.5094E-03
      0.918  0.1811E-02  0.6538E-03
      0.997  0.2344E-02  0.8407E-03
      1.077  0.2318E-02  0.1026E-02
      1.157  0.2464E-02  0.1222E-02
      1.237  0.2509E-02  0.1422E-02
      1.316  0.2333E-02  0.1608E-02
      1.396  0.3165E-02  0.1860E-02
      1.476  0.3599E-02  0.2147E-02
      1.556  0.3636E-02  0.2437E-02
      1.635  0.3119E-02  0.2686E-02
      1.715  0.2648E-02  0.2897E-02
      1.795  0.3910E-02  0.3209E-02
      1.875  0.4862E-02  0.3597E-02
      1.954  0.4611E-02  0.3964E-02
      2.034  0.4178E-02  0.4297E-02
      2.114  0.4214E-02  0.4633E-02
      2.193  0.4902E-02  0.5024E-02
      2.273  0.5192E-02  0.5438E-02
      2.353  0.5193E-02  0.5852E-02
      2.433  0.5284E-02  0.6273E-02
      2.512  0.6703E-02  0.6808E-02
      2.592  0.7488E-02  0.7405E-02
      2.672  0.6626E-02  0.7933E-02
      2.752  0.6332E-02  0.8438E-02
      2.831  0.6726E-02  0.8974E-02
      2.911  0.9281E-02  0.9714E-02
      2.991  0.1215E-01  0.1068E-01
      3.071  0.1292E-01  0.1171E-01
      3.150  0.1552E-01  0.1295E-01
      3.230  0.2128E-01  0.1465E-01
      3.310  0.2548E-01  0.1668E-01
      3.389  0.2742E-01  0.1887E-01
      3.469  0.2950E-01  0.2122E-01
      3.549  0.3385E-01  0.2392E-01
      3.629  0.3865E-01  0.2700E-01
      3.708  0.4632E-01  0.3069E-01
      3.788  0.5035E-01  0.3471E-01
      3.868  0.5330E-01  0.3896E-01
      3.948  0.6286E-01  0.4397E-01
      4.027  0.6640E-01  0.4926E-01
      4.107  0.6404E-01  0.5437E-01
      4.187  0.6433E-01  0.5950E-01
      4.267  0.6536E-01  0.6471E-01
      4.346  0.5916E-01  0.6943E-01
      4.426  0.5554E-01  0.7385E-01
      4.506  0.5889E-01  0.7855E-01
      4.586  0.5746E-01  0.8313E-01
      4.665  0.5317E-01  0.8737E-01
      4.745  0.5276E-01  0.9158E-01
      4.825  0.4797E-01  0.9540E-01
      4.904  0.3925E-01  0.9853E-01
      4.984  0.4077E-01  0.1018E+00
      5.064  0.4631E-01  0.1055E+00
      5.144  0.4982E-01  0.1094E+00
      5.223  0.5272E-01  0.1137E+00
      5.303  0.5915E-01  0.1184E+00
      5.383  0.6229E-01  0.1233E+00
      5.463  0.6224E-01  0.1283E+00
      5.542  0.6508E-01  0.1335E+00
      5.622  0.6165E-01  0.1384E+00
      5.702  0.5907E-01  0.1431E+00
      5.782  0.6449E-01  0.1483E+00
      5.861  0.6766E-01  0.1537E+00
      5.941  0.6912E-01  0.1592E+00
      6.021  0.6673E-01  0.1645E+00
      6.100  0.6557E-01  0.1697E+00
      6.180  0.7111E-01  0.1754E+00
      6.260  0.8005E-01  0.1818E+00
      6.340  0.8889E-01  0.1889E+00
      6.419  0.9293E-01  0.1963E+00
      6.499  0.9883E-01  0.2041E+00
      6.579  0.1075E+00  0.2127E+00
      6.659  0.1042E+00  0.2210E+00
      6.738  0.8593E-01  0.2279E+00
      6.818  0.7060E-01  0.2335E+00
      6.898  0.6502E-01  0.2387E+00
      6.978  0.5844E-01  0.2433E+00
      7.057  0.5445E-01  0.2477E+00
      7.137  0.5448E-01  0.2520E+00
      7.217  0.5333E-01  0.2563E+00
      7.296  0.5167E-01  0.2604E+00
      7.376  0.5123E-01  0.2645E+00
      7.456  0.5398E-01  0.2688E+00
      7.536  0.6008E-01  0.2736E+00
      7.615  0.6447E-01  0.2787E+00
      7.695  0.6349E-01  0.2838E+00
      7.775  0.6525E-01  0.2890E+00
      7.855  0.7144E-01  0.2947E+00
      7.934  0.7295E-01  0.3005E+00
      8.014  0.6699E-01  0.3058E+00
      8.094  0.6014E-01  0.3106E+00
      8.174  0.5768E-01  0.3152E+00
      8.253  0.5981E-01  0.3200E+00
      8.333  0.5975E-01  0.3248E+00
      8.413  0.5476E-01  0.3291E+00
      8.492  0.4787E-01  0.3330E+00
      8.572  0.4677E-01  0.3367E+00
      8.652  0.5256E-01  0.3409E+00
      8.732  0.5521E-01  0.3453E+00
      8.811  0.5493E-01  0.3497E+00
      8.891  0.5298E-01  0.3539E+00
      8.971  0.4765E-01  0.3577E+00
      9.051  0.5457E-01  0.3620E+00
      9.130  0.6502E-01  0.3672E+00
      9.210  0.6376E-01  0.3723E+00
      9.290  0.6436E-01  0.3774E+00
      9.370  0.8071E-01  0.3839E+00
      9.449  0.9934E-01  0.3918E+00
      9.529  0.9347E-01  0.3992E+00
      9.609  0.7679E-01  0.4054E+00
      9.689  0.6403E-01  0.4105E+00
      9.768  0.5032E-01  0.4145E+00
      9.848  0.4348E-01  0.4179E+00
      9.928  0.3951E-01  0.4211E+00
     10.007  0.2390E-01  0.4230E+00
     10.087  0.1016E-01  0.4238E+00
     10.167  0.4837E-02  0.4242E+00
     10.247  0.5465E-02  0.4246E+00
     10.326  0.8413E-02  0.4253E+00
     10.406  0.1390E-01  0.4264E+00
     10.486  0.1766E-01  0.4278E+00
     10.566  0.1372E-01  0.4289E+00
     10.645  0.8750E-02  0.4296E+00
     10.725  0.6714E-02  0.4301E+00
     10.805  0.7095E-02  0.4307E+00
     10.885  0.8890E-02  0.4314E+00
     10.964  0.1268E-01  0.4324E+00
     11.044  0.1388E-01  0.4335E+00
     11.124  0.1088E-01  0.4344E+00
     11.203  0.8405E-02  0.4351E+00
     11.283  0.7158E-02  0.4356E+00
     11.363  0.7648E-02  0.4363E+00
     11.443  0.1216E-01  0.4372E+00
     11.522  0.1644E-01  0.4385E+00
     11.602  0.1375E-01  0.4396E+00
     11.682  0.8242E-02  0.4403E+00
     11.762  0.6595E-02  0.4408E+00
     11.841  0.8031E-02  0.4415E+00
     11.921  0.9471E-02  0.4422E+00
     12.001  0.1092E-01  0.4431E+00
     12.081  0.1419E-01  0.4442E+00
     12.160  0.1183E-01  0.4452E+00
     12.240  0.8626E-02  0.4458E+00
     12.320  0.8645E-02  0.4465E+00
     12.399  0.9372E-02  0.4473E+00
     12.479  0.9835E-02  0.4481E+00
     12.559  0.1111E-01  0.4490E+00
     12.639  0.1253E-01  0.4500E+00
     12.718  0.1174E-01  0.4509E+00
     12.798  0.1042E-01  0.4517E+00
     12.878  0.9457E-02  0.4525E+00
     12.958  0.9791E-02  0.4533E+00
     13.037  0.9687E-02  0.4540E+00
     13.117  0.8694E-02  0.4547E+00
     13.197  0.9112E-02  0.4554E+00
     13.277  0.9239E-02  0.4562E+00
     13.356  0.9213E-02  0.4569E+00
     13.436  0.1162E-01  0.4578E+00
     13.516  0.1165E-01  0.4588E+00
     13.595  0.9626E-02  0.4595E+00
     13.675  0.9294E-02  0.4603E+00
     13.755  0.8950E-02  0.4610E+00
     13.835  0.7460E-02  0.4616E+00
     13.914  0.8097E-02  0.4622E+00
     13.994  0.1252E-01  0.4632E+00
     14.074  0.1204E-01  0.4642E+00
     14.154  0.7822E-02  0.4648E+00
     14.233  0.5546E-02  0.4653E+00
     14.313  0.5664E-02  0.4657E+00
     14.393  0.8153E-02  0.4664E+00
     14.473  0.1093E-01  0.4672E+00
     14.552  0.1070E-01  0.4681E+00
     14.632  0.8527E-02  0.4688E+00
     14.712  0.7494E-02  0.4694E+00
     14.791  0.8400E-02  0.4700E+00
     14.871  0.7743E-02  0.4706E+00
     14.951  0.6744E-02  0.4712E+00
     15.031  0.7514E-02  0.4718E+00
     15.110  0.9335E-02  0.4725E+00
     15.190  0.1029E-01  0.4734E+00
     15.270  0.1391E-01  0.4745E+00
     15.350  0.1909E-01  0.4760E+00
     15.429  0.1694E-01  0.4773E+00
     15.509  0.1233E-01  0.4783E+00
     15.589  0.1319E-01  0.4794E+00
     15.669  0.1696E-01  0.4807E+00
     15.748  0.1918E-01  0.4822E+00
     15.828  0.1523E-01  0.4835E+00
     15.908  0.7182E-02  0.4840E+00
     15.988  0.5211E-02  0.4845E+00
     16.067  0.9177E-02  0.4852E+00
     16.147  0.1190E-01  0.4861E+00
     16.227  0.1248E-01  0.4871E+00
     16.306  0.1361E-01  0.4882E+00
     16.386  0.1377E-01  0.4893E+00
     16.466  0.1031E-01  0.4901E+00
     16.546  0.6927E-02  0.4907E+00
     16.625  0.8591E-02  0.4914E+00
     16.705  0.1208E-01  0.4923E+00
     16.785  0.1224E-01  0.4933E+00
     16.865  0.9478E-02  0.4941E+00
     16.944  0.1004E-01  0.4949E+00
     17.024  0.1280E-01  0.4959E+00
     17.104  0.1371E-01  0.4970E+00
     17.184  0.1215E-01  0.4979E+00
     17.263  0.1354E-01  0.4990E+00
     17.343  0.1433E-01  0.5002E+00
     17.423  0.1005E-01  0.5010E+00
     17.502  0.7770E-02  0.5016E+00
     17.582  0.9450E-02  0.5023E+00
     17.662  0.1066E-01  0.5032E+00
     17.742  0.1292E-01  0.5042E+00
     17.821  0.1756E-01  0.5056E+00
     17.901  0.1457E-01  0.5068E+00
     17.981  0.1147E-01  0.5077E+00
     18.061  0.1582E-01  0.5090E+00
     18.140  0.1499E-01  0.5102E+00
     18.220  0.8608E-02  0.5108E+00
     18.300  0.6898E-02  0.5114E+00
     18.380  0.9862E-02  0.5122E+00
     18.459  0.1329E-01  0.5132E+00
     18.539  0.1210E-01  0.5142E+00
     18.619  0.9337E-02  0.5149E+00
     18.698  0.7693E-02  0.5156E+00
     18.778  0.8429E-02  0.5162E+00
     18.858  0.1059E-01  0.5171E+00
     18.938  0.1155E-01  0.5180E+00
     19.017  0.1084E-01  0.5189E+00
     19.097  0.1161E-01  0.5198E+00
     19.177  0.1071E-01  0.5206E+00
     19.257  0.6778E-02  0.5212E+00
     19.336  0.5339E-02  0.5216E+00
     19.416  0.6612E-02  0.5221E+00
     19.496  0.1130E-01  0.5230E+00
     19.576  0.1552E-01  0.5243E+00
     19.655  0.1338E-01  0.5253E+00
     19.735  0.9064E-02  0.5261E+00
     19.815  0.9035E-02  0.5268E+00
     19.894  0.1303E-01  0.5278E+00
     19.974  0.1183E-01  0.5288E+00
     20.054  0.6410E-02  0.5293E+00
     20.134  0.7692E-02  0.5299E+00
     20.213  0.1110E-01  0.5308E+00
     20.293  0.1086E-01  0.5316E+00
     20.373  0.1089E-01  0.5325E+00
     20.453  0.1025E-01  0.5333E+00
     20.532  0.1031E-01  0.5342E+00
     20.612  0.1048E-01  0.5350E+00
     20.692  0.8390E-02  0.5357E+00
     20.772  0.7312E-02  0.5362E+00
     20.851  0.7499E-02  0.5368E+00
     20.931  0.7192E-02  0.5374E+00
     21.011  0.5247E-02  0.5378E+00
     21.090  0.2553E-02  0.5380E+00
     21.170  0.1694E-02  0.5382E+00
     21.250  0.1545E-02  0.5383E+00
     21.330  0.1960E-02  0.5384E+00
     21.409  0.2697E-02  0.5387E+00
     21.489  0.3650E-02  0.5390E+00
     21.569  0.3749E-02  0.5393E+00
     21.649  0.2761E-02  0.5395E+00
     21.728  0.1917E-02  0.5396E+00
     21.808  0.9626E-03  0.5397E+00
     21.888  0.5472E-03  0.5397E+00
     21.968  0.1132E-02  0.5398E+00
     22.047  0.1261E-02  0.5399E+00
     22.127  0.5903E-03  0.5400E+00
     22.207  0.1657E-03  0.5400E+00
     22.287  0.3852E-04  0.5400E+00
     22.366  0.4861E-05  0.5400E+00
     22.446  0.2188E-06  0.5400E+00
     22.526  0.3061E-08  0.5400E+00
     22.605  0.1273E-10  0.5400E+00
     22.685  0.1542E-13  0.5400E+00
     22.765  0.5380E-17  0.5400E+00
     22.845  0.0000E+00  0.5400E+00
     22.924  0.0000E+00  0.5400E+00
     23.004  0.0000E+00  0.5400E+00
     23.084  0.0000E+00  0.5400E+00
     23.164  0.0000E+00  0.5400E+00
     23.243  0.0000E+00  0.5400E+00
