    4    4  100    1
  0.1512707E+02  0.3925892E-09  0.3925891E-09  0.3925891E-09  0.2000000E-15
  1.000000000000000E-004
  CAR 
 unknown system                          
     44   1688     27
 
  0.0000000E+00  0.0000000E+00  0.0000000E+00  0.2962963E-03
    1        0.410336   1.000000
    2        3.321028   1.000000
    3        3.321028   1.000000
    4        3.321029   1.000000
    5        3.701553   1.000000
    6        3.701553   1.000000
    7        3.701553   1.000000
    8        6.206237   1.000000
    9        6.206238   1.000000
   10        6.206239   1.000000
   11        8.075311   1.000000
   12        8.075312   1.000000
   13        9.503911   1.000000
   14        9.503911   1.000000
   15        9.503912   1.000000
   16        9.952450   1.000000
   17        9.952451   1.000000
   18        9.952451   1.000000
   19        9.952452   1.000000
   20        9.952452   1.000000
   21        9.952453   1.000000
   22       12.281879   0.000000
   23       12.281880   0.000000
   24       12.281881   0.000000
   25       18.430077   0.000000
   26       18.430079   0.000000
   27       18.430079   0.000000
 
  0.6666667E-01 -0.8615809E-25  0.0000000E+00  0.5925926E-03
    1        0.468527   1.000000
    2        3.343686   1.000000
    3        3.361856   1.000000
    4        3.361857   1.000000
    5        3.724007   1.000000
    6        3.736136   1.000000
    7        3.736136   1.000000
    8        6.171945   1.000000
    9        6.234348   1.000000
   10        6.234349   1.000000
   11        8.038024   1.000000
   12        8.089428   1.000000
   13        9.449552   1.000000
   14        9.449552   1.000000
   15        9.486490   1.000000
   16        9.664427   1.000000
   17        9.664427   1.000000
   18        9.886292   1.000000
   19        9.886292   1.000000
   20        9.952582   1.000000
   21        9.952584   1.000000
   22       11.916601   0.000052
   23       12.605673   0.000000
   24       12.605674   0.000000
   25       18.343483   0.000000
   26       18.343484   0.000000
   27       18.886455   0.000000
 
  0.1333333E+00  0.3447938E-25 -0.8271806E-24  0.5925926E-03
    1        0.641722   1.000000
    2        3.407396   1.000000
    3        3.481709   1.000000
    4        3.481709   1.000000
    5        3.790849   1.000000
    6        3.839737   1.000000
    7        3.839737   1.000000
    8        6.071964   1.000000
    9        6.318253   1.000000
   10        6.318254   1.000000
   11        7.929344   1.000000
   12        8.131285   1.000000
   13        9.053059   1.000000
   14        9.053059   1.000000
   15        9.290090   1.000000
   16        9.290090   1.000000
   17        9.435298   1.000000
   18        9.697462   1.000000
   19        9.697462   1.000000
   20        9.952934   1.000000
   21        9.952935   1.000000
   22       11.050679   1.000000
   23       13.323322   0.000000
   24       13.323322   0.000000
   25       18.116133   0.000000
   26       18.116134   0.000000
   27       20.028052   0.000000
 
  0.2000000E+00 -0.5167870E-25 -0.4135903E-24  0.5925926E-03
    1        0.925177   1.000000
    2        3.498551   1.000000
    3        3.672085   1.000000
    4        3.672086   1.000000
    5        3.900562   1.000000
    6        4.011847   1.000000
    7        4.011847   1.000000
    8        5.913887   1.000000
    9        6.457152   1.000000
   10        6.457153   1.000000
   11        7.759299   1.000000
   12        8.199487   1.000000
   13        8.363484   1.000000
   14        8.363484   1.000000
   15        9.037663   1.000000
   16        9.037664   1.000000
   17        9.353340   1.000000
   18        9.411026   1.000000
   19        9.411026   1.000000
   20        9.953442   1.000000
   21        9.953444   1.000000
   22       10.011992   1.000000
   23       14.186441   0.000000
   24       14.186442   0.000000
   25       17.820461   0.000000
   26       17.820462   0.000000
   27       21.342567   0.000000
 
  0.2666667E+00  0.6895833E-25 -0.8271806E-24  0.5925926E-03
    1        1.309601   1.000000
    2        3.589194   1.000000
    3        3.916613   1.000000
    4        3.916614   1.000000
    5        4.050349   1.000000
    6        4.251731   1.000000
    7        4.251731   1.000000
    8        5.709274   1.000000
    9        6.649377   1.000000
   10        6.649377   1.000000
   11        7.545754   1.000000
   12        7.677653   1.000000
   13        7.677654   1.000000
   14        8.291816   1.000000
   15        8.716797   1.000000
   16        8.716798   1.000000
   17        8.988540   1.000000
   18        9.058307   1.000000
   19        9.058307   1.000000
   20        9.245247   1.000000
   21        9.954001   1.000000
   22        9.954003   1.000000
   23       15.107504   0.000000
   24       15.107505   0.000000
   25       17.526693   0.000000
   26       17.526694   0.000000
   27       20.873859   0.000000
 
  0.3333333E+00 -0.6375852E-24 -0.8271806E-24  0.5925926E-03
    1        1.778518   1.000000
    2        3.629676   1.000000
    3        4.186619   1.000000
    4        4.186620   1.000000
    5        4.236378   1.000000
    6        4.558423   1.000000
    7        4.558423   1.000000
    8        5.471606   1.000000
    9        6.892470   1.000000
   10        6.892470   1.000000
   11        7.024504   1.000000
   12        7.024504   1.000000
   13        7.316301   1.000000
   14        8.095948   1.000000
   15        8.369231   1.000000
   16        8.369232   1.000000
   17        8.405132   1.000000
   18        8.669730   1.000000
   19        8.669731   1.000000
   20        9.116916   1.000000
   21        9.954542   1.000000
   22        9.954544   1.000000
   23       16.049470   0.000000
   24       16.049470   0.000000
   25       17.282293   0.000000
   26       17.282294   0.000000
   27       20.278239   0.000000
 
  0.4000000E+00 -0.1033574E-24 -0.8271806E-24  0.5925926E-03
    1        2.302469   1.000000
    2        3.545519   1.000000
    3        4.434185   1.000000
    4        4.434186   1.000000
    5        4.453424   1.000000
    6        4.930527   1.000000
    7        4.930527   1.000000
    8        5.214742   1.000000
    9        6.417090   1.000000
   10        6.417090   1.000000
   11        7.112960   1.000000
   12        7.182663   1.000000
   13        7.182664   1.000000
   14        7.434504   1.000000
   15        8.058184   1.000000
   16        8.058185   1.000000
   17        8.270706   1.000000
   18        8.270706   1.000000
   19        8.535379   1.000000
   20        8.974985   1.000000
   21        9.954963   1.000000
   22        9.954964   1.000000
   23       16.988347   0.000000
   24       16.988348   0.000000
   25       17.111915   0.000000
   26       17.111916   0.000000
   27       19.570585   0.000000
 
  0.4666667E+00  0.4308700E-24 -0.8271806E-24  0.5925926E-03
    1        2.828709   1.000000
    2        3.272694   1.000000
    3        4.589770   1.000000
    4        4.589771   1.000000
    5        4.694685   1.000000
    6        4.951818   1.000000
    7        5.366135   1.000000
    8        5.366135   1.000000
    9        5.862750   1.000000
   10        5.862750   1.000000
   11        7.001018   1.000000
   12        7.076021   1.000000
   13        7.514593   1.000000
   14        7.514594   1.000000
   15        7.866884   1.000000
   16        7.866885   1.000000
   17        7.880804   1.000000
   18        7.880804   1.000000
   19        8.677663   1.000000
   20        8.826301   1.000000
   21        9.955203   1.000000
   22        9.955204   1.000000
   23       17.025359   0.000000
   24       17.025360   0.000000
   25       17.902858   0.000000
   26       17.902858   0.000000
   27       18.771236   0.000000
 
 -0.9810470E-25  0.6666667E-01 -0.4135903E-24  0.5925926E-03
    1        0.468527   1.000000
    2        3.343687   1.000000
    3        3.361856   1.000000
    4        3.361857   1.000000
    5        3.724007   1.000000
    6        3.736136   1.000000
    7        3.736136   1.000000
    8        6.171946   1.000000
    9        6.234348   1.000000
   10        6.234348   1.000000
   11        8.038024   1.000000
   12        8.089428   1.000000
   13        9.449552   1.000000
   14        9.449553   1.000000
   15        9.486490   1.000000
   16        9.664427   1.000000
   17        9.664427   1.000000
   18        9.886292   1.000000
   19        9.886292   1.000000
   20        9.952581   1.000000
   21        9.952584   1.000000
   22       11.916602   0.000052
   23       12.605672   0.000000
   24       12.605674   0.000000
   25       18.343481   0.000000
   26       18.343483   0.000000
   27       18.886458   0.000000
 
  0.6666667E-01  0.6666667E-01  0.0000000E+00  0.5925926E-03
    1        0.526338   1.000000
    2        3.384726   1.000000
    3        3.384727   1.000000
    4        3.399431   1.000000
    5        3.758315   1.000000
    6        3.758315   1.000000
    7        3.772889   1.000000
    8        6.155977   1.000000
    9        6.244860   1.000000
   10        6.260853   1.000000
   11        8.027144   1.000000
   12        8.079232   1.000000
   13        9.397558   1.000000
   14        9.405134   1.000000
   15        9.405135   1.000000
   16        9.466157   1.000000
   17        9.611507   1.000000
   18        9.611508   1.000000
   19        9.886293   1.000000
   20        9.886293   1.000000
   21        9.910214   1.000000
   22       12.249477   0.000000
   23       12.249478   0.000000
   24       12.882434   0.000000
   25       18.247535   0.000000
   26       18.795111   0.000000
   27       18.795114   0.000000
 
  0.1333333E+00  0.6666667E-01  0.4135903E-24  0.5925926E-03
    1        0.698164   1.000000
    2        3.449133   1.000000
    3        3.505273   1.000000
    4        3.509853   1.000000
    5        3.824364   1.000000
    6        3.861089   1.000000
    7        3.882634   1.000000
    8        6.066710   1.000000
    9        6.319883   1.000000
   10        6.339877   1.000000
   11        7.931179   1.000000
   12        8.114753   1.000000
   13        8.918600   1.000000
   14        8.940793   1.000000
   15        9.232128   1.000000
   16        9.244645   1.000000
   17        9.321613   1.000000
   18        9.495002   1.000000
   19        9.697213   1.000000
   20        9.886319   1.000000
   21        9.887253   1.000000
   22       11.429821   0.998664
   23       12.956411   0.000000
   24       13.538156   0.000000
   25       17.994842   0.000000
   26       18.560116   0.000000
   27       19.906341   0.000000
 
  0.2000000E+00  0.6666667E-01 -0.6203855E-24  0.5925926E-03
    1        0.979417   1.000000
    2        3.541370   1.000000
    3        3.686289   1.000000
    4        3.696913   1.000000
    5        3.932673   1.000000
    6        4.031763   1.000000
    7        4.063228   1.000000
    8        5.913768   1.000000
    9        6.456693   1.000000
   10        6.469123   1.000000
   11        7.768610   1.000000
   12        8.187469   1.000000
   13        8.241454   1.000000
   14        8.297874   1.000000
   15        8.880659   1.000000
   16        9.001564   1.000000
   17        9.065812   1.000000
   18        9.362255   1.000000
   19        9.410366   1.000000
   20        9.881664   1.000000
   21        9.886300   1.000000
   22       10.510260   1.000000
   23       13.774571   0.000000
   24       14.361997   0.000000
   25       17.663967   0.000000
   26       18.269320   0.000000
   27       20.956597   0.000000
 
  0.2666667E+00  0.6666667E-01 -0.6203855E-24  0.5925926E-03
    1        1.360906   1.000000
    2        3.633395   1.000000
    3        3.917126   1.000000
    4        3.943383   1.000000
    5        4.080570   1.000000
    6        4.269564   1.000000
    7        4.308844   1.000000
    8        5.713622   1.000000
    9        6.642065   1.000000
   10        6.648186   1.000000
   11        7.567005   1.000000
   12        7.569157   1.000000
   13        7.639422   1.000000
   14        8.287641   1.000000
   15        8.359973   1.000000
   16        8.691256   1.000000
   17        8.749182   1.000000
   18        9.057302   1.000000
   19        9.177019   1.000000
   20        9.738725   1.000000
   21        9.880589   1.000000
   22        9.886136   1.000000
   23       14.606469   0.000000
   24       15.259170   0.000000
   25       17.329779   0.000000
   26       18.015254   0.000000
   27       20.569059   0.000000
 
  0.3333333E+00  0.6666667E-01 -0.1240771E-23  0.5925926E-03
    1        1.826335   1.000000
    2        3.674876   1.000000
    3        4.182403   1.000000
    4        4.216180   1.000000
    5        4.264148   1.000000
    6        4.573481   1.000000
    7        4.609054   1.000000
    8        5.480411   1.000000
    9        6.832186   1.000000
   10        6.890933   1.000000
   11        6.928139   1.000000
   12        7.003821   1.000000
   13        7.384674   1.000000
   14        7.746512   1.000000
   15        8.354360   1.000000
   16        8.404363   1.000000
   17        8.411317   1.000000
   18        8.668443   1.000000
   19        8.835340   1.000000
   20        9.292181   1.000000
   21        9.881073   1.000000
   22        9.885785   1.000000
   23       15.380131   0.000000
   24       16.186064   0.000000
   25       17.038307   0.000000
   26       17.885556   0.000000
   27       20.098621   0.000000
 
  0.4000000E+00  0.6666667E-01  0.0000000E+00  0.5925926E-03
    1        2.346914   1.000000
    2        3.590206   1.000000
    3        4.440947   1.000000
    4        4.466923   1.000000
    5        4.478205   1.000000
    6        4.941862   1.000000
    7        4.954276   1.000000
    8        5.227986   1.000000
    9        6.339424   1.000000
   10        6.408445   1.000000
   11        6.915707   1.000000
   12        7.180960   1.000000
   13        7.219205   1.000000
   14        7.376340   1.000000
   15        8.054427   1.000000
   16        8.090669   1.000000
   17        8.269168   1.000000
   18        8.396259   1.000000
   19        8.554392   1.000000
   20        9.064715   1.000000
   21        9.882104   1.000000
   22        9.885180   1.000000
   23       15.997018   0.000000
   24       16.803375   0.000000
   25       17.115327   0.000000
   26       17.980132   0.000000
   27       19.546821   0.000000
 
  0.4666667E+00  0.6666667E-01  0.0000000E+00  0.5925926E-03
    1        2.871110   1.000000
    2        3.315544   1.000000
    3        4.614484   1.000000
    4        4.623151   1.000000
    5        4.716034   1.000000
    6        4.969303   1.000000
    7        5.349913   1.000000
    8        5.372587   1.000000
    9        5.810856   1.000000
   10        5.862755   1.000000
   11        6.866046   1.000000
   12        6.924056   1.000000
   13        7.512878   1.000000
   14        7.628659   1.000000
   15        7.875993   1.000000
   16        7.879151   1.000000
   17        7.889699   1.000000
   18        7.985353   1.000000
   19        8.712529   1.000000
   20        8.882180   1.000000
   21        9.883264   1.000000
   22        9.884336   1.000000
   23       16.380355   0.000000
   24       16.606274   0.000000
   25       18.023968   0.000000
   26       18.362505   0.000000
   27       18.896012   0.000000
 
 -0.4666667E+00  0.6666667E-01 -0.1654361E-23  0.5925926E-03
    1        2.871110   1.000000
    2        3.315544   1.000000
    3        4.614484   1.000000
    4        4.623151   1.000000
    5        4.716034   1.000000
    6        4.969303   1.000000
    7        5.349913   1.000000
    8        5.372587   1.000000
    9        5.810856   1.000000
   10        5.862755   1.000000
   11        6.866046   1.000000
   12        6.924056   1.000000
   13        7.512878   1.000000
   14        7.628659   1.000000
   15        7.875993   1.000000
   16        7.879151   1.000000
   17        7.889699   1.000000
   18        7.985353   1.000000
   19        8.712529   1.000000
   20        8.882180   1.000000
   21        9.883265   1.000000
   22        9.884336   1.000000
   23       16.380355   0.000000
   24       16.606273   0.000000
   25       18.023967   0.000000
   26       18.362506   0.000000
   27       18.890209   0.000000
 
 -0.4000000E+00  0.6666667E-01 -0.1654361E-23  0.5925926E-03
    1        2.346914   1.000000
    2        3.590206   1.000000
    3        4.440947   1.000000
    4        4.466923   1.000000
    5        4.478205   1.000000
    6        4.941862   1.000000
    7        4.954276   1.000000
    8        5.227986   1.000000
    9        6.339424   1.000000
   10        6.408445   1.000000
   11        6.915707   1.000000
   12        7.180960   1.000000
   13        7.219205   1.000000
   14        7.376340   1.000000
   15        8.054427   1.000000
   16        8.090669   1.000000
   17        8.269168   1.000000
   18        8.396259   1.000000
   19        8.554392   1.000000
   20        9.064715   1.000000
   21        9.882104   1.000000
   22        9.885180   1.000000
   23       15.997018   0.000000
   24       16.803375   0.000000
   25       17.115327   0.000000
   26       17.980132   0.000000
   27       19.544408   0.000000
 
 -0.3333333E+00  0.6666667E-01  0.8271806E-24  0.5925926E-03
    1        1.826335   1.000000
    2        3.674876   1.000000
    3        4.182403   1.000000
    4        4.216180   1.000000
    5        4.264148   1.000000
    6        4.573481   1.000000
    7        4.609054   1.000000
    8        5.480411   1.000000
    9        6.832185   1.000000
   10        6.890933   1.000000
   11        6.928139   1.000000
   12        7.003821   1.000000
   13        7.384674   1.000000
   14        7.746512   1.000000
   15        8.354360   1.000000
   16        8.404363   1.000000
   17        8.411317   1.000000
   18        8.668443   1.000000
   19        8.835340   1.000000
   20        9.292181   1.000000
   21        9.881073   1.000000
   22        9.885785   1.000000
   23       15.380131   0.000000
   24       16.186064   0.000000
   25       17.038307   0.000000
   26       17.885556   0.000000
   27       20.098955   0.000000
 
 -0.2666667E+00  0.6666667E-01  0.8271806E-24  0.5925926E-03
    1        1.360906   1.000000
    2        3.633395   1.000000
    3        3.917126   1.000000
    4        3.943383   1.000000
    5        4.080570   1.000000
    6        4.269564   1.000000
    7        4.308844   1.000000
    8        5.713622   1.000000
    9        6.642064   1.000000
   10        6.648186   1.000000
   11        7.567005   1.000000
   12        7.569157   1.000000
   13        7.639422   1.000000
   14        8.287641   1.000000
   15        8.359973   1.000000
   16        8.691256   1.000000
   17        8.749182   1.000000
   18        9.057302   1.000000
   19        9.177019   1.000000
   20        9.738725   1.000000
   21        9.880589   1.000000
   22        9.886136   1.000000
   23       14.606469   0.000000
   24       15.259169   0.000000
   25       17.329779   0.000000
   26       18.015254   0.000000
   27       20.569870   0.000000
 
 -0.2000000E+00  0.6666667E-01  0.0000000E+00  0.5925926E-03
    1        0.979417   1.000000
    2        3.541370   1.000000
    3        3.686289   1.000000
    4        3.696913   1.000000
    5        3.932673   1.000000
    6        4.031763   1.000000
    7        4.063228   1.000000
    8        5.913768   1.000000
    9        6.456693   1.000000
   10        6.469123   1.000000
   11        7.768610   1.000000
   12        8.187469   1.000000
   13        8.241454   1.000000
   14        8.297874   1.000000
   15        8.880659   1.000000
   16        9.001564   1.000000
   17        9.065813   1.000000
   18        9.362255   1.000000
   19        9.410366   1.000000
   20        9.881664   1.000000
   21        9.886300   1.000000
   22       10.510260   1.000000
   23       13.774571   0.000000
   24       14.361997   0.000000
   25       17.663967   0.000000
   26       18.269319   0.000000
   27       20.957081   0.000000
 
 -0.1333333E+00  0.6666667E-01 -0.8271806E-24  0.5925926E-03
    1        0.698164   1.000000
    2        3.449133   1.000000
    3        3.505273   1.000000
    4        3.509852   1.000000
    5        3.824364   1.000000
    6        3.861089   1.000000
    7        3.882634   1.000000
    8        6.066710   1.000000
    9        6.319883   1.000000
   10        6.339877   1.000000
   11        7.931179   1.000000
   12        8.114753   1.000000
   13        8.918600   1.000000
   14        8.940793   1.000000
   15        9.232128   1.000000
   16        9.244645   1.000000
   17        9.321613   1.000000
   18        9.495002   1.000000
   19        9.697213   1.000000
   20        9.886319   1.000000
   21        9.887253   1.000000
   22       11.429821   0.998664
   23       12.956411   0.000000
   24       13.538156   0.000000
   25       17.994842   0.000000
   26       18.560116   0.000000
   27       19.906341   0.000000
 
 -0.6666667E-01  0.6666667E-01 -0.4135903E-24  0.5925926E-03
    1        0.526338   1.000000
    2        3.384726   1.000000
    3        3.384727   1.000000
    4        3.399431   1.000000
    5        3.758315   1.000000
    6        3.758315   1.000000
    7        3.772889   1.000000
    8        6.155977   1.000000
    9        6.244860   1.000000
   10        6.260853   1.000000
   11        8.027144   1.000000
   12        8.079232   1.000000
   13        9.397558   1.000000
   14        9.405134   1.000000
   15        9.405134   1.000000
   16        9.466157   1.000000
   17        9.611507   1.000000
   18        9.611508   1.000000
   19        9.886293   1.000000
   20        9.886293   1.000000
   21        9.910214   1.000000
   22       12.249477   0.000000
   23       12.249478   0.000000
   24       12.882434   0.000000
   25       18.247535   0.000000
   26       18.795111   0.000000
   27       18.795114   0.000000
 
  0.1058622E-25  0.1333333E+00 -0.2481542E-23  0.5925926E-03
    1        0.641722   1.000000
    2        3.407396   1.000000
    3        3.481709   1.000000
    4        3.481710   1.000000
    5        3.790849   1.000000
    6        3.839737   1.000000
    7        3.839737   1.000000
    8        6.071965   1.000000
    9        6.318252   1.000000
   10        6.318253   1.000000
   11        7.929345   1.000000
   12        8.131284   1.000000
   13        9.053059   1.000000
   14        9.053060   1.000000
   15        9.290090   1.000000
   16        9.290090   1.000000
   17        9.435298   1.000000
   18        9.697462   1.000000
   19        9.697463   1.000000
   20        9.952933   1.000000
   21        9.952935   1.000000
   22       11.050681   1.000000
   23       13.323321   0.000000
   24       13.323323   0.000000
   25       18.116131   0.000000
   26       18.116133   0.000000
   27       20.028055   0.000000
 
  0.6666667E-01  0.1333333E+00 -0.2067952E-23  0.5925926E-03
    1        0.698164   1.000000
    2        3.449133   1.000000
    3        3.505273   1.000000
    4        3.509853   1.000000
    5        3.824364   1.000000
    6        3.861089   1.000000
    7        3.882634   1.000000
    8        6.066710   1.000000
    9        6.319882   1.000000
   10        6.339877   1.000000
   11        7.931180   1.000000
   12        8.114753   1.000000
   13        8.918600   1.000000
   14        8.940794   1.000000
   15        9.232128   1.000000
   16        9.244645   1.000000
   17        9.321613   1.000000
   18        9.495002   1.000000
   19        9.697213   1.000000
   20        9.886319   1.000000
   21        9.887253   1.000000
   22       11.429822   0.998664
   23       12.956409   0.000000
   24       13.538156   0.000000
   25       17.994842   0.000000
   26       18.560114   0.000000
   27       19.906344   0.000000
 
  0.1333333E+00  0.1333333E+00 -0.2481542E-23  0.5925926E-03
    1        0.866084   1.000000
    2        3.571784   1.000000
    3        3.571785   1.000000
    4        3.595099   1.000000
    5        3.924610   1.000000
    6        3.924611   1.000000
    7        4.007891   1.000000
    8        6.018774   1.000000
    9        6.359228   1.000000
   10        6.403545   1.000000
   11        7.894741   1.000000
   12        8.110494   1.000000
   13        8.599556   1.000000
   14        8.617000   1.000000
   15        8.617001   1.000000
   16        9.110017   1.000000
   17        9.319276   1.000000
   18        9.319277   1.000000
   19        9.696384   1.000000
   20        9.696384   1.000000
   21        9.785315   1.000000
   22       12.139861   0.000000
   23       12.139862   0.000000
   24       14.090984   0.000000
   25       17.674884   0.000000
   26       19.602094   0.000000
   27       19.602096   0.000000
 
  0.2000000E+00  0.1333333E+00 -0.2067952E-23  0.5925926E-03
    1        1.140705   1.000000
    2        3.667484   1.000000
    3        3.738280   1.000000
    4        3.767233   1.000000
    5        4.028761   1.000000
    6        4.091006   1.000000
    7        4.205304   1.000000
    8        5.897388   1.000000
    9        6.473100   1.000000
   10        6.504603   1.000000
   11        7.771313   1.000000
   12        7.942621   1.000000
   13        8.093224   1.000000
   14        8.178859   1.000000
   15        8.205797   1.000000
   16        8.893242   1.000000
   17        9.088163   1.000000
   18        9.238730   1.000000
   19        9.408453   1.000000
   20        9.694986   1.000000
   21        9.726200   1.000000
   22       11.237758   1.000000
   23       12.907267   0.000000
   24       14.835655   0.000000
   25       17.254783   0.000000
   26       19.237786   0.000000
   27       20.536812   0.000000
 
  0.2666667E+00  0.1333333E+00 -0.1137373E-23  0.5925926E-03
    1        1.513249   1.000000
    2        3.763820   1.000000
    3        3.937723   1.000000
    4        4.019773   1.000000
    5        4.170851   1.000000
    6        4.322634   1.000000
    7        4.458341   1.000000
    8        5.718447   1.000000
    9        6.628009   1.000000
   10        6.654256   1.000000
   11        7.290578   1.000000
   12        7.519623   1.000000
   13        7.608634   1.000000
   14        7.717966   1.000000
   15        8.299450   1.000000
   16        8.612683   1.000000
   17        8.793469   1.000000
   18        9.054427   1.000000
   19        9.071359   1.000000
   20        9.693069   1.000000
   21        9.699244   1.000000
   22       10.435878   1.000000
   23       13.657120   0.000000
   24       15.679286   0.000000
   25       16.824911   0.000000
   26       18.922050   0.000000
   27       20.202877   0.000000
 
  0.3333333E+00  0.1333333E+00 -0.1550964E-23  0.5925926E-03
    1        1.968088   1.000000
    2        3.808337   1.000000
    3        4.185897   1.000000
    4        4.301469   1.000000
    5        4.346978   1.000000
    6        4.618074   1.000000
    7        4.742505   1.000000
    8        5.502330   1.000000
    9        6.683734   1.000000
   10        6.726699   1.000000
   11        6.891974   1.000000
   12        6.938636   1.000000
   13        7.220190   1.000000
   14        7.489769   1.000000
   15        8.305786   1.000000
   16        8.455812   1.000000
   17        8.464617   1.000000
   18        8.664885   1.000000
   19        8.805423   1.000000
   20        9.687880   1.000000
   21        9.690740   1.000000
   22        9.821842   1.000000
   23       14.342633   0.000000
   24       16.433869   0.000000
   25       16.570479   0.000000
   26       18.731052   0.000000
   27       19.859563   0.000000
 
  0.4000000E+00  0.1333333E+00 -0.2274747E-23  0.5925926E-03
    1        2.478142   1.000000
    2        3.721659   1.000000
    3        4.458735   1.000000
    4        4.551911   1.000000
    5        4.562880   1.000000
    6        4.975162   1.000000
    7        5.027960   1.000000
    8        5.264992   1.000000
    9        6.137416   1.000000
   10        6.380537   1.000000
   11        6.717214   1.000000
   12        6.825819   1.000000
   13        7.179335   1.000000
   14        7.535507   1.000000
   15        8.036351   1.000000
   16        8.153446   1.000000
   17        8.265289   1.000000
   18        8.454723   1.000000
   19        8.641301   1.000000
   20        9.399713   1.000000
   21        9.684043   1.000000
   22        9.688150   1.000000
   23       14.924804   0.000000
   24       16.087480   0.000000
   25       17.476288   0.000000
   26       18.709512   0.000000
   27       19.499853   0.000000
 
  0.4666667E+00  0.1333333E+00 -0.2895132E-23  0.5925926E-03
    1        2.995570   1.000000
    2        3.441050   1.000000
    3        4.681183   1.000000
    4        4.721559   1.000000
    5        4.778982   1.000000
    6        5.019960   1.000000
    7        5.313681   1.000000
    8        5.391025   1.000000
    9        5.672186   1.000000
   10        5.861501   1.000000
   11        6.635043   1.000000
   12        6.636944   1.000000
   13        7.509805   1.000000
   14        7.759956   1.000000
   15        7.875414   1.000000
   16        7.891078   1.000000
   17        7.935985   1.000000
   18        8.084999   1.000000
   19        8.853606   1.000000
   20        9.098057   1.000000
   21        9.683933   1.000000
   22        9.685670   1.000000
   23       15.387547   0.000000
   24       15.756512   0.000000
   25       18.370553   0.000000
   26       18.862940   0.000000
   27       19.149844   0.000000
 
 -0.4666667E+00  0.1333333E+00  0.0000000E+00  0.5925926E-03
    1        2.995570   1.000000
    2        3.441050   1.000000
    3        4.681183   1.000000
    4        4.721559   1.000000
    5        4.778982   1.000000