       N       E                     dE             d eps       ncg     rms          rms(c)
DAV:   1     0.289966887350E+03    0.28997E+03   -0.23071E+04 92124   0.155E+03
DAV:   2    -0.766058162724E+01   -0.29763E+03   -0.29052E+03103491   0.346E+02
DAV:   3    -0.127676160127E+02   -0.51070E+01   -0.50817E+01102798   0.483E+01
DAV:   4    -0.127937916027E+02   -0.26176E-01   -0.26170E-01104922   0.353E+00
DAV:   5    -0.127940131632E+02   -0.22156E-03   -0.22156E-03107757   0.341E-01    0.274E+01
RMM:   6    -0.118658067328E+02    0.92821E+00   -0.19099E+00 91152   0.943E+00    0.166E+01
RMM:   7    -0.117559418567E+02    0.10986E+00   -0.56981E-01 91160   0.503E+00    0.430E+00
RMM:   8    -0.117375532282E+02    0.18389E-01   -0.52044E-02 91152   0.157E+00    0.627E-01
RMM:   9    -0.117374736057E+02    0.79622E-04   -0.14247E-04 91160   0.729E-02    0.618E-02
RMM:  10    -0.117374777461E+02   -0.41404E-05   -0.12405E-05 91152   0.298E-02    0.559E-02
RMM:  11    -0.117374820391E+02   -0.42930E-05   -0.17273E-06 49775   0.959E-03    0.127E-03
RMM:  12    -0.117374820418E+02   -0.26921E-08   -0.73228E-08 36962   0.187E-03
   1 F= -.11737482E+02 E0= -.11735478E+02  d E =-.117375E+02
