   8   8   0   0
  0.5704469E+01  0.3573645E-09  0.3573645E-09  0.3573645E-09  0.5000000E-15
  1.000000000000000E-004
  CAR 
 unknown system                          
     24.42759435    -12.17518454  301     11.01420100      1.00000000
    -12.175  0.0000E+00  0.0000E+00
    -12.053  0.0000E+00  0.0000E+00
    -11.931  0.0000E+00  0.0000E+00
    -11.809  0.0000E+00  0.0000E+00
    -11.687  0.0000E+00  0.0000E+00
    -11.565  0.0000E+00  0.0000E+00
    -11.443  0.0000E+00  0.0000E+00
    -11.321  0.0000E+00  0.0000E+00
    -11.199  0.0000E+00  0.0000E+00
    -11.077  0.0000E+00  0.0000E+00
    -10.955  0.0000E+00  0.0000E+00
    -10.833  0.0000E+00  0.0000E+00
    -10.711  0.3593E-11  0.4383E-12
    -10.589  0.6472E-05  0.7896E-06
    -10.467  0.5335E-03  0.6588E-04
    -10.345  0.1731E-02  0.2771E-03
    -10.223  0.2192E-02  0.5445E-03
    -10.101  0.3275E-02  0.9441E-03
     -9.979  0.2350E-02  0.1231E-02
     -9.857  0.4443E-02  0.1773E-02
     -9.735  0.3437E-02  0.2192E-02
     -9.613  0.4032E-02  0.2684E-02
     -9.491  0.4993E-02  0.3293E-02
     -9.369  0.4949E-02  0.3897E-02
     -9.247  0.5389E-02  0.4555E-02
     -9.125  0.3873E-02  0.5027E-02
     -9.003  0.6869E-02  0.5865E-02
     -8.881  0.6392E-02  0.6645E-02
     -8.759  0.5381E-02  0.7302E-02
     -8.637  0.4836E-02  0.7892E-02
     -8.515  0.7551E-02  0.8813E-02
     -8.393  0.7984E-02  0.9787E-02
     -8.271  0.5924E-02  0.1051E-01
     -8.149  0.7557E-02  0.1143E-01
     -8.027  0.6372E-02  0.1221E-01
     -7.905  0.8514E-02  0.1325E-01
     -7.783  0.5859E-02  0.1396E-01
     -7.661  0.9629E-02  0.1514E-01
     -7.539  0.1018E-01  0.1638E-01
     -7.417  0.5589E-02  0.1706E-01
     -7.295  0.8024E-02  0.1804E-01
     -7.173  0.7643E-02  0.1897E-01
     -7.051  0.1210E-01  0.2045E-01
     -6.929  0.8918E-02  0.2154E-01
     -6.807  0.9303E-02  0.2267E-01
     -6.685  0.7618E-02  0.2360E-01
     -6.563  0.1077E-01  0.2492E-01
     -6.441  0.8644E-02  0.2597E-01
     -6.319  0.1080E-01  0.2729E-01
     -6.197  0.1012E-01  0.2852E-01
     -6.075  0.1130E-01  0.2990E-01
     -5.953  0.1032E-01  0.3116E-01
     -5.831  0.1235E-01  0.3267E-01
     -5.709  0.1197E-01  0.3413E-01
     -5.587  0.6797E-02  0.3496E-01
     -5.465  0.1099E-01  0.3630E-01
     -5.343  0.1620E-01  0.3828E-01
     -5.221  0.1314E-01  0.3988E-01
     -5.099  0.1212E-01  0.4136E-01
     -4.977  0.1405E-01  0.4307E-01
     -4.855  0.1185E-01  0.4452E-01
     -4.733  0.1382E-01  0.4621E-01
     -4.611  0.1665E-01  0.4824E-01
     -4.489  0.1504E-01  0.5007E-01
     -4.367  0.1413E-01  0.5180E-01
     -4.245  0.1436E-01  0.5355E-01
     -4.123  0.1433E-01  0.5530E-01
     -4.001  0.1726E-01  0.5740E-01
     -3.879  0.1123E-01  0.5877E-01
     -3.757  0.1120E-01  0.6014E-01
     -3.635  0.1033E-01  0.6140E-01
     -3.513  0.9849E-02  0.6260E-01
     -3.391  0.1709E-01  0.6469E-01
     -3.269  0.1352E-01  0.6633E-01
     -3.146  0.6635E-02  0.6714E-01
     -3.024  0.1163E-01  0.6856E-01
     -2.902  0.1149E-01  0.6997E-01
     -2.780  0.1118E-01  0.7133E-01
     -2.658  0.8721E-02  0.7239E-01
     -2.536  0.6024E-02  0.7313E-01
     -2.414  0.6761E-02  0.7395E-01
     -2.292  0.1088E-01  0.7528E-01
     -2.170  0.1304E-01  0.7687E-01
     -2.048  0.1291E-01  0.7845E-01
     -1.926  0.1386E-01  0.8014E-01
     -1.804  0.1120E-01  0.8151E-01
     -1.682  0.6475E-02  0.8230E-01
     -1.560  0.8456E-02  0.8333E-01
     -1.438  0.1095E-01  0.8466E-01
     -1.316  0.8161E-02  0.8566E-01
     -1.194  0.1047E-01  0.8694E-01
     -1.072  0.1895E-01  0.8925E-01
     -0.950  0.1609E-01  0.9121E-01
     -0.828  0.1839E-01  0.9346E-01
     -0.706  0.2397E-01  0.9638E-01
     -0.584  0.2163E-01  0.9902E-01
     -0.462  0.2220E-01  0.1017E+00
     -0.340  0.1308E-01  0.1033E+00
     -0.218  0.2262E-01  0.1061E+00
     -0.096  0.2317E-01  0.1089E+00
      0.026  0.2445E-01  0.1119E+00
      0.148  0.1569E-01  0.1138E+00
      0.270  0.1319E-01  0.1154E+00
      0.392  0.8452E-02  0.1164E+00
      0.514  0.1234E-01  0.1180E+00
      0.636  0.1380E-01  0.1196E+00
      0.758  0.1043E-01  0.1209E+00
      0.880  0.1208E-01  0.1224E+00
      1.002  0.1521E-01  0.1242E+00
      1.124  0.1491E-01  0.1261E+00
      1.246  0.7869E-02  0.1270E+00
      1.368  0.8904E-02  0.1281E+00
      1.490  0.1364E-01  0.1298E+00
      1.612  0.9993E-02  0.1310E+00
      1.734  0.1233E-01  0.1325E+00
      1.856  0.1414E-01  0.1342E+00
      1.978  0.1736E-01  0.1363E+00
      2.100  0.2147E-01  0.1390E+00
      2.222  0.1792E-01  0.1411E+00
      2.344  0.2393E-01  0.1441E+00
      2.466  0.2049E-01  0.1466E+00
      2.588  0.2595E-01  0.1497E+00
      2.710  0.1687E-01  0.1518E+00
      2.832  0.1638E-01  0.1538E+00
      2.954  0.1383E-01  0.1555E+00
      3.076  0.2342E-01  0.1583E+00
      3.198  0.3045E-01  0.1620E+00
      3.320  0.2624E-01  0.1652E+00
      3.442  0.1211E-01  0.1667E+00
      3.564  0.1850E-01  0.1690E+00
      3.686  0.2290E-01  0.1718E+00
      3.808  0.2547E-01  0.1749E+00
      3.930  0.2612E-01  0.1781E+00
      4.052  0.2399E-01  0.1810E+00
      4.174  0.2146E-01  0.1836E+00
      4.296  0.2074E-01  0.1861E+00
      4.418  0.3080E-01  0.1899E+00
      4.540  0.3468E-01  0.1941E+00
      4.662  0.3059E-01  0.1979E+00
      4.784  0.2794E-01  0.2013E+00
      4.906  0.2925E-01  0.2048E+00
      5.028  0.2824E-01  0.2083E+00
      5.150  0.2984E-01  0.2119E+00
      5.272  0.4352E-01  0.2172E+00
      5.394  0.3608E-01  0.2216E+00
      5.516  0.1951E-01  0.2240E+00
      5.638  0.2079E-01  0.2266E+00
      5.760  0.3228E-01  0.2305E+00
      5.882  0.3639E-01  0.2349E+00
      6.004  0.3519E-01  0.2392E+00
      6.126  0.2173E-01  0.2419E+00
      6.248  0.2607E-01  0.2451E+00
      6.370  0.3165E-01  0.2489E+00
      6.492  0.2627E-01  0.2521E+00
      6.614  0.2871E-01  0.2556E+00
      6.736  0.3025E-01  0.2593E+00
      6.858  0.2439E-01  0.2623E+00
      6.980  0.2185E-01  0.2650E+00
      7.102  0.3412E-01  0.2691E+00
      7.224  0.3031E-01  0.2728E+00
      7.346  0.2251E-01  0.2756E+00
      7.468  0.2308E-01  0.2784E+00
      7.590  0.2427E-01  0.2814E+00
      7.712  0.2381E-01  0.2843E+00
      7.834  0.3816E-01  0.2889E+00
      7.956  0.2374E-01  0.2918E+00
      8.078  0.1415E-01  0.2935E+00
      8.200  0.2047E-01  0.2960E+00
      8.322  0.2293E-01  0.2988E+00
      8.444  0.2062E-01  0.3013E+00
      8.566  0.1865E-01  0.3036E+00
      8.688  0.8603E-02  0.3047E+00
      8.810  0.8581E-02  0.3057E+00
      8.932  0.1635E-01  0.3077E+00
      9.054  0.1430E-01  0.3095E+00
      9.176  0.1258E-01  0.3110E+00
      9.298  0.6114E-02  0.3117E+00
      9.420  0.7412E-02  0.3126E+00
      9.542  0.8017E-02  0.3136E+00
      9.664  0.1163E-01  0.3150E+00
      9.786  0.7153E-02  0.3159E+00
      9.908  0.4250E-02  0.3164E+00
     10.031  0.6312E-02  0.3172E+00
     10.153  0.4974E-02  0.3178E+00
     10.275  0.5205E-02  0.3184E+00
     10.397  0.3210E-02  0.3188E+00
     10.519  0.5078E-02  0.3195E+00
     10.641  0.1118E-02  0.3196E+00
     10.763  0.2632E-02  0.3199E+00
     10.885  0.7264E-03  0.3200E+00
     11.007  0.3781E-05  0.3200E+00
     11.129  0.7358E-12  0.3200E+00
     11.251  0.0000E+00  0.3200E+00
     11.373  0.0000E+00  0.3200E+00
     11.495  0.0000E+00  0.3200E+00
     11.617  0.0000E+00  0.3200E+00
     11.739  0.0000E+00  0.3200E+00
     11.861  0.0000E+00  0.3200E+00
     11.983  0.0000E+00  0.3200E+00
     12.105  0.0000E+00  0.3200E+00
     12.227  0.0000E+00  0.3200E+00
     12.349  0.0000E+00  0.3200E+00
     12.471  0.0000E+00  0.3200E+00
     12.593  0.0000E+00  0.3200E+00
     12.715  0.0000E+00  0.3200E+00
     12.837  0.0000E+00  0.3200E+00
     12.959  0.0000E+00  0.3200E+00
     13.081  0.0000E+00  0.3200E+00
     13.203  0.0000E+00  0.3200E+00
     13.325  0.0000E+00  0.3200E+00
     13.447  0.0000E+00  0.3200E+00
     13.569  0.0000E+00  0.3200E+00
     13.691  0.0000E+00  0.3200E+00
     13.813  0.0000E+00  0.3200E+00
     13.935  0.0000E+00  0.3200E+00
     14.057  0.0000E+00  0.3200E+00
     14.179  0.0000E+00  0.3200E+00
     14.301  0.0000E+00  0.3200E+00
     14.423  0.0000E+00  0.3200E+00
     14.545  0.0000E+00  0.3200E+00
     14.667  0.0000E+00  0.3200E+00
     14.789  0.1612E-17  0.3200E+00
     14.911  0.5400E-08  0.3200E+00
     15.033  0.2896E-03  0.3200E+00
     15.155  0.4057E-02  0.3205E+00
     15.277  0.2467E-02  0.3208E+00
     15.399  0.2311E-02  0.3211E+00
     15.521  0.9556E-02  0.3223E+00
     15.643  0.8579E-02  0.3233E+00
     15.765  0.9321E-02  0.3245E+00
     15.887  0.6110E-02  0.3252E+00
     16.009  0.9933E-02  0.3264E+00
     16.131  0.9314E-02  0.3276E+00
     16.253  0.2038E-01  0.3300E+00
     16.375  0.1848E-01  0.3323E+00
     16.497  0.1412E-01  0.3340E+00
     16.619  0.1613E-01  0.3360E+00
     16.741  0.1552E-01  0.3379E+00
     16.863  0.1488E-01  0.3397E+00
     16.985  0.1963E-01  0.3421E+00
     17.107  0.2252E-01  0.3448E+00
     17.229  0.2503E-01  0.3479E+00
     17.351  0.2233E-01  0.3506E+00
     17.473  0.1986E-01  0.3530E+00
     17.595  0.1828E-01  0.3553E+00
     17.717  0.2687E-01  0.3586E+00
     17.839  0.2318E-01  0.3614E+00
     17.961  0.2570E-01  0.3645E+00
     18.083  0.2292E-01  0.3673E+00
     18.205  0.2185E-01  0.3700E+00
     18.327  0.3110E-01  0.3738E+00
     18.449  0.3363E-01  0.3779E+00
     18.571  0.3640E-01  0.3823E+00
     18.693  0.3573E-01  0.3867E+00
     18.815  0.3294E-01  0.3907E+00
     18.937  0.3157E-01  0.3945E+00
     19.059  0.3792E-01  0.3992E+00
     19.181  0.3959E-01  0.4040E+00
     19.303  0.3383E-01  0.4081E+00
     19.425  0.4188E-01  0.4132E+00
     19.547  0.5449E-01  0.4199E+00
     19.669  0.4905E-01  0.4259E+00
     19.791  0.2696E-01  0.4292E+00
     19.913  0.3582E-01  0.4335E+00
     20.035  0.2891E-01  0.4371E+00
     20.157  0.2247E-01  0.4398E+00
     20.279  0.2479E-01  0.4428E+00
     20.401  0.2526E-01  0.4459E+00
     20.523  0.3602E-01  0.4503E+00
     20.645  0.3326E-01  0.4544E+00
     20.767  0.2919E-01  0.4579E+00
     20.889  0.2733E-01  0.4613E+00
     21.011  0.2343E-01  0.4641E+00
     21.133  0.2304E-01  0.4669E+00
     21.255  0.1812E-01  0.4691E+00
     21.377  0.1290E-01  0.4707E+00
     21.499  0.1789E-01  0.4729E+00
     21.621  0.1641E-01  0.4749E+00
     21.743  0.1099E-01  0.4762E+00
     21.865  0.1580E-01  0.4782E+00
     21.987  0.4784E-02  0.4787E+00
     22.109  0.4822E-02  0.4793E+00
     22.231  0.2025E-02  0.4796E+00
     22.353  0.2327E-03  0.4796E+00
     22.475  0.5818E-03  0.4797E+00
     22.597  0.8746E-03  0.4798E+00
     22.719  0.8341E-03  0.4799E+00
     22.841  0.8801E-03  0.4800E+00
     22.963  0.1053E-04  0.4800E+00
     23.085  0.5871E-11  0.4800E+00
     23.208  0.0000E+00  0.4800E+00
     23.330  0.0000E+00  0.4800E+00
     23.452  0.0000E+00  0.4800E+00
     23.574  0.0000E+00  0.4800E+00
     23.696  0.0000E+00  0.4800E+00
     23.818  0.0000E+00  0.4800E+00
     23.940  0.0000E+00  0.4800E+00
     24.062  0.0000E+00  0.4800E+00
     24.184  0.0000E+00  0.4800E+00
     24.306  0.0000E+00  0.4800E+00
     24.428  0.0000E+00  0.4800E+00
