       N       E                     dE             d eps       ncg     rms          rms(c)
DAV:   1     0.100987345281E+03    0.10099E+03   -0.25844E+04 13440   0.199E+03
DAV:   2    -0.724973913304E+02   -0.17348E+03   -0.17037E+03 21816   0.225E+02
DAV:   3    -0.752579738659E+02   -0.27606E+01   -0.27606E+01 16344   0.402E+01
DAV:   4    -0.752748928213E+02   -0.16919E-01   -0.16919E-01 24360   0.241E+00
DAV:   5    -0.752748956314E+02   -0.28102E-05   -0.28101E-05 16056   0.362E-02    0.165E+01
DAV:   6    -0.734476329679E+02    0.18273E+01   -0.13774E+00 15768   0.626E+00    0.108E+01
DAV:   7    -0.728359369748E+02    0.61170E+00   -0.17887E+00 19632   0.720E+00    0.229E+00
DAV:   8    -0.728342833338E+02    0.16536E-02   -0.24262E-02 21720   0.118E+00    0.119E-01
DAV:   9    -0.728344647488E+02   -0.18142E-03   -0.45563E-04 19512   0.142E-01    0.619E-02
DAV:  10    -0.728345878453E+02   -0.12310E-03   -0.11691E-04 20904   0.857E-02    0.476E-03
DAV:  11    -0.728345889182E+02   -0.10729E-05   -0.16209E-06 20472   0.100E-02    0.281E-03
DAV:  12    -0.728345892762E+02   -0.35794E-06   -0.65447E-08 21120   0.232E-03    0.133E-04
DAV:  13    -0.728345892883E+02   -0.12084E-07   -0.44977E-10 20568   0.165E-04    0.709E-05
DAV:  14    -0.728345892904E+02   -0.21118E-08   -0.14499E-10 19200   0.968E-05
   1 F= -.72834589E+02 E0= -.72834589E+02  d E =-.728346E+02
       N       E                     dE             d eps       ncg     rms          rms(c)
DAV:   1    -0.728344179878E+02    0.17130E-03   -0.45784E-02 17016   0.173E+00    0.420E-02
DAV:   2    -0.728344341580E+02   -0.16170E-04   -0.26906E-04 22944   0.120E-01    0.211E-02
DAV:   3    -0.728344301529E+02    0.40051E-05   -0.11021E-05 18288   0.221E-02    0.451E-03
DAV:   4    -0.728344302766E+02   -0.12377E-06   -0.10514E-06 21864   0.721E-03    0.162E-03
DAV:   5    -0.728344302821E+02   -0.54733E-08   -0.96491E-08 18912   0.217E-03
   2 F= -.72834430E+02 E0= -.72834430E+02  d E =0.159008E-03
       N       E                     dE             d eps       ncg     rms          rms(c)
DAV:   1    -0.728346149269E+02   -0.18465E-03   -0.23035E-02 16920   0.123E+00    0.299E-02
DAV:   2    -0.728346233813E+02   -0.84544E-05   -0.13737E-04 22944   0.859E-02    0.150E-02
DAV:   3    -0.728346214217E+02    0.19596E-05   -0.53683E-06 18000   0.154E-02    0.337E-03
DAV:   4    -0.728346214900E+02   -0.68290E-07   -0.55867E-07 21768   0.523E-03    0.114E-03
DAV:   5    -0.728346214807E+02    0.92841E-08   -0.52022E-08 18360   0.160E-03
   3 F= -.72834621E+02 E0= -.72834621E+02  d E =-.321903E-04
