 vasp.5.4.4.18Apr17-6-g9f103f2a35 (build Jan 14 2019 14:48:31) complex          
  
 executed on             LinuxIFC date 2019.08.26  21:07:08
 running on   24 total cores
 distrk:  each k-point on   24 cores,    1 groups
 distr:  one band on NCORES_PER_BAND=   1 cores,   24 groups


--------------------------------------------------------------------------------------------------------


 INCAR:
 POTCAR:    PAW_PBE C_h 06Feb2004                 

 ----------------------------------------------------------------------------- 
|                                                                             |
|           W    W    AA    RRRRR   N    N  II  N    N   GGGG   !!!           |
|           W    W   A  A   R    R  NN   N  II  NN   N  G    G  !!!           |
|           W    W  A    A  R    R  N N  N  II  N N  N  G       !!!           |
|           W WW W  AAAAAA  RRRRR   N  N N  II  N  N N  G  GGG   !            |
|           WW  WW  A    A  R   R   N   NN  II  N   NN  G    G                |
|           W    W  A    A  R    R  N    N  II  N    N   GGGG   !!!           |
|                                                                             |
|      For optimal performance we recommend to set                            |
|        NCORE= 4 - approx SQRT( number of cores)                             |
|      NCORE specifies how many cores store one orbital (NPAR=cpu/NCORE).     |
|      This setting can  greatly improve the performance of VASP for DFT.     |
|      The default,   NCORE=1            might be grossly inefficient         |
|      on modern multi-core architectures or massively parallel machines.     |
|      Do your own testing !!!!                                               |
|      Unfortunately you need to use the default for GW and RPA calculations. |
|      (for HF NCORE is supported but not extensively tested yet)             |
|                                                                             |
 ----------------------------------------------------------------------------- 

 POTCAR:    PAW_PBE C_h 06Feb2004                 
   VRHFIN =C: s2p2                                                              
   LEXCH  = PE                                                                  
   EATOM  =   147.1560 eV,   10.8157 Ry                                         
                                                                                
   TITEL  = PAW_PBE C_h 06Feb2004                                               
   LULTRA =        F    use ultrasoft PP ?                                      
   IUNSCR =        1    unscreen: 0-lin 1-nonlin 2-no                           
   RPACOR =    0.800    partial core radius                                     
   POMASS =   12.011; ZVAL   =    4.000    mass and valenz                      
   RCORE  =    1.100    outmost cutoff radius                                   
   RWIGS  =    1.630; RWIGS  =    0.863    wigner-seitz radius (au A)           
   ENMAX  =  700.000; ENMIN  =  500.000 eV                                      
   ICORE  =        2    local potential                                         
   LCOR   =        T    correct aug charges                                     
   LPAW   =        T    paw PP                                                  
   EAUG   =  946.768                                                            
   DEXC   =    0.000                                                            
   RMAX   =    1.128    core radius for proj-oper                               
   RAUG   =    1.300    factor for augmentation sphere                          
   RDEP   =    1.162    radius for radial grids                                 
   RDEPT  =    1.088    core radius for aug-charge                              
                                                                                
   Atomic configuration                                                         
    4 entries                                                                   
     n  l   j            E        occ.                                          
     1  0  0.50      -273.3789   2.0000                                         
     2  0  0.50       -13.7508   2.0000                                         
     2  1  0.50        -5.2854   2.0000                                         
     3  2  1.50        -5.4423   0.0000                                         
   Description                                                                  
     l       E           TYP  RCUT    TYP  RCUT                                 
     0    -13.7508458     23  1.100                                             
     0     -8.2022199     23  1.100                                             
     1     -5.2854383     23  1.100                                             
     1      1.1560700     23  1.100                                             
     2     -5.4423304      7  1.100                                             
  local pseudopotential read in
  partial core-charges read in
  partial kinetic energy density read in
  atomic valenz-charges read in
  non local Contribution for L=           0  read in
    real space projection operators read in
  non local Contribution for L=           0  read in
    real space projection operators read in
  non local Contribution for L=           1  read in
    real space projection operators read in
  non local Contribution for L=           1  read in
    real space projection operators read in
    PAW grid and wavefunctions read in
 
   number of l-projection  operators is LMAX  =           4
   number of lm-projection operators is LMMAX =           8
 
  PAW_PBE C_h 06Feb2004                 :
 energy of atom  1       EATOM= -147.1560
 kinetic energy error for atom=    0.0044 (will be added to EATOM!!)
 
 
 POSCAR: C8                                      
  positions in direct lattice
  velocities in cartesian coordinates
 exchange correlation table for  LEXCH =        8
   RHO(1)=    0.500       N(1)  =     2000
   RHO(2)=  100.500       N(2)  =     4000

 VTST: version 3.1, (03/28/14)

 CHAIN: initializing optimizer
 
 OPT: Using VASP Conjugate-Gradient optimizer
 CHAIN: Read ICHAIN            0
 
 POSCAR: C8                                      
  positions in direct lattice
  velocities in cartesian coordinates
 


--------------------------------------------------------------------------------------------------------


 ion  position               nearest neighbor table
   1  0.250  0.250  0.250-   4 1.54   6 1.54   8 1.54   2 1.56
   2  0.000  0.000  0.000-   3 1.54   5 1.54   7 1.54   1 1.56
   3  0.250  0.750  0.750-   2 1.54   8 1.54   6 1.54   4 1.56
   4  0.000  0.500  0.500-   1 1.54   7 1.54   5 1.54   3 1.56
   5  0.750  0.250  0.750-   2 1.54   8 1.54   4 1.54   6 1.56
   6  0.500  0.000  0.500-   1 1.54   7 1.54   3 1.54   5 1.56
   7  0.750  0.750  0.250-   4 1.54   6 1.54   2 1.54   8 1.56
   8  0.500  0.500  0.000-   3 1.54   5 1.54   1 1.54   7 1.56
 
  LATTYP: Found a trigonal (rhomboedric) cell.
 ALAT       =     3.5736447775
 COS(alpha) =     0.0066776294
  
  Lattice vectors:
  
 A1 = (   3.5736050710,   0.0119120169,   0.0119120169)
 A2 = (   0.0119120169,   3.5736050710,   0.0119120169)
 A3 = (   0.0119120169,   0.0119120169,   3.5736050710)


Analysis of symmetry for initial positions (statically):
=====================================================================
 Subroutine PRICEL returns following result:
 
  LATTYP: Found a trigonal (rhomboedric) cell.
 ALAT       =     2.5353714304
 COS(alpha) =     0.5066333344
  
  Lattice vectors:
  
 A1 = (  -0.0119120169,  -1.7927585439,  -1.7927585439)
 A2 = (  -1.7927585439,  -1.7927585439,  -0.0119120169)
 A3 = (  -1.7927585439,  -0.0119120169,  -1.7927585439)
 
   4 primitive cells build up your supercell.
 

 Routine SETGRP: Setting up the symmetry group for a 
 trigonal (rhombohedral) supercell.


 Subroutine GETGRP returns: Found 12 space group operations
 (whereof  6 operations were pure point group operations)
 out of a pool of 12 trial point group operations.


The static configuration has the point symmetry C_3v.
 The point group associated with its full space group is D_3d.


Analysis of symmetry for dynamics (positions and initial velocities):
=====================================================================
 Subroutine PRICEL returns following result:
 
  LATTYP: Found a trigonal (rhomboedric) cell.
 ALAT       =     2.5353714304
 COS(alpha) =     0.5066333344
  
  Lattice vectors:
  
 A1 = (  -0.0119120169,  -1.7927585439,  -1.7927585439)
 A2 = (  -1.7927585439,  -1.7927585439,  -0.0119120169)
 A3 = (  -1.7927585439,  -0.0119120169,  -1.7927585439)
 
   4 primitive cells build up your supercell.
 

 Routine SETGRP: Setting up the symmetry group for a 
 trigonal (rhombohedral) supercell.


 Subroutine GETGRP returns: Found 12 space group operations
 (whereof  6 operations were pure point group operations)
 out of a pool of 12 trial point group operations.


The dynamic configuration has the point symmetry C_3v.
 The point group associated with its full space group is D_3d.


 Subroutine INISYM returns: Found 12 space group operations
 (whereof  6 operations are pure point group operations),
 and found     4 'primitive' translations

 
 
 KPOINTS: K-Mesh Generated with KP-Resolved Value 

Automatic generation of k-mesh.
Space group operators:
 irot       det(A)        alpha          n_x          n_y          n_z        tau_x        tau_y        tau_z
    1     1.000000     0.000000     1.000000     0.000000     0.000000     0.000000     0.000000     0.000000
    2    -1.000000   180.000000    -0.000000     0.707107    -0.707107     0.000000     0.000000     0.000000
    3     1.000000   120.000000    -0.577350    -0.577350    -0.577350     0.000000     0.000000     0.000000
    4    -1.000000   180.000000     0.707107    -0.707107     0.000000     0.000000     0.000000     0.000000
    5     1.000000   120.000000     0.577350     0.577350     0.577350     0.000000     0.000000     0.000000
    6    -1.000000   180.000000     0.707107     0.000000    -0.707107     0.000000     0.000000     0.000000
    7    -1.000000     0.000000     1.000000     0.000000     0.000000    -0.750000    -0.750000    -0.750000
    8     1.000000   180.000000    -0.000000     0.707107    -0.707107    -0.750000    -0.750000    -0.750000
    9    -1.000000   120.000000    -0.577350    -0.577350    -0.577350    -0.750000    -0.750000    -0.750000
   10     1.000000   180.000000     0.707107    -0.707107     0.000000    -0.750000    -0.750000    -0.750000
   11    -1.000000   120.000000     0.577350     0.577350     0.577350    -0.750000    -0.750000    -0.750000
   12     1.000000   180.000000     0.707107     0.000000    -0.707107    -0.750000    -0.750000    -0.750000
 
 Subroutine IBZKPT returns following result:
 ===========================================
 
 Found    280 irreducible k-points:
 
 Following reciprocal coordinates:
            Coordinates               Weight
  0.035714  0.035714  0.035714      2.000000
  0.107143  0.035714  0.035714      6.000000
  0.178571  0.035714  0.035714      6.000000
  0.250000  0.035714  0.035714      6.000000
  0.321429  0.035714  0.035714      6.000000
  0.392857  0.035714  0.035714      6.000000
  0.464286  0.035714  0.035714      6.000000
 -0.464286  0.035714  0.035714      6.000000
 -0.392857  0.035714  0.035714      6.000000
 -0.321429  0.035714  0.035714      6.000000
 -0.250000  0.035714  0.035714      6.000000
 -0.178571  0.035714  0.035714      6.000000
 -0.107143  0.035714  0.035714      6.000000
 -0.035714  0.035714  0.035714      6.000000
  0.107143  0.107143  0.035714      6.000000
  0.178571  0.107143  0.035714     12.000000
  0.250000  0.107143  0.035714     12.000000
  0.321429  0.107143  0.035714     12.000000
  0.392857  0.107143  0.035714     12.000000
  0.464286  0.107143  0.035714     12.000000
 -0.464286  0.107143  0.035714     12.000000
 -0.392857  0.107143  0.035714     12.000000
 -0.321429  0.107143  0.035714     12.000000
 -0.250000  0.107143  0.035714     12.000000
 -0.178571  0.107143  0.035714     12.000000
 -0.107143  0.107143  0.035714     12.000000
 -0.035714  0.107143  0.035714     12.000000
  0.178571  0.178571  0.035714      6.000000
  0.250000  0.178571  0.035714     12.000000
  0.321429  0.178571  0.035714     12.000000
  0.392857  0.178571  0.035714     12.000000
  0.464286  0.178571  0.035714     12.000000
 -0.464286  0.178571  0.035714     12.000000
 -0.392857  0.178571  0.035714     12.000000
 -0.321429  0.178571  0.035714     12.000000
 -0.250000  0.178571  0.035714     12.000000
 -0.178571  0.178571  0.035714     12.000000
 -0.107143  0.178571  0.035714     12.000000
 -0.035714  0.178571  0.035714     12.000000
  0.250000  0.250000  0.035714      6.000000
  0.321429  0.250000  0.035714     12.000000
  0.392857  0.250000  0.035714     12.000000
  0.464286  0.250000  0.035714     12.000000
 -0.464286  0.250000  0.035714     12.000000
 -0.392857  0.250000  0.035714     12.000000
 -0.321429  0.250000  0.035714     12.000000
 -0.250000  0.250000  0.035714     12.000000
 -0.178571  0.250000  0.035714     12.000000
 -0.107143  0.250000  0.035714     12.000000
 -0.035714  0.250000  0.035714     12.000000
  0.321429  0.321429  0.035714      6.000000
  0.392857  0.321429  0.035714     12.000000
  0.464286  0.321429  0.035714     12.000000
 -0.464286  0.321429  0.035714     12.000000
 -0.392857  0.321429  0.035714     12.000000
 -0.321429  0.321429  0.035714     12.000000
 -0.250000  0.321429  0.035714     12.000000
 -0.178571  0.321429  0.035714     12.000000
 -0.107143  0.321429  0.035714     12.000000
 -0.035714  0.321429  0.035714     12.000000
  0.392857  0.392857  0.035714      6.000000
  0.464286  0.392857  0.035714     12.000000
 -0.464286  0.392857  0.035714     12.000000
 -0.392857  0.392857  0.035714     12.000000
 -0.321429  0.392857  0.035714     12.000000
 -0.250000  0.392857  0.035714     12.000000
 -0.178571  0.392857  0.035714     12.000000
 -0.107143  0.392857  0.035714     12.000000
 -0.035714  0.392857  0.035714     12.000000
  0.464286  0.464286  0.035714      6.000000
 -0.464286  0.464286  0.035714     12.000000
 -0.392857  0.464286  0.035714     12.000000
 -0.321429  0.464286  0.035714     12.000000
 -0.250000  0.464286  0.035714     12.000000
 -0.178571  0.464286  0.035714     12.000000
 -0.107143  0.464286  0.035714     12.000000
 -0.035714  0.464286  0.035714     12.000000
 -0.464286 -0.464286  0.035714      6.000000
 -0.392857 -0.464286  0.035714     12.000000
 -0.321429 -0.464286  0.035714     12.000000
 -0.250000 -0.464286  0.035714     12.000000
 -0.178571 -0.464286  0.035714     12.000000
 -0.107143 -0.464286  0.035714     12.000000
 -0.392857 -0.392857  0.035714      6.000000
 -0.321429 -0.392857  0.035714     12.000000
 -0.250000 -0.392857  0.035714     12.000000
 -0.178571 -0.392857  0.035714     12.000000
 -0.107143 -0.392857  0.035714     12.000000
 -0.321429 -0.321429  0.035714      6.000000
 -0.250000 -0.321429  0.035714     12.000000
 -0.178571 -0.321429  0.035714     12.000000
 -0.107143 -0.321429  0.035714     12.000000
 -0.250000 -0.250000  0.035714      6.000000
 -0.178571 -0.250000  0.035714     12.000000
 -0.107143 -0.250000  0.035714     12.000000
 -0.178571 -0.178571  0.035714      6.000000
 -0.107143 -0.178571  0.035714     12.000000
 -0.107143 -0.107143  0.035714      6.000000
  0.107143  0.107143  0.107143      2.000000
  0.178571  0.107143  0.107143      6.000000
  0.250000  0.107143  0.107143      6.000000
  0.321429  0.107143  0.107143      6.000000
  0.392857  0.107143  0.107143      6.000000
  0.464286  0.107143  0.107143      6.000000
 -0.464286  0.107143  0.107143      6.000000
 -0.392857  0.107143  0.107143      6.000000
 -0.321429  0.107143  0.107143      6.000000
 -0.250000  0.107143  0.107143      6.000000
 -0.178571  0.107143  0.107143      6.000000
 -0.107143  0.107143  0.107143      6.000000
  0.178571  0.178571  0.107143      6.000000
  0.250000  0.178571  0.107143     12.000000
  0.321429  0.178571  0.107143     12.000000
  0.392857  0.178571  0.107143     12.000000
  0.464286  0.178571  0.107143     12.000000
 -0.464286  0.178571  0.107143     12.000000
 -0.392857  0.178571  0.107143     12.000000
 -0.321429  0.178571  0.107143     12.000000
 -0.250000  0.178571  0.107143     12.000000
 -0.178571  0.178571  0.107143     12.000000
 -0.107143  0.178571  0.107143     12.000000
  0.250000  0.250000  0.107143      6.000000
  0.321429  0.250000  0.107143     12.000000
  0.392857  0.250000  0.107143     12.000000
  0.464286  0.250000  0.107143     12.000000
 -0.464286  0.250000  0.107143     12.000000
 -0.392857  0.250000  0.107143     12.000000
 -0.321429  0.250000  0.107143     12.000000
 -0.250000  0.250000  0.107143     12.000000
 -0.178571  0.250000  0.107143     12.000000
 -0.107143  0.250000  0.107143     12.000000
  0.321429  0.321429  0.107143      6.000000
  0.392857  0.321429  0.107143     12.000000
  0.464286  0.321429  0.107143     12.000000
 -0.464286  0.321429  0.107143     12.000000
 -0.392857  0.321429  0.107143     12.000000
 -0.321429  0.321429  0.107143     12.000000
 -0.250000  0.321429  0.107143     12.000000
 -0.178571  0.321429  0.107143     12.000000
 -0.107143  0.321429  0.107143     12.000000
  0.392857  0.392857  0.107143      6.000000
  0.464286  0.392857  0.107143     12.000000
 -0.464286  0.392857  0.107143     12.000000
 -0.392857  0.392857  0.107143     12.000000
 -0.321429  0.392857  0.107143     12.000000
 -0.250000  0.392857  0.107143     12.000000
 -0.178571  0.392857  0.107143     12.000000
 -0.107143  0.392857  0.107143     12.000000
  0.464286  0.464286  0.107143      6.000000
 -0.464286  0.464286  0.107143     12.000000
 -0.392857  0.464286  0.107143     12.000000
 -0.321429  0.464286  0.107143     12.000000
 -0.250000  0.464286  0.107143     12.000000
 -0.178571  0.464286  0.107143     12.000000
 -0.107143  0.464286  0.107143     12.000000
 -0.464286 -0.464286  0.107143      6.000000
 -0.392857 -0.464286  0.107143     12.000000
 -0.321429 -0.464286  0.107143     12.000000
 -0.250000 -0.464286  0.107143     12.000000
 -0.178571 -0.464286  0.107143     12.000000
 -0.392857 -0.392857  0.107143      6.000000
 -0.321429 -0.392857  0.107143     12.000000
 -0.250000 -0.392857  0.107143     12.000000
 -0.178571 -0.392857  0.107143     12.000000
 -0.321429 -0.321429  0.107143      6.000000
 -0.250000 -0.321429  0.107143     12.000000
 -0.178571 -0.321429  0.107143     12.000000
 -0.250000 -0.250000  0.107143      6.000000
 -0.178571 -0.250000  0.107143     12.000000
 -0.178571 -0.178571  0.107143      6.000000
  0.178571  0.178571  0.178571      2.000000
  0.250000  0.178571  0.178571      6.000000
  0.321429  0.178571  0.178571      6.000000
  0.392857  0.178571  0.178571      6.000000
  0.464286  0.178571  0.178571      6.000000
 -0.464286  0.178571  0.178571      6.000000
 -0.392857  0.178571  0.178571      6.000000
 -0.321429  0.178571  0.178571      6.000000
 -0.250000  0.178571  0.178571      6.000000
 -0.178571  0.178571  0.178571      6.000000
  0.250000  0.250000  0.178571      6.000000
  0.321429  0.250000  0.178571     12.000000
  0.392857  0.250000  0.178571     12.000000
  0.464286  0.250000  0.178571     12.000000
 -0.464286  0.250000  0.178571     12.000000
 -0.392857  0.250000  0.178571     12.000000
 -0.321429  0.250000  0.178571     12.000000
 -0.250000  0.250000  0.178571     12.000000
 -0.178571  0.250000  0.178571     12.000000
  0.321429  0.321429  0.178571      6.000000
  0.392857  0.321429  0.178571     12.000000
  0.464286  0.321429  0.178571     12.000000
 -0.464286  0.321429  0.178571     12.000000
 -0.392857  0.321429  0.178571     12.000000
 -0.321429  0.321429  0.178571     12.000000
 -0.250000  0.321429  0.178571     12.000000
 -0.178571  0.321429  0.178571     12.000000
  0.392857  0.392857  0.178571      6.000000
  0.464286  0.392857  0.178571     12.000000
 -0.464286  0.392857  0.178571     12.000000
 -0.392857  0.392857  0.178571     12.000000
 -0.321429  0.392857  0.178571     12.000000
 -0.250000  0.392857  0.178571     12.000000
 -0.178571  0.392857  0.178571     12.000000
  0.464286  0.464286  0.178571      6.000000
 -0.464286  0.464286  0.178571     12.000000
 -0.392857  0.464286  0.178571     12.000000
 -0.321429  0.464286  0.178571     12.000000
 -0.250000  0.464286  0.178571     12.000000
 -0.178571  0.464286  0.178571     12.000000
 -0.464286 -0.464286  0.178571      6.000000
 -0.392857 -0.464286  0.178571     12.000000
 -0.321429 -0.464286  0.178571     12.000000
 -0.250000 -0.464286  0.178571     12.000000
 -0.392857 -0.392857  0.178571      6.000000
 -0.321429 -0.392857  0.178571     12.000000
 -0.250000 -0.392857  0.178571     12.000000
 -0.321429 -0.321429  0.178571      6.000000
 -0.250000 -0.321429  0.178571     12.000000
 -0.250000 -0.250000  0.178571      6.000000
  0.250000  0.250000  0.250000      2.000000
  0.321429  0.250000  0.250000      6.000000
  0.392857  0.250000  0.250000      6.000000
  0.464286  0.250000  0.250000      6.000000
 -0.464286  0.250000  0.250000      6.000000
 -0.392857  0.250000  0.250000      6.000000
 -0.321429  0.250000  0.250000      6.000000
 -0.250000  0.250000  0.250000      6.000000
  0.321429  0.321429  0.250000      6.000000
  0.392857  0.321429  0.250000     12.000000
  0.464286  0.321429  0.250000     12.000000
 -0.464286  0.321429  0.250000     12.000000
 -0.392857  0.321429  0.250000     12.000000
 -0.321429  0.321429  0.250000     12.000000
 -0.250000  0.321429  0.250000     12.000000
  0.392857  0.392857  0.250000      6.000000
  0.464286  0.392857  0.250000     12.000000
 -0.464286  0.392857  0.250000     12.000000
 -0.392857  0.392857  0.250000     12.000000
 -0.321429  0.392857  0.250000     12.000000
 -0.250000  0.392857  0.250000     12.000000
  0.464286  0.464286  0.250000      6.000000
 -0.464286  0.464286  0.250000     12.000000
 -0.392857  0.464286  0.250000     12.000000
 -0.321429  0.464286  0.250000     12.000000
 -0.250000  0.464286  0.250000     12.000000
 -0.464286 -0.464286  0.250000      6.000000
 -0.392857 -0.464286  0.250000     12.000000
 -0.321429 -0.464286  0.250000     12.000000
 -0.392857 -0.392857  0.250000      6.000000
 -0.321429 -0.392857  0.250000     12.000000
 -0.321429 -0.321429  0.250000      6.000000
  0.321429  0.321429  0.321429      2.000000
  0.392857  0.321429  0.321429      6.000000
  0.464286  0.321429  0.321429      6.000000
 -0.464286  0.321429  0.321429      6.000000
 -0.392857  0.321429  0.321429      6.000000
 -0.321429  0.321429  0.321429      6.000000
  0.392857  0.392857  0.321429      6.000000
  0.464286  0.392857  0.321429     12.000000
 -0.464286  0.392857  0.321429     12.000000
 -0.392857  0.392857  0.321429     12.000000
 -0.321429  0.392857  0.321429     12.000000
  0.464286  0.464286  0.321429      6.000000
 -0.464286  0.464286  0.321429     12.000000
 -0.392857  0.464286  0.321429     12.000000
 -0.321429  0.464286  0.321429     12.000000
 -0.464286 -0.464286  0.321429      6.000000
 -0.392857 -0.464286  0.321429     12.000000
 -0.392857 -0.392857  0.321429      6.000000
  0.392857  0.392857  0.392857      2.000000
  0.464286  0.392857  0.392857      6.000000
 -0.464286  0.392857  0.392857      6.000000
 -0.392857  0.392857  0.392857      6.000000
  0.464286  0.464286  0.392857      6.000000
 -0.464286  0.464286  0.392857     12.000000
 -0.392857  0.464286  0.392857     12.000000
 -0.464286 -0.464286  0.392857      6.000000
  0.464286  0.464286  0.464286      2.000000
 -0.464286  0.464286  0.464286      6.000000
 
 Following cartesian coordinates:
            Coordinates               Weight
  0.009928  0.009928  0.009928      2.000000
  0.029916  0.009861  0.009861      6.000000
  0.049904  0.009795  0.009795      6.000000
  0.069893  0.009729  0.009729      6.000000
  0.089881  0.009662  0.009662      6.000000
  0.109869  0.009596  0.009596      6.000000
  0.129857  0.009529  0.009529      6.000000
 -0.129990  0.010393  0.010393      6.000000
 -0.110002  0.010326  0.010326      6.000000
 -0.090014  0.010260  0.010260      6.000000
 -0.070025  0.010193  0.010193      6.000000
 -0.050037  0.010127  0.010127      6.000000
 -0.030049  0.010061  0.010061      6.000000
 -0.010061  0.009994  0.009994      6.000000
  0.029850  0.029850  0.009795      6.000000
  0.049838  0.029783  0.009729     12.000000
  0.069826  0.029717  0.009662     12.000000
  0.089814  0.029650  0.009596     12.000000
  0.109803  0.029584  0.009529     12.000000
  0.129791  0.029518  0.009463     12.000000
 -0.130057  0.030381  0.010326     12.000000
 -0.110068  0.030314  0.010260     12.000000
 -0.090080  0.030248  0.010193     12.000000
 -0.070092  0.030182  0.010127     12.000000
 -0.050103  0.030115  0.010061     12.000000
 -0.030115  0.030049  0.009994     12.000000
 -0.010127  0.029982  0.009928     12.000000
  0.049771  0.049771  0.009662      6.000000
  0.069760  0.049705  0.009596     12.000000
  0.089748  0.049639  0.009529     12.000000
  0.109736  0.049572  0.009463     12.000000
  0.129724  0.049506  0.009396     12.000000
 -0.130123  0.050369  0.010260     12.000000
 -0.110135  0.050303  0.010193     12.000000
 -0.090146  0.050236  0.010127     12.000000
 -0.070158  0.050170  0.010061     12.000000
 -0.050170  0.050103  0.009994     12.000000
 -0.030182  0.050037  0.009928     12.000000
 -0.010193  0.049971  0.009861     12.000000
  0.069693  0.069693  0.009529      6.000000
  0.089682  0.069627  0.009463     12.000000
  0.109670  0.069560  0.009396     12.000000
  0.129658  0.069494  0.009330     12.000000
 -0.130189  0.070357  0.010193     12.000000
 -0.110201  0.070291  0.010127     12.000000
 -0.090213  0.070225  0.010061     12.000000
 -0.070225  0.070158  0.009994     12.000000
 -0.050236  0.070092  0.009928     12.000000
 -0.030248  0.070025  0.009861     12.000000
 -0.010260  0.069959  0.009795     12.000000
  0.089615  0.089615  0.009396      6.000000
  0.109603  0.089549  0.009330     12.000000
  0.129592  0.089482  0.009264     12.000000
 -0.130256  0.090346  0.010127     12.000000
 -0.110267  0.090279  0.010061     12.000000
 -0.090279  0.090213  0.009994     12.000000
 -0.070291  0.090146  0.009928     12.000000
 -0.050303  0.090080  0.009861     12.000000
 -0.030314  0.090014  0.009795     12.000000
 -0.010326  0.089947  0.009729     12.000000
  0.109537  0.109537  0.009264      6.000000
  0.129525  0.109471  0.009197     12.000000
 -0.130322  0.110334  0.010061     12.000000
 -0.110334  0.110267  0.009994     12.000000
 -0.090346  0.110201  0.009928     12.000000
 -0.070357  0.110135  0.009861     12.000000
 -0.050369  0.110068  0.009795     12.000000
 -0.030381  0.110002  0.009729     12.000000
 -0.010393  0.109935  0.009662     12.000000
  0.129459  0.129459  0.009131      6.000000
 -0.130389  0.130322  0.009994     12.000000
 -0.110400  0.130256  0.009928     12.000000
 -0.090412  0.130189  0.009861     12.000000
 -0.070424  0.130123  0.009795     12.000000
 -0.050435  0.130057  0.009729     12.000000
 -0.030447  0.129990  0.009662     12.000000
 -0.010459  0.129924  0.009596     12.000000
 -0.129525 -0.129525  0.010857      6.000000
 -0.109537 -0.129592  0.010791     12.000000
 -0.089549 -0.129658  0.010725     12.000000
 -0.069560 -0.129724  0.010658     12.000000
 -0.049572 -0.129791  0.010592     12.000000
 -0.029584 -0.129857  0.010525     12.000000
 -0.109603 -0.109603  0.010725      6.000000
 -0.089615 -0.109670  0.010658     12.000000
 -0.069627 -0.109736  0.010592     12.000000
 -0.049639 -0.109803  0.010525     12.000000
 -0.029650 -0.109869  0.010459     12.000000
 -0.089682 -0.089682  0.010592      6.000000
 -0.069693 -0.089748  0.010525     12.000000
 -0.049705 -0.089814  0.010459     12.000000
 -0.029717 -0.089881  0.010393     12.000000
 -0.069760 -0.069760  0.010459      6.000000
 -0.049771 -0.069826  0.010393     12.000000
 -0.029783 -0.069893  0.010326     12.000000
 -0.049838 -0.049838  0.010326      6.000000
 -0.029850 -0.049904  0.010260     12.000000
 -0.029916 -0.029916  0.010193      6.000000
  0.029783  0.029783  0.029783      2.000000
  0.049771  0.029717  0.029717      6.000000
  0.069760  0.029650  0.029650      6.000000
  0.089748  0.029584  0.029584      6.000000
  0.109736  0.029518  0.029518      6.000000
  0.129724  0.029451  0.029451      6.000000
 -0.130123  0.030314  0.030314      6.000000
 -0.110135  0.030248  0.030248      6.000000
 -0.090146  0.030182  0.030182      6.000000
 -0.070158  0.030115  0.030115      6.000000
 -0.050170  0.030049  0.030049      6.000000
 -0.030182  0.029982  0.029982      6.000000
  0.049705  0.049705  0.029650      6.000000
  0.069693  0.049639  0.029584     12.000000
  0.089682  0.049572  0.029518     12.000000
  0.109670  0.049506  0.029451     12.000000
  0.129658  0.049439  0.029385     12.000000
 -0.130189  0.050303  0.030248     12.000000
 -0.110201  0.050236  0.030182     12.000000
 -0.090213  0.050170  0.030115     12.000000
 -0.070225  0.050103  0.030049     12.000000
 -0.050236  0.050037  0.029982     12.000000
 -0.030248  0.049971  0.029916     12.000000
  0.069627  0.069627  0.029518      6.000000
  0.089615  0.069560  0.029451     12.000000
  0.109603  0.069494  0.029385     12.000000
  0.129592  0.069428  0.029318     12.000000
 -0.130256  0.070291  0.030182     12.000000
 -0.110267  0.070225  0.030115     12.000000
 -0.090279  0.070158  0.030049     12.000000
 -0.070291  0.070092  0.029982     12.000000
 -0.050303  0.070025  0.029916     12.000000
 -0.030314  0.069959  0.029850     12.000000
  0.089549  0.089549  0.029385      6.000000
  0.109537  0.089482  0.029318     12.000000
  0.129525  0.089416  0.029252     12.000000
 -0.130322  0.090279  0.030115     12.000000
 -0.110334  0.090213  0.030049     12.000000
 -0.090346  0.090146  0.029982     12.000000
 -0.070357  0.090080  0.029916     12.000000
 -0.050369  0.090014  0.029850     12.000000
 -0.030381  0.089947  0.029783     12.000000
  0.109471  0.109471  0.029252      6.000000
  0.129459  0.109404  0.029186     12.000000
 -0.130389  0.110267  0.030049     12.000000
 -0.110400  0.110201  0.029982     12.000000
 -0.090412  0.110135  0.029916     12.000000
 -0.070424  0.110068  0.029850     12.000000
 -0.050435  0.110002  0.029783     12.000000
 -0.030447  0.109935  0.029717     12.000000
  0.129392  0.129392  0.029119      6.000000
 -0.130455  0.130256  0.029982     12.000000
 -0.110467  0.130189  0.029916     12.000000
 -0.090478  0.130123  0.029850     12.000000
 -0.070490  0.130057  0.029783     12.000000
 -0.050502  0.129990  0.029717     12.000000
 -0.030514  0.129924  0.029650     12.000000
 -0.129592 -0.129592  0.030846      6.000000
 -0.109603 -0.129658  0.030779     12.000000
 -0.089615 -0.129724  0.030713     12.000000
 -0.069627 -0.129791  0.030646     12.000000
 -0.049639 -0.129857  0.030580     12.000000
 -0.109670 -0.109670  0.030713      6.000000
 -0.089682 -0.109736  0.030646     12.000000
 -0.069693 -0.109803  0.030580     12.000000
 -0.049705 -0.109869  0.030514     12.000000
 -0.089748 -0.089748  0.030580      6.000000
 -0.069760 -0.089814  0.030514     12.000000
 -0.049771 -0.089881  0.030447     12.000000
 -0.069826 -0.069826  0.030447      6.000000
 -0.049838 -0.069893  0.030381     12.000000
 -0.049904 -0.049904  0.030314      6.000000
  0.049639  0.049639  0.049639      2.000000
  0.069627  0.049572  0.049572      6.000000
  0.089615  0.049506  0.049506      6.000000
  0.109603  0.049439  0.049439      6.000000
  0.129592  0.049373  0.049373      6.000000
 -0.130256  0.050236  0.050236      6.000000
 -0.110267  0.050170  0.050170      6.000000
 -0.090279  0.050103  0.050103      6.000000
 -0.070291  0.050037  0.050037      6.000000
 -0.050303  0.049971  0.049971      6.000000
  0.069560  0.069560  0.049506      6.000000
  0.089549  0.069494  0.049439     12.000000
  0.109537  0.069428  0.049373     12.000000
  0.129525  0.069361  0.049307     12.000000
 -0.130322  0.070225  0.050170     12.000000
 -0.110334  0.070158  0.050103     12.000000
 -0.090346  0.070092  0.050037     12.000000
 -0.070357  0.070025  0.049971     12.000000
 -0.050369  0.069959  0.049904     12.000000
  0.089482  0.089482  0.049373      6.000000
  0.109471  0.089416  0.049307     12.000000
  0.129459  0.089350  0.049240     12.000000
 -0.130389  0.090213  0.050103     12.000000
 -0.110400  0.090146  0.050037     12.000000
 -0.090412  0.090080  0.049971     12.000000
 -0.070424  0.090014  0.049904     12.000000
 -0.050435  0.089947  0.049838     12.000000
  0.109404  0.109404  0.049240      6.000000
  0.129392  0.109338  0.049174     12.000000
 -0.130455  0.110201  0.050037     12.000000
 -0.110467  0.110135  0.049971     12.000000
 -0.090478  0.110068  0.049904     12.000000
 -0.070490  0.110002  0.049838     12.000000
 -0.050502  0.109935  0.049771     12.000000
  0.129326  0.129326  0.049107      6.000000
 -0.130521  0.130189  0.049971     12.000000
 -0.110533  0.130123  0.049904     12.000000
 -0.090545  0.130057  0.049838     12.000000
 -0.070557  0.129990  0.049771     12.000000
 -0.050568  0.129924  0.049705     12.000000
 -0.129658 -0.129658  0.050834      6.000000
 -0.109670 -0.129724  0.050768     12.000000
 -0.089682 -0.129791  0.050701     12.000000
 -0.069693 -0.129857  0.050635     12.000000
 -0.109736 -0.109736  0.050701      6.000000
 -0.089748 -0.109803  0.050635     12.000000
 -0.069760 -0.109869  0.050568     12.000000
 -0.089814 -0.089814  0.050568      6.000000
 -0.069826 -0.089881  0.050502     12.000000
 -0.069893 -0.069893  0.050435      6.000000
  0.069494  0.069494  0.069494      2.000000
  0.089482  0.069428  0.069428      6.000000
  0.109471  0.069361  0.069361      6.000000
  0.129459  0.069295  0.069295      6.000000
 -0.130389  0.070158  0.070158      6.000000
 -0.110400  0.070092  0.070092      6.000000
 -0.090412  0.070025  0.070025      6.000000
 -0.070424  0.069959  0.069959      6.000000
  0.089416  0.089416  0.069361      6.000000
  0.109404  0.089350  0.069295     12.000000
  0.129392  0.089283  0.069228     12.000000
 -0.130455  0.090146  0.070092     12.000000
 -0.110467  0.090080  0.070025     12.000000
 -0.090478  0.090014  0.069959     12.000000
 -0.070490  0.089947  0.069893     12.000000
  0.109338  0.109338  0.069228      6.000000
  0.129326  0.109271  0.069162     12.000000
 -0.130521  0.110135  0.070025     12.000000
 -0.110533  0.110068  0.069959     12.000000
 -0.090545  0.110002  0.069893     12.000000
 -0.070557  0.109935  0.069826     12.000000
  0.129260  0.129260  0.069096      6.000000
 -0.130588  0.130123  0.069959     12.000000
 -0.110600  0.130057  0.069893     12.000000
 -0.090611  0.129990  0.069826     12.000000
 -0.070623  0.129924  0.069760     12.000000
 -0.129724 -0.129724  0.070822      6.000000
 -0.109736 -0.129791  0.070756     12.000000
 -0.089748 -0.129857  0.070689     12.000000
 -0.109803 -0.109803  0.070689      6.000000
 -0.089814 -0.109869  0.070623     12.000000
 -0.089881 -0.089881  0.070557      6.000000
  0.089350  0.089350  0.089350      2.000000
  0.109338  0.089283  0.089283      6.000000
  0.129326  0.089217  0.089217      6.000000
 -0.130521  0.090080  0.090080      6.000000
 -0.110533  0.090014  0.090014      6.000000
 -0.090545  0.089947  0.089947      6.000000
  0.109271  0.109271  0.089217      6.000000
  0.129260  0.109205  0.089150     12.000000
 -0.130588  0.110068  0.090014     12.000000
 -0.110600  0.110002  0.089947     12.000000
 -0.090611  0.109935  0.089881     12.000000
  0.129193  0.129193  0.089084      6.000000
 -0.130654  0.130057  0.089947     12.000000
 -0.110666  0.129990  0.089881     12.000000
 -0.090678  0.129924  0.089814     12.000000
 -0.129791 -0.129791  0.090810      6.000000
 -0.109803 -0.129857  0.090744     12.000000
 -0.109869 -0.109869  0.090678      6.000000
  0.109205  0.109205  0.109205      2.000000
  0.129193  0.109139  0.109139      6.000000
 -0.130654  0.110002  0.110002      6.000000
 -0.110666  0.109935  0.109935      6.000000
  0.129127  0.129127  0.109072      6.000000
 -0.130721  0.129990  0.109935     12.000000
 -0.110732  0.129924  0.109869     12.000000
 -0.129857 -0.129857  0.110799      6.000000
  0.129060  0.129060  0.129060      2.000000
 -0.130787  0.129924  0.129924      6.000000
 


--------------------------------------------------------------------------------------------------------




 Dimension of arrays:
   k-points           NKPTS =    280   k-points in BZ     NKDIM =    280   number of bands    NBANDS=     24
   number of dos      NEDOS =    301   number of ions     NIONS =      8
   non local maximal  LDIM  =      4   non local SUM 2l+1 LMDIM =      8
   total plane-waves  NPLWV =  46656
   max r-space proj   IRMAX =      1   max aug-charges    IRDMAX=  16274
   dimension x,y,z NGX =    36 NGY =   36 NGZ =   36
   dimension x,y,z NGXF=    48 NGYF=   48 NGZF=   48
   support grid    NGXF=    96 NGYF=   96 NGZF=   96
   ions per type =               8
   NGX,Y,Z   is equivalent  to a cutoff of  16.75, 16.75, 16.75 a.u.
   NGXF,Y,Z  is equivalent  to a cutoff of  22.33, 22.33, 22.33 a.u.

 SYSTEM =  unknown system                          
 POSCAR =  C8                                      

 Startparameter for this run:
   NWRITE =      2    write-flag & timer
   PREC   = high      normal or accurate (medium, high low for compatibility)
   ISTART =      0    job   : 0-new  1-cont  2-samecut
   ICHARG =      2    charge: 1-file 2-atom 10-const
   ISPIN  =      1    spin polarized calculation?
   LNONCOLLINEAR =      F non collinear calculations
   LSORBIT =      F    spin-orbit coupling
   INIWAV =      1    electr: 0-lowe 1-rand  2-diag
   LASPH  =      F    aspherical Exc in radial PAW
   METAGGA=      F    non-selfconsistent MetaGGA calc.

 Electronic Relaxation 1
   ENCUT  =  875.0 eV  64.31 Ry    8.02 a.u.   8.62  8.62  8.62*2*pi/ulx,y,z
   ENINI  =  875.0     initial cutoff
   ENAUG  =  946.8 eV  augmentation charge cutoff
   NELM   =     40;   NELMIN=  4; NELMDL= -5     # of ELM steps 
   EDIFF  = 0.1E-07   stopping-criterion for ELM
   LREAL  =      F    real-space projection
   NLSPLINE    = F    spline interpolate recip. space projectors
   LCOMPAT=      F    compatible to vasp.4.4
   GGA_COMPAT  = T    GGA compatible to vasp.4.4-vasp.4.6
   LMAXPAW     = -100 max onsite density
   LMAXMIX     =    2 max onsite mixed and CHGCAR
   VOSKOWN=      0    Vosko Wilk Nusair interpolation
   ROPT   =    0.00000
 Ionic relaxation
   EDIFFG = -.1E-01   stopping-criterion for IOM
   NSW    =    100    number of steps for IOM
   NBLOCK =      1;   KBLOCK =    100    inner block; outer block 
   IBRION =      2    ionic relax: 0-MD 1-quasi-New 2-CG
   NFREE  =      1    steps in history (QN), initial steepest desc. (CG)
   ISIF   =      2    stress and relaxation
   IWAVPR =     11    prediction:  0-non 1-charg 2-wave 3-comb
   ISYM   =      2    0-nonsym 1-usesym 2-fastsym
   LCORR  =      T    Harris-Foulkes like correction to forces

   POTIM  = 0.5000    time-step for ionic-motion
   TEIN   =    0.0    initial temperature
   TEBEG  =    0.0;   TEEND  =   0.0 temperature during run
   SMASS  =  -3.00    Nose mass-parameter (am)
   estimated Nose-frequenzy (Omega)   =  0.10E-29 period in steps =****** mass=  -0.292E-27a.u.
   SCALEE = 1.0000    scale energy and forces
   NPACO  =    256;   APACO  = 16.0  distance and # of slots for P.C.
   PSTRESS=    0.0 pullay stress

  Mass of Ions in am
   POMASS =  12.01
  Ionic Valenz
   ZVAL   =   4.00
  Atomic Wigner-Seitz radii
   RWIGS  =  -1.00
  virtual crystal weights 
   VCA    =   1.00
   NELECT =      32.0000    total number of electrons
   NUPDOWN=      -1.0000    fix difference up-down

 DOS related values:
   EMIN   =  10.00;   EMAX   =-10.00  energy-range for DOS
   EFERMI =   0.00
   ISMEAR =     0;   SIGMA  =   0.05  broadening in eV -4-tet -1-fermi 0-gaus

 Electronic relaxation 2 (details)
   IALGO  =     38    algorithm
   LDIAG  =      T    sub-space diagonalisation (order eigenvalues)
   LSUBROT=      F    optimize rotation matrix (better conditioning)
   TURBO    =      0    0=normal 1=particle mesh
   IRESTART =      0    0=no restart 2=restart with 2 vectors
   NREBOOT  =      0    no. of reboots
   NMIN     =      0    reboot dimension
   EREF     =   0.00    reference energy to select bands
   IMIX   =      4    mixing-type and parameters
     AMIX     =   0.40;   BMIX     =  1.00
     AMIX_MAG =   1.60;   BMIX_MAG =  1.00
     AMIN     =   0.10
     WC   =   100.;   INIMIX=   1;  MIXPRE=   1;  MAXMIX= -45

 Intra band minimization:
   WEIMIN = 0.0010     energy-eigenvalue tresh-hold
   EBREAK =  0.10E-09  absolut break condition
   DEPER  =   0.30     relativ break condition  

   TIME   =   0.40     timestep for ELM

  volume/ion in A,a.u.               =       5.70        38.50
  Fermi-wavevector in a.u.,A,eV,Ry     =   1.454420  2.748455 28.780903  2.115337
  Thomas-Fermi vector in A             =   2.571572
 
 Write flags
   LWAVE        =      F    write WAVECAR
   LDOWNSAMPLE  =      F    k-point downsampling of WAVECAR
   LCHARG       =      F    write CHGCAR
   LVTOT        =      F    write LOCPOT, total local potential
   LVHAR        =      F    write LOCPOT, Hartree potential only
   LELF         =      F    write electronic localiz. function (ELF)
   LORBIT       =      0    0 simple, 1 ext, 2 COOP (PROOUT), +10 PAW based schemes


 Dipole corrections
   LMONO  =      F    monopole corrections only (constant potential shift)
   LDIPOL =      F    correct potential (dipole corrections)
   IDIPOL =      0    1-x, 2-y, 3-z, 4-all directions 
   EPSILON=  1.0000000 bulk dielectric constant

 Exchange correlation treatment:
   GGA     =    --    GGA type
   LEXCH   =     8    internal setting for exchange type
   VOSKOWN=      0    Vosko Wilk Nusair interpolation
   LHFCALC =     F    Hartree Fock is set to
   LHFONE  =     F    Hartree Fock one center treatment
   AEXX    =    0.0000 exact exchange contribution

 Linear response parameters
   LEPSILON=     F    determine dielectric tensor
   LRPA    =     F    only Hartree local field effects (RPA)
   LNABLA  =     F    use nabla operator in PAW spheres
   LVEL    =     F    velocity operator in full k-point grid
   LINTERFAST=   F  fast interpolation
   KINTER  =     0    interpolate to denser k-point grid
   CSHIFT  =0.1000    complex shift for real part using Kramers Kronig
   OMEGAMAX=  -1.0    maximum frequency
   DEG_THRESHOLD= 0.2000000E-02 threshold for treating states as degnerate
   RTIME   =   -0.100 relaxation time in fs
  (WPLASMAI=    0.000 imaginary part of plasma frequency in eV, 0.658/RTIME)
   DFIELD  = 0.0000000 0.0000000 0.0000000 field for delta impulse in time
 
 Orbital magnetization related:
   ORBITALMAG=     F  switch on orbital magnetization
   LCHIMAG   =     F  perturbation theory with respect to B field
   DQ        =  0.001000  dq finite difference perturbation B field
   LLRAUG    =     F  two centre corrections for induced B field



--------------------------------------------------------------------------------------------------------


 conjugate gradient relaxation of ions
 charge density and potential will be updated during run
 non-spin polarized calculation
 Variant of blocked Davidson
 Davidson routine will perform the subspace rotation
 perform sub-space diagonalisation
    after iterative eigenvector-optimisation
 modified Broyden-mixing scheme, WC =      100.0
 initial mixing is a Kerker type mixing with AMIX =  0.4000 and BMIX =      1.0000
 Hartree-type preconditioning will be used
 using additional bands            8
 reciprocal scheme for non local part
 use partial core corrections
 calculate Harris-corrections to forces 
   (improved forces if not selfconsistent)
 use gradient corrections 
 use of overlap-Matrix (Vanderbilt PP)
 Gauss-broadening in eV      SIGMA  =   0.05


--------------------------------------------------------------------------------------------------------


  energy-cutoff  :      875.00
  volume of cell :       45.64
      direct lattice vectors                 reciprocal lattice vectors
     3.573605071  0.011912017  0.011912017     0.279835664 -0.000929687 -0.000929687
     0.011912017  3.573605071  0.011912017    -0.000929687  0.279835664 -0.000929687
     0.011912017  0.011912017  3.573605071    -0.000929687 -0.000929687  0.279835664

  length of vectors
     3.573644777  3.573644777  3.573644777     0.279838753  0.279838753  0.279838753


 
 k-points in units of 2pi/SCALE and weight: K-Mesh Generated with KP-Resolved Value 
   0.00992772  0.00992772  0.00992772       0.001
   0.02991599  0.00986132  0.00986132       0.002
   0.04990425  0.00979491  0.00979491       0.002
   0.06989251  0.00972851  0.00972851       0.002
   0.08988077  0.00966210  0.00966210       0.002
   0.10986903  0.00959569  0.00959569       0.002
   0.12985730  0.00952929  0.00952929       0.002
  -0.12999011  0.01039257  0.01039257       0.002
  -0.11000185  0.01032616  0.01032616       0.002
  -0.09001358  0.01025976  0.01025976       0.002
  -0.07002532  0.01019335  0.01019335       0.002
  -0.05003706  0.01012694  0.01012694       0.002
  -0.03004880  0.01006054  0.01006054       0.002
  -0.01006054  0.00999413  0.00999413       0.002
   0.02984958  0.02984958  0.00979491       0.002
   0.04983784  0.02978317  0.00972851       0.004
   0.06982610  0.02971677  0.00966210       0.004
   0.08981437  0.02965036  0.00959569       0.004
   0.10980263  0.02958396  0.00952929       0.004
   0.12979089  0.02951755  0.00946288       0.004
  -0.13005651  0.03038083  0.01032616       0.004
  -0.11006825  0.03031442  0.01025976       0.004
  -0.09007999  0.03024802  0.01019335       0.004
  -0.07009173  0.03018161  0.01012694       0.004
  -0.05010347  0.03011520  0.01006054       0.004
  -0.03011520  0.03004880  0.00999413       0.004
  -0.01012694  0.02998239  0.00992772       0.004
   0.04977144  0.04977144  0.00966210       0.002
   0.06975970  0.04970503  0.00959569       0.004
   0.08974796  0.04963862  0.00952929       0.004
   0.10973622  0.04957222  0.00946288       0.004
   0.12972448  0.04950581  0.00939648       0.004
  -0.13012292  0.05036909  0.01025976       0.004
  -0.11013466  0.05030269  0.01019335       0.004
  -0.09014640  0.05023628  0.01012694       0.004
  -0.07015813  0.05016987  0.01006054       0.004
  -0.05016987  0.05010347  0.00999413       0.004
  -0.03018161  0.05003706  0.00992772       0.004
  -0.01019335  0.04997065  0.00986132       0.004
   0.06969329  0.06969329  0.00952929       0.002
   0.08968155  0.06962689  0.00946288       0.004
   0.10966981  0.06956048  0.00939648       0.004
   0.12965808  0.06949407  0.00933007       0.004
  -0.13018933  0.07035735  0.01019335       0.004
  -0.11020106  0.07029095  0.01012694       0.004
  -0.09021280  0.07022454  0.01006054       0.004
  -0.07022454  0.07015813  0.00999413       0.004
  -0.05023628  0.07009173  0.00992772       0.004
  -0.03024802  0.07002532  0.00986132       0.004
  -0.01025976  0.06995892  0.00979491       0.004
   0.08961515  0.08961515  0.00939648       0.002
   0.10960341  0.08954874  0.00933007       0.004
   0.12959167  0.08948233  0.00926366       0.004
  -0.13025573  0.09034561  0.01012694       0.004
  -0.11026747  0.09027921  0.01006054       0.004
  -0.09027921  0.09021280  0.00999413       0.004
  -0.07029095  0.09014640  0.00992772       0.004
  -0.05030269  0.09007999  0.00986132       0.004
  -0.03031442  0.09001358  0.00979491       0.004
  -0.01032616  0.08994718  0.00972851       0.004
   0.10953700  0.10953700  0.00926366       0.002
   0.12952526  0.10947060  0.00919726       0.004
  -0.13032214  0.11033388  0.01006054       0.004
  -0.11033388  0.11026747  0.00999413       0.004
  -0.09034561  0.11020106  0.00992772       0.004
  -0.07035735  0.11013466  0.00986132       0.004
  -0.05036909  0.11006825  0.00979491       0.004
  -0.03038083  0.11000185  0.00972851       0.004
  -0.01039257  0.10993544  0.00966210       0.004
   0.12945886  0.12945886  0.00913085       0.002
  -0.13038854  0.13032214  0.00999413       0.004
  -0.11040028  0.13025573  0.00992772       0.004
  -0.09041202  0.13018933  0.00986132       0.004
  -0.07042376  0.13012292  0.00979491       0.004
  -0.05043550  0.13005651  0.00972851       0.004
  -0.03044724  0.12999011  0.00966210       0.004
  -0.01045897  0.12992370  0.00959569       0.004
  -0.12952526 -0.12952526  0.01085741       0.002
  -0.10953700 -0.12959167  0.01079101       0.004
  -0.08954874 -0.12965808  0.01072460       0.004
  -0.06956048 -0.12972448  0.01065819       0.004
  -0.04957222 -0.12979089  0.01059179       0.004
  -0.02958396 -0.12985730  0.01052538       0.004
  -0.10960341 -0.10960341  0.01072460       0.002
  -0.08961515 -0.10966981  0.01065819       0.004
  -0.06962689 -0.10973622  0.01059179       0.004
  -0.04963862 -0.10980263  0.01052538       0.004
  -0.02965036 -0.10986903  0.01045897       0.004
  -0.08968155 -0.08968155  0.01059179       0.002
  -0.06969329 -0.08974796  0.01052538       0.004
  -0.04970503 -0.08981437  0.01045897       0.004
  -0.02971677 -0.08988077  0.01039257       0.004
  -0.06975970 -0.06975970  0.01045897       0.002
  -0.04977144 -0.06982610  0.01039257       0.004
  -0.02978317 -0.06989251  0.01032616       0.004
  -0.04983784 -0.04983784  0.01032616       0.002
  -0.02984958 -0.04990425  0.01025976       0.004
  -0.02991599 -0.02991599  0.01019335       0.002
   0.02978317  0.02978317  0.02978317       0.001
   0.04977144  0.02971677  0.02971677       0.002
   0.06975970  0.02965036  0.02965036       0.002
   0.08974796  0.02958396  0.02958396       0.002
   0.10973622  0.02951755  0.02951755       0.002
   0.12972448  0.02945114  0.02945114       0.002
  -0.13012292  0.03031442  0.03031442       0.002
  -0.11013466  0.03024802  0.03024802       0.002
  -0.09014640  0.03018161  0.03018161       0.002
  -0.07015813  0.03011520  0.03011520       0.002
  -0.05016987  0.03004880  0.03004880       0.002
  -0.03018161  0.02998239  0.02998239       0.002
   0.04970503  0.04970503  0.02965036       0.002
   0.06969329  0.04963862  0.02958396       0.004
   0.08968155  0.04957222  0.02951755       0.004
   0.10966981  0.04950581  0.02945114       0.004
   0.12965808  0.04943940  0.02938474       0.004
  -0.13018933  0.05030269  0.03024802       0.004
  -0.11020106  0.05023628  0.03018161       0.004
  -0.09021280  0.05016987  0.03011520       0.004
  -0.07022454  0.05010347  0.03004880       0.004
  -0.05023628  0.05003706  0.02998239       0.004
  -0.03024802  0.04997065  0.02991599       0.004
   0.06962689  0.06962689  0.02951755       0.002
   0.08961515  0.06956048  0.02945114       0.004
   0.10960341  0.06949407  0.02938474       0.004
   0.12959167  0.06942767  0.02931833       0.004
  -0.13025573  0.07029095  0.03018161       0.004
  -0.11026747  0.07022454  0.03011520       0.004
  -0.09027921  0.07015813  0.03004880       0.004
  -0.07029095  0.07009173  0.02998239       0.004
  -0.05030269  0.07002532  0.02991599       0.004
  -0.03031442  0.06995892  0.02984958       0.004
   0.08954874  0.08954874  0.02938474       0.002
   0.10953700  0.08948233  0.02931833       0.004
   0.12952526  0.08941593  0.02925192       0.004
  -0.13032214  0.09027921  0.03011520       0.004
  -0.11033388  0.09021280  0.03004880       0.004
  -0.09034561  0.09014640  0.02998239       0.004
  -0.07035735  0.09007999  0.02991599       0.004
  -0.05036909  0.09001358  0.02984958       0.004
  -0.03038083  0.08994718  0.02978317       0.004
   0.10947060  0.10947060  0.02925192       0.002
   0.12945886  0.10940419  0.02918552       0.004
  -0.13038854  0.11026747  0.03004880       0.004
  -0.11040028  0.11020106  0.02998239       0.004
  -0.09041202  0.11013466  0.02991599       0.004
  -0.07042376  0.11006825  0.02984958       0.004
  -0.05043550  0.11000185  0.02978317       0.004
  -0.03044724  0.10993544  0.02971677       0.004
   0.12939245  0.12939245  0.02911911       0.002
  -0.13045495  0.13025573  0.02998239       0.004
  -0.11046669  0.13018933  0.02991599       0.004
  -0.09047843  0.13012292  0.02984958       0.004
  -0.07049017  0.13005651  0.02978317       0.004
  -0.05050190  0.12999011  0.02971677       0.004
  -0.03051364  0.12992370  0.02965036       0.004
  -0.12959167 -0.12959167  0.03084567       0.002
  -0.10960341 -0.12965808  0.03077927       0.004
  -0.08961515 -0.12972448  0.03071286       0.004
  -0.06962689 -0.12979089  0.03064645       0.004
  -0.04963862 -0.12985730  0.03058005       0.004
  -0.10966981 -0.10966981  0.03071286       0.002
  -0.08968155 -0.10973622  0.03064645       0.004
  -0.06969329 -0.10980263  0.03058005       0.004
  -0.04970503 -0.10986903  0.03051364       0.004
  -0.08974796 -0.08974796  0.03058005       0.002
  -0.06975970 -0.08981437  0.03051364       0.004
  -0.04977144 -0.08988077  0.03044724       0.004
  -0.06982610 -0.06982610  0.03044724       0.002
  -0.04983784 -0.06989251  0.03038083       0.004
  -0.04990425 -0.04990425  0.03031442       0.002
   0.04963862  0.04963862  0.04963862       0.001
   0.06962689  0.04957222  0.04957222       0.002
   0.08961515  0.04950581  0.04950581       0.002
   0.10960341  0.04943940  0.04943940       0.002
   0.12959167  0.04937300  0.04937300       0.002
  -0.13025573  0.05023628  0.05023628       0.002
  -0.11026747  0.05016987  0.05016987       0.002
  -0.09027921  0.05010347  0.05010347       0.002
  -0.07029095  0.05003706  0.05003706       0.002
  -0.05030269  0.04997065  0.04997065       0.002
   0.06956048  0.06956048  0.04950581       0.002
   0.08954874  0.06949407  0.04943940       0.004
   0.10953700  0.06942767  0.04937300       0.004
   0.12952526  0.06936126  0.04930659       0.004
  -0.13032214  0.07022454  0.05016987       0.004
  -0.11033388  0.07015813  0.05010347       0.004
  -0.09034561  0.07009173  0.05003706       0.004
  -0.07035735  0.07002532  0.04997065       0.004
  -0.05036909  0.06995892  0.04990425       0.004
   0.08948233  0.08948233  0.04937300       0.002
   0.10947060  0.08941593  0.04930659       0.004
   0.12945886  0.08934952  0.04924019       0.004
  -0.13038854  0.09021280  0.05010347       0.004
  -0.11040028  0.09014640  0.05003706       0.004
  -0.09041202  0.09007999  0.04997065       0.004
  -0.07042376  0.09001358  0.04990425       0.004
  -0.05043550  0.08994718  0.04983784       0.004
   0.10940419  0.10940419  0.04924019       0.002
   0.12939245  0.10933778  0.04917378       0.004
  -0.13045495  0.11020106  0.05003706       0.004
  -0.11046669  0.11013466  0.04997065       0.004
  -0.09047843  0.11006825  0.04990425       0.004
  -0.07049017  0.11000185  0.04983784       0.004
  -0.05050190  0.10993544  0.04977144       0.004
   0.12932605  0.12932605  0.04910737       0.002
  -0.13052136  0.13018933  0.04997065       0.004
  -0.11053310  0.13012292  0.04990425       0.004
  -0.09054483  0.13005651  0.04983784       0.004
  -0.07055657  0.12999011  0.04977144       0.004
  -0.05056831  0.12992370  0.04970503       0.004
  -0.12965808 -0.12965808  0.05083393       0.002
  -0.10966981 -0.12972448  0.05076753       0.004
  -0.08968155 -0.12979089  0.05070112       0.004
  -0.06969329 -0.12985730  0.05063472       0.004
  -0.10973622 -0.10973622  0.05070112       0.002
  -0.08974796 -0.10980263  0.05063472       0.004
  -0.06975970 -0.10986903  0.05056831       0.004
  -0.08981437 -0.08981437  0.05056831       0.002
  -0.06982610 -0.08988077  0.05050190       0.004
  -0.06989251 -0.06989251  0.05043550       0.002
   0.06949407  0.06949407  0.06949407       0.001
   0.08948233  0.06942767  0.06942767       0.002
   0.10947060  0.06936126  0.06936126       0.002
   0.12945886  0.06929485  0.06929485       0.002
  -0.13038854  0.07015813  0.07015813       0.002
  -0.11040028  0.07009173  0.07009173       0.002
  -0.09041202  0.07002532  0.07002532       0.002
  -0.07042376  0.06995892  0.06995892       0.002
   0.08941593  0.08941593  0.06936126       0.002
   0.10940419  0.08934952  0.06929485       0.004
   0.12939245  0.08928312  0.06922845       0.004
  -0.13045495  0.09014640  0.07009173       0.004
  -0.11046669  0.09007999  0.07002532       0.004
  -0.09047843  0.09001358  0.06995892       0.004
  -0.07049017  0.08994718  0.06989251       0.004
   0.10933778  0.10933778  0.06922845       0.002
   0.12932605  0.10927138  0.06916204       0.004
  -0.13052136  0.11013466  0.07002532       0.004
  -0.11053310  0.11006825  0.06995892       0.004
  -0.09054483  0.11000185  0.06989251       0.004
  -0.07055657  0.10993544  0.06982610       0.004
   0.12925964  0.12925964  0.06909564       0.002
  -0.13058776  0.13012292  0.06995892       0.004
  -0.11059950  0.13005651  0.06989251       0.004
  -0.09061124  0.12999011  0.06982610       0.004
  -0.07062298  0.12992370  0.06975970       0.004
  -0.12972448 -0.12972448  0.07082220       0.002
  -0.10973622 -0.12979089  0.07075579       0.004
  -0.08974796 -0.12985730  0.07068938       0.004
  -0.10980263 -0.10980263  0.07068938       0.002
  -0.08981437 -0.10986903  0.07062298       0.004
  -0.08988077 -0.08988077  0.07055657       0.002
   0.08934952  0.08934952  0.08934952       0.001
   0.10933778  0.08928312  0.08928312       0.002
   0.12932605  0.08921671  0.08921671       0.002
  -0.13052136  0.09007999  0.09007999       0.002
  -0.11053310  0.09001358  0.09001358       0.002
  -0.09054483  0.08994718  0.08994718       0.002
   0.10927138  0.10927138  0.08921671       0.002
   0.12925964  0.10920497  0.08915030       0.004
  -0.13058776  0.11006825  0.09001358       0.004
  -0.11059950  0.11000185  0.08994718       0.004
  -0.09061124  0.10993544  0.08988077       0.004
   0.12919323  0.12919323  0.08908390       0.002
  -0.13065417  0.13005651  0.08994718       0.004
  -0.11066591  0.12999011  0.08988077       0.004
  -0.09067765  0.12992370  0.08981437       0.004
  -0.12979089 -0.12979089  0.09081046       0.002
  -0.10980263 -0.12985730  0.09074405       0.004
  -0.10986903 -0.10986903  0.09067765       0.002
   0.10920497  0.10920497  0.10920497       0.001
   0.12919323  0.10913857  0.10913857       0.002
  -0.13065417  0.11000185  0.11000185       0.002
  -0.11066591  0.10993544  0.10993544       0.002
   0.12912683  0.12912683  0.10907216       0.002
  -0.13072058  0.12999011  0.10993544       0.004
  -0.11073231  0.12992370  0.10986903       0.004
  -0.12985730 -0.12985730  0.11079872       0.002
   0.12906042  0.12906042  0.12906042       0.001
  -0.13078698  0.12992370  0.12992370       0.002
 
 k-points in reciprocal lattice and weights: K-Mesh Generated with KP-Resolved Value 
   0.03571429  0.03571429  0.03571429       0.001
   0.10714286  0.03571429  0.03571429       0.002
   0.17857143  0.03571429  0.03571429       0.002
   0.25000000  0.03571429  0.03571429       0.002
   0.32142857  0.03571429  0.03571429       0.002
   0.39285714  0.03571429  0.03571429       0.002
   0.46428571  0.03571429  0.03571429       0.002
  -0.46428571  0.03571429  0.03571429       0.002
  -0.39285714  0.03571429  0.03571429       0.002
  -0.32142857  0.03571429  0.03571429       0.002
  -0.25000000  0.03571429  0.03571429       0.002
  -0.17857143  0.03571429  0.03571429       0.002
  -0.10714286  0.03571429  0.03571429       0.002
  -0.03571429  0.03571429  0.03571429       0.002
   0.10714286  0.10714286  0.03571429       0.002
   0.17857143  0.10714286  0.03571429       0.004
   0.25000000  0.10714286  0.03571429       0.004
   0.32142857  0.10714286  0.03571429       0.004
   0.39285714  0.10714286  0.03571429       0.004
   0.46428571  0.10714286  0.03571429       0.004
  -0.46428571  0.10714286  0.03571429       0.004
  -0.39285714  0.10714286  0.03571429       0.004
  -0.32142857  0.10714286  0.03571429       0.004
  -0.25000000  0.10714286  0.03571429       0.004
  -0.17857143  0.10714286  0.03571429       0.004
  -0.10714286  0.10714286  0.03571429       0.004
  -0.03571429  0.10714286  0.03571429       0.004
   0.17857143  0.17857143  0.03571429       0.002
   0.25000000  0.17857143  0.03571429       0.004
   0.32142857  0.17857143  0.03571429       0.004
   0.39285714  0.17857143  0.03571429       0.004
   0.46428571  0.17857143  0.03571429       0.004
  -0.46428571  0.17857143  0.03571429       0.004
  -0.39285714  0.17857143  0.03571429       0.004
  -0.32142857  0.17857143  0.03571429       0.004
  -0.25000000  0.17857143  0.03571429       0.004
  -0.17857143  0.17857143  0.03571429       0.004
  -0.10714286  0.17857143  0.03571429       0.004
  -0.03571429  0.17857143  0.03571429       0.004
   0.25000000  0.25000000  0.03571429       0.002
   0.32142857  0.25000000  0.03571429       0.004
   0.39285714  0.25000000  0.03571429       0.004
   0.46428571  0.25000000  0.03571429       0.004
  -0.46428571  0.25000000  0.03571429       0.004
  -0.39285714  0.25000000  0.03571429       0.004
  -0.32142857  0.25000000  0.03571429       0.004
  -0.25000000  0.25000000  0.03571429       0.004
  -0.17857143  0.25000000  0.03571429       0.004
  -0.10714286  0.25000000  0.03571429       0.004
  -0.03571429  0.25000000  0.03571429       0.004
   0.32142857  0.32142857  0.03571429       0.002
   0.39285714  0.32142857  0.03571429       0.004
   0.46428571  0.32142857  0.03571429       0.004
  -0.46428571  0.32142857  0.03571429       0.004
  -0.39285714  0.32142857  0.03571429       0.004
  -0.32142857  0.32142857  0.03571429       0.004
  -0.25000000  0.32142857  0.03571429       0.004
  -0.17857143  0.32142857  0.03571429       0.004
  -0.10714286  0.32142857  0.03571429       0.004
  -0.03571429  0.32142857  0.03571429       0.004
   0.39285714  0.39285714  0.03571429       0.002
   0.46428571  0.39285714  0.03571429       0.004
  -0.46428571  0.39285714  0.03571429       0.004
  -0.39285714  0.39285714  0.03571429       0.004
  -0.32142857  0.39285714  0.03571429       0.004
  -0.25000000  0.39285714  0.03571429       0.004
  -0.17857143  0.39285714  0.03571429       0.004
  -0.10714286  0.39285714  0.03571429       0.004
  -0.03571429  0.39285714  0.03571429       0.004
   0.46428571  0.46428571  0.03571429       0.002
  -0.46428571  0.46428571  0.03571429       0.004
  -0.39285714  0.46428571  0.03571429       0.004
  -0.32142857  0.46428571  0.03571429       0.004
  -0.25000000  0.46428571  0.03571429       0.004
  -0.17857143  0.46428571  0.03571429       0.004
  -0.10714286  0.46428571  0.03571429       0.004
  -0.03571429  0.46428571  0.03571429       0.004
  -0.46428571 -0.46428571  0.03571429       0.002
  -0.39285714 -0.46428571  0.03571429       0.004
  -0.32142857 -0.46428571  0.03571429       0.004
  -0.25000000 -0.46428571  0.03571429       0.004
  -0.17857143 -0.46428571  0.03571429       0.004
  -0.10714286 -0.46428571  0.03571429       0.004
  -0.39285714 -0.39285714  0.03571429       0.002
  -0.32142857 -0.39285714  0.03571429       0.004
  -0.25000000 -0.39285714  0.03571429       0.004
  -0.17857143 -0.39285714  0.03571429       0.004
  -0.10714286 -0.39285714  0.03571429       0.004
  -0.32142857 -0.32142857  0.03571429       0.002
  -0.25000000 -0.32142857  0.03571429       0.004
  -0.17857143 -0.32142857  0.03571429       0.004
  -0.10714286 -0.32142857  0.03571429       0.004
  -0.25000000 -0.25000000  0.03571429       0.002
  -0.17857143 -0.25000000  0.03571429       0.004
  -0.10714286 -0.25000000  0.03571429       0.004
  -0.17857143 -0.17857143  0.03571429       0.002
  -0.10714286 -0.17857143  0.03571429       0.004
  -0.10714286 -0.10714286  0.03571429       0.002
   0.10714286  0.10714286  0.10714286       0.001
   0.17857143  0.10714286  0.10714286       0.002
   0.25000000  0.10714286  0.10714286       0.002
   0.32142857  0.10714286  0.10714286       0.002
   0.39285714  0.10714286  0.10714286       0.002
   0.46428571  0.10714286  0.10714286       0.002
  -0.46428571  0.10714286  0.10714286       0.002
  -0.39285714  0.10714286  0.10714286       0.002
  -0.32142857  0.10714286  0.10714286       0.002
  -0.25000000  0.10714286  0.10714286       0.002
  -0.17857143  0.10714286  0.10714286       0.002
  -0.10714286  0.10714286  0.10714286       0.002
   0.17857143  0.17857143  0.10714286       0.002
   0.25000000  0.17857143  0.10714286       0.004
   0.32142857  0.17857143  0.10714286       0.004
   0.39285714  0.17857143  0.10714286       0.004
   0.46428571  0.17857143  0.10714286       0.004
  -0.46428571  0.17857143  0.10714286       0.004
  -0.39285714  0.17857143  0.10714286       0.004
  -0.32142857  0.17857143  0.10714286       0.004
  -0.25000000  0.17857143  0.10714286       0.004
  -0.17857143  0.17857143  0.10714286       0.004
  -0.10714286  0.17857143  0.10714286       0.004
   0.25000000  0.25000000  0.10714286       0.002
   0.32142857  0.25000000  0.10714286       0.004
   0.39285714  0.25000000  0.10714286       0.004
   0.46428571  0.25000000  0.10714286       0.004
  -0.46428571  0.25000000  0.10714286       0.004
  -0.39285714  0.25000000  0.10714286       0.004
  -0.32142857  0.25000000  0.10714286       0.004
  -0.25000000  0.25000000  0.10714286       0.004
  -0.17857143  0.25000000  0.10714286       0.004
  -0.10714286  0.25000000  0.10714286       0.004
   0.32142857  0.32142857  0.10714286       0.002
   0.39285714  0.32142857  0.10714286       0.004
   0.46428571  0.32142857  0.10714286       0.004
  -0.46428571  0.32142857  0.10714286       0.004
  -0.39285714  0.32142857  0.10714286       0.004
  -0.32142857  0.32142857  0.10714286       0.004
  -0.25000000  0.32142857  0.10714286       0.004
  -0.17857143  0.32142857  0.10714286       0.004
  -0.10714286  0.32142857  0.10714286       0.004
   0.39285714  0.39285714  0.10714286       0.002
   0.46428571  0.39285714  0.10714286       0.004
  -0.46428571  0.39285714  0.10714286       0.004
  -0.39285714  0.39285714  0.10714286       0.004
  -0.32142857  0.39285714  0.10714286       0.004
  -0.25000000  0.39285714  0.10714286       0.004
  -0.17857143  0.39285714  0.10714286       0.004
  -0.10714286  0.39285714  0.10714286       0.004
   0.46428571  0.46428571  0.10714286       0.002
  -0.46428571  0.46428571  0.10714286       0.004
  -0.39285714  0.46428571  0.10714286       0.004
  -0.32142857  0.46428571  0.10714286       0.004
  -0.25000000  0.46428571  0.10714286       0.004
  -0.17857143  0.46428571  0.10714286       0.004
  -0.10714286  0.46428571  0.10714286       0.004
  -0.46428571 -0.46428571  0.10714286       0.002
  -0.39285714 -0.46428571  0.10714286       0.004
  -0.32142857 -0.46428571  0.10714286       0.004
  -0.25000000 -0.46428571  0.10714286       0.004
  -0.17857143 -0.46428571  0.10714286       0.004
  -0.39285714 -0.39285714  0.10714286       0.002
  -0.32142857 -0.39285714  0.10714286       0.004
  -0.25000000 -0.39285714  0.10714286       0.004
  -0.17857143 -0.39285714  0.10714286       0.004
  -0.32142857 -0.32142857  0.10714286       0.002
  -0.25000000 -0.32142857  0.10714286       0.004
  -0.17857143 -0.32142857  0.10714286       0.004
  -0.25000000 -0.25000000  0.10714286       0.002
  -0.17857143 -0.25000000  0.10714286       0.004
  -0.17857143 -0.17857143  0.10714286       0.002
   0.17857143  0.17857143  0.17857143       0.001
   0.25000000  0.17857143  0.17857143       0.002
   0.32142857  0.17857143  0.17857143       0.002
   0.39285714  0.17857143  0.17857143       0.002
   0.46428571  0.17857143  0.17857143       0.002
  -0.46428571  0.17857143  0.17857143       0.002
  -0.39285714  0.17857143  0.17857143       0.002
  -0.32142857  0.17857143  0.17857143       0.002
  -0.25000000  0.17857143  0.17857143       0.002
  -0.17857143  0.17857143  0.17857143       0.002
   0.25000000  0.25000000  0.17857143       0.002
   0.32142857  0.25000000  0.17857143       0.004
   0.39285714  0.25000000  0.17857143       0.004
   0.46428571  0.25000000  0.17857143       0.004
  -0.46428571  0.25000000  0.17857143       0.004
  -0.39285714  0.25000000  0.17857143       0.004
  -0.32142857  0.25000000  0.17857143       0.004
  -0.25000000  0.25000000  0.17857143       0.004
  -0.17857143  0.25000000  0.17857143       0.004
   0.32142857  0.32142857  0.17857143       0.002
   0.39285714  0.32142857  0.17857143       0.004
   0.46428571  0.32142857  0.17857143       0.004
  -0.46428571  0.32142857  0.17857143       0.004
  -0.39285714  0.32142857  0.17857143       0.004
  -0.32142857  0.32142857  0.17857143       0.004
  -0.25000000  0.32142857  0.17857143       0.004
  -0.17857143  0.32142857  0.17857143       0.004
   0.39285714  0.39285714  0.17857143       0.002
   0.46428571  0.39285714  0.17857143       0.004
  -0.46428571  0.39285714  0.17857143       0.004
  -0.39285714  0.39285714  0.17857143       0.004
  -0.32142857  0.39285714  0.17857143       0.004
  -0.25000000  0.39285714  0.17857143       0.004
  -0.17857143  0.39285714  0.17857143       0.004
   0.46428571  0.46428571  0.17857143       0.002
  -0.46428571  0.46428571  0.17857143       0.004
  -0.39285714  0.46428571  0.17857143       0.004
  -0.32142857  0.46428571  0.17857143       0.004
  -0.25000000  0.46428571  0.17857143       0.004
  -0.17857143  0.46428571  0.17857143       0.004
  -0.46428571 -0.46428571  0.17857143       0.002
  -0.39285714 -0.46428571  0.17857143       0.004
  -0.32142857 -0.46428571  0.17857143       0.004
  -0.25000000 -0.46428571  0.17857143       0.004
  -0.39285714 -0.39285714  0.17857143       0.002
  -0.32142857 -0.39285714  0.17857143       0.004
  -0.25000000 -0.39285714  0.17857143       0.004
  -0.32142857 -0.32142857  0.17857143       0.002
  -0.25000000 -0.32142857  0.17857143       0.004
  -0.25000000 -0.25000000  0.17857143       0.002
   0.25000000  0.25000000  0.25000000       0.001
   0.32142857  0.25000000  0.25000000       0.002
   0.39285714  0.25000000  0.25000000       0.002
   0.46428571  0.25000000  0.25000000       0.002
  -0.46428571  0.25000000  0.25000000       0.002
  -0.39285714  0.25000000  0.25000000       0.002
  -0.32142857  0.25000000  0.25000000       0.002
  -0.25000000  0.25000000  0.25000000       0.002
   0.32142857  0.32142857  0.25000000       0.002
   0.39285714  0.32142857  0.25000000       0.004
   0.46428571  0.32142857  0.25000000       0.004
  -0.46428571  0.32142857  0.25000000       0.004
  -0.39285714  0.32142857  0.25000000       0.004
  -0.32142857  0.32142857  0.25000000       0.004
  -0.25000000  0.32142857  0.25000000       0.004
   0.39285714  0.39285714  0.25000000       0.002
   0.46428571  0.39285714  0.25000000       0.004
  -0.46428571  0.39285714  0.25000000       0.004
  -0.39285714  0.39285714  0.25000000       0.004
  -0.32142857  0.39285714  0.25000000       0.004
  -0.25000000  0.39285714  0.25000000       0.004
   0.46428571  0.46428571  0.25000000       0.002
  -0.46428571  0.46428571  0.25000000       0.004
  -0.39285714  0.46428571  0.25000000       0.004
  -0.32142857  0.46428571  0.25000000       0.004
  -0.25000000  0.46428571  0.25000000       0.004
  -0.46428571 -0.46428571  0.25000000       0.002
  -0.39285714 -0.46428571  0.25000000       0.004
  -0.32142857 -0.46428571  0.25000000       0.004
  -0.39285714 -0.39285714  0.25000000       0.002
  -0.32142857 -0.39285714  0.25000000       0.004
  -0.32142857 -0.32142857  0.25000000       0.002
   0.32142857  0.32142857  0.32142857       0.001
   0.39285714  0.32142857  0.32142857       0.002
   0.46428571  0.32142857  0.32142857       0.002
  -0.46428571  0.32142857  0.32142857       0.002
  -0.39285714  0.32142857  0.32142857       0.002
  -0.32142857  0.32142857  0.32142857       0.002
   0.39285714  0.39285714  0.32142857       0.002
   0.46428571  0.39285714  0.32142857       0.004
  -0.46428571  0.39285714  0.32142857       0.004
  -0.39285714  0.39285714  0.32142857       0.004
  -0.32142857  0.39285714  0.32142857       0.004
   0.46428571  0.46428571  0.32142857       0.002
  -0.46428571  0.46428571  0.32142857       0.004
  -0.39285714  0.46428571  0.32142857       0.004
  -0.32142857  0.46428571  0.32142857       0.004
  -0.46428571 -0.46428571  0.32142857       0.002
  -0.39285714 -0.46428571  0.32142857       0.004
  -0.39285714 -0.39285714  0.32142857       0.002
   0.39285714  0.39285714  0.39285714       0.001
   0.46428571  0.39285714  0.39285714       0.002
  -0.46428571  0.39285714  0.39285714       0.002
  -0.39285714  0.39285714  0.39285714       0.002
   0.46428571  0.46428571  0.39285714       0.002
  -0.46428571  0.46428571  0.39285714       0.004
  -0.39285714  0.46428571  0.39285714       0.004
  -0.46428571 -0.46428571  0.39285714       0.002
   0.46428571  0.46428571  0.46428571       0.001
  -0.46428571  0.46428571  0.46428571       0.002
 
 position of ions in fractional coordinates (direct lattice) 
   0.25000000  0.25000000  0.25000000
   0.00000000  0.00000000  0.00000000
   0.25000000  0.75000000  0.75000000
   0.00000000  0.50000000  0.50000000
   0.75000000  0.25000000  0.75000000
   0.50000000  0.00000000  0.50000000
   0.75000000  0.75000000  0.25000000
   0.50000000  0.50000000  0.00000000
 
 position of ions in cartesian coordinates  (Angst):
   0.89935728  0.89935728  0.89935728
   0.00000000  0.00000000  0.00000000
   0.91126929  2.69211582  2.69211582
   0.01191202  1.79275854  1.79275854
   2.69211582  0.91126929  2.69211582
   1.79275854  0.01191202  1.79275854
   2.69211582  2.69211582  0.91126929
   1.79275854  1.79275854  0.01191202
 


--------------------------------------------------------------------------------------------------------


 k-point  1 :   0.0357 0.0357 0.0357  plane waves:    2671
 k-point  2 :   0.1071 0.0357 0.0357  plane waves:    2679
 k-point  3 :   0.1786 0.0357 0.0357  plane waves:    2682
 k-point  4 :   0.2500 0.0357 0.0357  plane waves:    2690
 k-point  5 :   0.3214 0.0357 0.0357  plane waves:    2696
 k-point  6 :   0.3929 0.0357 0.0357  plane waves:    2682
 k-point  7 :   0.4643 0.0357 0.0357  plane waves:    2692
 k-point  8 :  -0.4643 0.0357 0.0357  plane waves:    2692
 k-point  9 :  -0.3929 0.0357 0.0357  plane waves:    2682
 k-point 10 :  -0.3214 0.0357 0.0357  plane waves:    2693
 k-point 11 :  -0.2500 0.0357 0.0357  plane waves:    2690
 k-point 12 :  -0.1786 0.0357 0.0357  plane waves:    2691
 k-point 13 :  -0.1071 0.0357 0.0357  plane waves:    2688
 k-point 14 :  -0.0357 0.0357 0.0357  plane waves:    2689
 k-point 15 :   0.1071 0.1071 0.0357  plane waves:    2679
 k-point 16 :   0.1786 0.1071 0.0357  plane waves:    2675
 k-point 17 :   0.2500 0.1071 0.0357  plane waves:    2686
 k-point 18 :   0.3214 0.1071 0.0357  plane waves:    2694
 k-point 19 :   0.3929 0.1071 0.0357  plane waves:    2691
 k-point 20 :   0.4643 0.1071 0.0357  plane waves:    2696
 k-point 21 :  -0.4643 0.1071 0.0357  plane waves:    2694
 k-point 22 :  -0.3929 0.1071 0.0357  plane waves:    2690
 k-point 23 :  -0.3214 0.1071 0.0357  plane waves:    2696
 k-point 24 :  -0.2500 0.1071 0.0357  plane waves:    2694
 k-point 25 :  -0.1786 0.1071 0.0357  plane waves:    2687
 k-point 26 :  -0.1071 0.1071 0.0357  plane waves:    2682
 k-point 27 :  -0.0357 0.1071 0.0357  plane waves:    2681
 k-point 28 :   0.1786 0.1786 0.0357  plane waves:    2686
 k-point 29 :   0.2500 0.1786 0.0357  plane waves:    2686
 k-point 30 :   0.3214 0.1786 0.0357  plane waves:    2682
 k-point 31 :   0.3929 0.1786 0.0357  plane waves:    2684
 k-point 32 :   0.4643 0.1786 0.0357  plane waves:    2688
 k-point 33 :  -0.4643 0.1786 0.0357  plane waves:    2690
 k-point 34 :  -0.3929 0.1786 0.0357  plane waves:    2686
 k-point 35 :  -0.3214 0.1786 0.0357  plane waves:    2688
 k-point 36 :  -0.2500 0.1786 0.0357  plane waves:    2693
 k-point 37 :  -0.1786 0.1786 0.0357  plane waves:    2690
 k-point 38 :  -0.1071 0.1786 0.0357  plane waves:    2685
 k-point 39 :  -0.0357 0.1786 0.0357  plane waves:    2684
 k-point 40 :   0.2500 0.2500 0.0357  plane waves:    2681
 k-point 41 :   0.3214 0.2500 0.0357  plane waves:    2680
 k-point 42 :   0.3929 0.2500 0.0357  plane waves:    2675
 k-point 43 :   0.4643 0.2500 0.0357  plane waves:    2678
 k-point 44 :  -0.4643 0.2500 0.0357  plane waves:    2683
 k-point 45 :  -0.3929 0.2500 0.0357  plane waves:    2678
 k-point 46 :  -0.3214 0.2500 0.0357  plane waves:    2677
 k-point 47 :  -0.2500 0.2500 0.0357  plane waves:    2681
 k-point 48 :  -0.1786 0.2500 0.0357  plane waves:    2693
 k-point 49 :  -0.1071 0.2500 0.0357  plane waves:    2694
 k-point 50 :  -0.0357 0.2500 0.0357  plane waves:    2695
 k-point 51 :   0.3214 0.3214 0.0357  plane waves:    2674
 k-point 52 :   0.3929 0.3214 0.0357  plane waves:    2675
 k-point 53 :   0.4643 0.3214 0.0357  plane waves:    2678
 k-point 54 :  -0.4643 0.3214 0.0357  plane waves:    2676
 k-point 55 :  -0.3929 0.3214 0.0357  plane waves:    2671
 k-point 56 :  -0.3214 0.3214 0.0357  plane waves:    2678
 k-point 57 :  -0.2500 0.3214 0.0357  plane waves:    2679
 k-point 58 :  -0.1786 0.3214 0.0357  plane waves:    2686
 k-point 59 :  -0.1071 0.3214 0.0357  plane waves:    2696
 k-point 60 :  -0.0357 0.3214 0.0357  plane waves:    2699
 k-point 61 :   0.3929 0.3929 0.0357  plane waves:    2682
 k-point 62 :   0.4643 0.3929 0.0357  plane waves:    2675
 k-point 63 :  -0.4643 0.3929 0.0357  plane waves:    2673
 k-point 64 :  -0.3929 0.3929 0.0357  plane waves:    2673
 k-point 65 :  -0.3214 0.3929 0.0357  plane waves:    2678
 k-point 66 :  -0.2500 0.3929 0.0357  plane waves:    2676
 k-point 67 :  -0.1786 0.3929 0.0357  plane waves:    2691
 k-point 68 :  -0.1071 0.3929 0.0357  plane waves:    2688
 k-point 69 :  -0.0357 0.3929 0.0357  plane waves:    2695
 k-point 70 :   0.4643 0.4643 0.0357  plane waves:    2689
 k-point 71 :  -0.4643 0.4643 0.0357  plane waves:    2684
 k-point 72 :  -0.3929 0.4643 0.0357  plane waves:    2681
 k-point 73 :  -0.3214 0.4643 0.0357  plane waves:    2674
 k-point 74 :  -0.2500 0.4643 0.0357  plane waves:    2683
 k-point 75 :  -0.1786 0.4643 0.0357  plane waves:    2695
 k-point 76 :  -0.1071 0.4643 0.0357  plane waves:    2686
 k-point 77 :  -0.0357 0.4643 0.0357  plane waves:    2700
 k-point 78 :  -0.4643-0.4643 0.0357  plane waves:    2692
 k-point 79 :  -0.3929-0.4643 0.0357  plane waves:    2684
 k-point 80 :  -0.3214-0.4643 0.0357  plane waves:    2676
 k-point 81 :  -0.2500-0.4643 0.0357  plane waves:    2684
 k-point 82 :  -0.1786-0.4643 0.0357  plane waves:    2689
 k-point 83 :  -0.1071-0.4643 0.0357  plane waves:    2691
 k-point 84 :  -0.3929-0.3929 0.0357  plane waves:    2684
 k-point 85 :  -0.3214-0.3929 0.0357  plane waves:    2678
 k-point 86 :  -0.2500-0.3929 0.0357  plane waves:    2680
 k-point 87 :  -0.1786-0.3929 0.0357  plane waves:    2687
 k-point 88 :  -0.1071-0.3929 0.0357  plane waves:    2687
 k-point 89 :  -0.3214-0.3214 0.0357  plane waves:    2683
 k-point 90 :  -0.2500-0.3214 0.0357  plane waves:    2685
 k-point 91 :  -0.1786-0.3214 0.0357  plane waves:    2682
 k-point 92 :  -0.1071-0.3214 0.0357  plane waves:    2690
 k-point 93 :  -0.2500-0.2500 0.0357  plane waves:    2681
 k-point 94 :  -0.1786-0.2500 0.0357  plane waves:    2686
 k-point 95 :  -0.1071-0.2500 0.0357  plane waves:    2695
 k-point 96 :  -0.1786-0.1786 0.0357  plane waves:    2687
 k-point 97 :  -0.1071-0.1786 0.0357  plane waves:    2692
 k-point 98 :  -0.1071-0.1071 0.0357  plane waves:    2683
 k-point 99 :   0.1071 0.1071 0.1071  plane waves:    2668
 k-point ** :   0.1786 0.1071 0.1071  plane waves:    2678
 k-point ** :   0.2500 0.1071 0.1071  plane waves:    2677
 k-point ** :   0.3214 0.1071 0.1071  plane waves:    2686
 k-point ** :   0.3929 0.1071 0.1071  plane waves:    2685
 k-point ** :   0.4643 0.1071 0.1071  plane waves:    2685
 k-point ** :  -0.4643 0.1071 0.1071  plane waves:    2689
 k-point ** :  -0.3929 0.1071 0.1071  plane waves:    2684
 k-point ** :  -0.3214 0.1071 0.1071  plane waves:    2689
 k-point ** :  -0.2500 0.1071 0.1071  plane waves:    2693
[...]
     16       8.1694      2.00000
     17      19.0338      0.00000
     18      19.2121      0.00000
     19      19.2121      0.00000
     20      19.2959      0.00000
     21      19.3484      0.00000
     22      19.3484      0.00000
     23      19.4953      0.00000
     24      19.9057      0.00000

 k-point   269 :      -0.3929   -0.4643    0.3214
  band No.  band energies     occupation 
      1      -6.3360      2.00000
      2      -5.7448      2.00000
      3      -4.7324      2.00000
      4      -4.6169      2.00000
      5      -2.0344      2.00000
      6      -1.7529      2.00000
      7      -0.7690      2.00000
      8      -0.1959      2.00000
      9       6.4966      2.00000
     10       6.5456      2.00000
     11       7.2494      2.00000
     12       7.4700      2.00000
     13       7.5459      2.00000
     14       7.6685      2.00000
     15       7.7860      2.00000
     16       8.2185      2.00000
     17      18.7190      0.00000
     18      18.8923      0.00000
     19      18.9989      0.00000
     20      19.0229      0.00000
     21      19.5309      0.00000
     22      19.6033      0.00000
     23      19.8007      0.00000
     24      19.8519      0.00000

 k-point   270 :      -0.3929   -0.3929    0.3214
  band No.  band energies     occupation 
      1      -6.8507      2.00000
      2      -5.1154      2.00000
      3      -5.1154      2.00000
      4      -4.5320      2.00000
      5      -1.9529      2.00000
      6      -1.2177      2.00000
      7      -1.2177      2.00000
      8       0.4615      2.00000
      9       6.2406      2.00000
     10       6.6374      2.00000
     11       6.6374      2.00000
     12       7.3168      2.00000
     13       7.3168      2.00000
     14       7.3685      2.00000
     15       8.0120      2.00000
     16       8.4504      2.00000
     17      18.4344      0.00000
     18      18.4344      0.00000
     19      18.4969      0.00000
     20      19.1982      0.00000
     21      19.2459      0.00000
     22      19.5364      0.00000
     23      20.2636      0.00000
     24      20.2636      0.00000

 k-point   271 :       0.3929    0.3929    0.3929
  band No.  band energies     occupation 
      1      -6.5099      2.00000
      2      -4.8102      2.00000
      3      -4.8102      2.00000
      4      -4.8102      2.00000
      5      -1.8586      2.00000
      6      -1.8586      2.00000
      7      -1.8586      2.00000
      8      -0.3676      2.00000
      9       7.0225      2.00000
     10       7.0225      2.00000
     11       7.0225      2.00000
     12       7.5026      2.00000
     13       7.5026      2.00000
     14       7.5026      2.00000
     15       8.3537      2.00000
     16       8.3537      2.00000
     17      18.6608      0.00000
     18      18.6608      0.00000
     19      18.6608      0.00000
     20      19.2970      0.00000
     21      19.2970      0.00000
     22      19.7375      0.00000
     23      20.3600      0.00000
     24      20.3600      0.00000

 k-point   272 :       0.4643    0.3929    0.3929
  band No.  band energies     occupation 
      1      -6.0284      2.00000
      2      -5.3636      2.00000
      3      -4.6023      2.00000
      4      -4.6023      2.00000
      5      -2.2223      2.00000
      6      -2.2223      2.00000
      7      -1.4778      2.00000
      8      -0.9964      2.00000
      9       7.1481      2.00000
     10       7.1481      2.00000
     11       7.6510      2.00000
     12       7.6510      2.00000
     13       7.7153      2.00000
     14       7.7445      2.00000
     15       8.1135      2.00000
     16       8.2415      2.00000
     17      18.8694      0.00000
     18      18.9824      0.00000
     19      18.9824      0.00000
     20      19.1635      0.00000
     21      19.5464      0.00000
     22      19.7720      0.00000
     23      19.7720      0.00000
     24      19.9023      0.00000

 k-point   273 :      -0.4643    0.3929    0.3929
  band No.  band energies     occupation 
      1      -5.9142      2.00000
      2      -5.5014      2.00000
      3      -4.6083      2.00000
      4      -4.6083      2.00000
      5      -2.2118      2.00000
      6      -2.2118      2.00000
      7      -1.5070      2.00000
      8      -0.9373      2.00000
      9       7.1500      2.00000
     10       7.1500      2.00000
     11       7.6399      2.00000
     12       7.6399      2.00000
     13       7.8119      2.00000
     14       7.8590      2.00000
     15       7.9924      2.00000
     16       8.1419      2.00000
     17      18.9425      0.00000
     18      18.9425      0.00000
     19      18.9778      0.00000
     20      19.0099      0.00000
     21      19.5677      0.00000
     22      19.5896      0.00000
     23      19.7912      0.00000
     24      19.7912      0.00000

 k-point   274 :      -0.3929    0.3929    0.3929
  band No.  band energies     occupation 
      1      -6.4166      2.00000
      2      -4.9731      2.00000
      3      -4.8232      2.00000
      4      -4.8232      2.00000
      5      -1.8547      2.00000
      6      -1.8320      2.00000
      7      -1.8320      2.00000
      8      -0.2830      2.00000
      9       7.0138      2.00000
     10       7.0138      2.00000
     11       7.1209      2.00000
     12       7.4855      2.00000
     13       7.4855      2.00000
     14       7.6056      2.00000
     15       8.2322      2.00000
     16       8.2440      2.00000
     17      18.5975      0.00000
     18      18.5975      0.00000
     19      18.7453      0.00000
     20      19.0872      0.00000
     21      19.3285      0.00000
     22      19.4969      0.00000
     23      20.2403      0.00000
     24      20.2403      0.00000

 k-point   275 :       0.4643    0.4643    0.3929
  band No.  band energies     occupation 
      1      -5.5884      2.00000
      2      -4.9829      2.00000
      3      -4.9829      2.00000
      4      -4.6923      2.00000
      5      -2.2969      2.00000
      6      -2.0120      2.00000
      7      -2.0120      2.00000
      8      -1.5891      2.00000
      9       7.4542      2.00000
     10       7.6277      2.00000
     11       7.6277      2.00000
     12       7.8650      2.00000
     13       7.9230      2.00000
     14       7.9230      2.00000
     15       7.9945      2.00000
     16       8.2442      2.00000
     17      19.0839      0.00000
     18      19.0959      0.00000
     19      19.0959      0.00000
     20      19.3551      0.00000
     21      19.3949      0.00000
     22      19.5503      0.00000
     23      19.5503      0.00000
     24      19.7281      0.00000

 k-point   276 :      -0.4643    0.4643    0.3929
  band No.  band energies     occupation 
      1      -5.4554      2.00000
      2      -5.1441      2.00000
      3      -4.9943      2.00000
      4      -4.6856      2.00000
      5      -2.3008      2.00000
      6      -2.0220      2.00000
      7      -1.9973      2.00000
      8      -1.5467      2.00000
      9       7.4529      2.00000
     10       7.6215      2.00000
     11       7.7364      2.00000
     12       7.8674      2.00000
     13       7.8740      2.00000
     14       7.9155      2.00000
     15       8.0391      2.00000
     16       8.1329      2.00000
     17      19.0514      0.00000
     18      19.1227      0.00000
     19      19.1406      0.00000
     20      19.2467      0.00000
     21      19.3947      0.00000
     22      19.5436      0.00000
     23      19.5828      0.00000
     24      19.6039      0.00000

 k-point   277 :      -0.3929    0.4643    0.3929
  band No.  band energies     occupation 
      1      -5.9209      2.00000
      2      -5.3757      2.00000
      3      -4.7836      2.00000
      4      -4.6036      2.00000
      5      -2.2122      2.00000
      6      -2.2065      2.00000
      7      -1.4564      2.00000
      8      -0.9258      2.00000
      9       7.1224      2.00000
     10       7.2509      2.00000
     11       7.6676      2.00000
     12       7.6948      2.00000
     13       7.7398      2.00000
     14       7.7659      2.00000
     15       7.9948      2.00000
     16       8.1222      2.00000
     17      18.8538      0.00000
     18      18.9736      0.00000
     19      19.0558      0.00000
     20      19.0854      0.00000
     21      19.4402      0.00000
     22      19.5902      0.00000
     23      19.6825      0.00000
     24      19.7841      0.00000

 k-point   278 :      -0.4643   -0.4643    0.3929
  band No.  band energies     occupation 
      1      -5.4627      2.00000
      2      -4.9872      2.00000
      3      -4.9872      2.00000
      4      -4.8677      2.00000
      5      -2.2923      2.00000
      6      -2.0031      2.00000
      7      -2.0031      2.00000
      8      -1.5375      2.00000
      9       7.5693      2.00000
     10       7.6086      2.00000
     11       7.6086      2.00000
     12       7.8749      2.00000
     13       7.9337      2.00000
     14       7.9337      2.00000
     15       7.9815      2.00000
     16       8.1204      2.00000
     17      19.1678      0.00000
     18      19.1678      0.00000
     19      19.1903      0.00000
     20      19.2258      0.00000
     21      19.3487      0.00000
     22      19.3487      0.00000
     23      19.3750      0.00000
     24      19.6367      0.00000

 k-point   279 :       0.4643    0.4643    0.4643
  band No.  band energies     occupation 
      1      -5.2294      2.00000
      2      -4.7693      2.00000
      3      -4.7693      2.00000
      4      -4.7693      2.00000
      5      -2.3873      2.00000
      6      -2.3873      2.00000
      7      -2.3873      2.00000
      8      -2.1075      2.00000
      9       7.9206      2.00000
     10       7.9206      2.00000
     11       7.9206      2.00000
     12       7.9646      2.00000
     13       7.9646      2.00000
     14       7.9646      2.00000
     15       8.1802      2.00000
     16       8.1802      2.00000
     17      19.1314      0.00000
     18      19.1314      0.00000
     19      19.1314      0.00000
     20      19.3501      0.00000
     21      19.3501      0.00000
     22      19.4885      0.00000
     23      19.4885      0.00000
     24      19.4885      0.00000

 k-point   280 :      -0.4643    0.4643    0.4643
  band No.  band energies     occupation 
      1      -5.0724      2.00000
      2      -4.9516      2.00000
      3      -4.7713      2.00000
      4      -4.7713      2.00000
      5      -2.3839      2.00000
      6      -2.3839      2.00000
      7      -2.3795      2.00000
      8      -2.0879      2.00000
      9       7.9071      2.00000
     10       7.9071      2.00000
     11       7.9746      2.00000
     12       7.9746      2.00000
     13       8.0309      2.00000
     14       8.0518      2.00000
     15       8.0685      2.00000
     16       8.0905      2.00000
     17      19.1331      0.00000
     18      19.1500      0.00000
     19      19.1500      0.00000
     20      19.2961      0.00000
     21      19.3691      0.00000
     22      19.3974      0.00000
     23      19.3974      0.00000
     24      19.4745      0.00000


--------------------------------------------------------------------------------------------------------


 soft charge-density along one line, spin component           1
         0         1         2         3         4         5         6         7         8         9
 total charge-density along one line
 
 pseudopotential strength for first ion, spin component:           1
 12.170  20.467  -0.000  -0.000  -0.000  -0.000  -0.000  -0.000
 20.467  34.420  -0.000  -0.000  -0.000  -0.000  -0.000  -0.000
 -0.000  -0.000  -2.970  -0.000  -0.000  -5.306  -0.000  -0.000
 -0.000  -0.000  -0.000  -2.970  -0.000  -0.000  -5.306  -0.000
 -0.000  -0.000  -0.000  -0.000  -2.970  -0.000  -0.000  -5.306
 -0.000  -0.000  -5.306  -0.000  -0.000  -9.460  -0.000  -0.000
 -0.000  -0.000  -0.000  -5.306  -0.000  -0.000  -9.460  -0.000
 -0.000  -0.000  -0.000  -0.000  -5.306  -0.000  -0.000  -9.460
 total augmentation occupancy for first ion, spin component:           1
  7.187  -2.506   0.040   0.040   0.040  -0.017  -0.017  -0.017
 -2.506   0.929  -0.017  -0.017  -0.017   0.007   0.007   0.007
  0.040  -0.017   5.670  -0.023  -0.023  -1.836   0.007   0.007
  0.040  -0.017  -0.023   5.670  -0.023   0.007  -1.836   0.007
  0.040  -0.017  -0.023  -0.023   5.670   0.007   0.007  -1.836
 -0.017   0.007  -1.836   0.007   0.007   0.612  -0.003  -0.003
 -0.017   0.007   0.007  -1.836   0.007  -0.003   0.612  -0.003
 -0.017   0.007   0.007   0.007  -1.836  -0.003  -0.003   0.612


------------------------ aborting loop because EDIFF is reached ----------------------------------------


    CHARGE:  cpu time    0.2100: real time    0.2110
    FORLOC:  cpu time    0.0000: real time    0.0003
    FORNL :  cpu time    0.6399: real time    0.6393
    STRESS:  cpu time    4.0474: real time    4.0558
    FORCOR:  cpu time    0.0030: real time    0.0034
    FORHAR:  cpu time    0.0010: real time    0.0009
    MIXING:  cpu time    0.0000: real time    0.0003
    OFIELD:  cpu time    0.0000: real time    0.0001

  FORCE on cell =-STRESS in cart. coord.  units (eV):
  Direction    XX          YY          ZZ          XY          YZ          ZX
  --------------------------------------------------------------------------------------
  Alpha Z    76.88112    76.88112    76.88112
  Ewald    -463.05801  -463.05801  -463.05801    -3.19271    -3.19271    -3.19271
  Hartree    35.19984    35.19984    35.19984    -0.85621    -0.85621    -0.85621
  E(xc)    -132.03379  -132.03379  -132.03379     0.01065     0.01065     0.01065
  Local    -126.66894  -126.66894  -126.66894     3.90131     3.90131     3.90131
  n-local    28.68876    28.68881    28.78527     0.07260     0.55465    -0.27993
  augment     0.48716     0.48716     0.48716    -0.00237    -0.00237    -0.00237
  Kinetic   577.46559   577.44216   585.39368    -0.53924    -5.46728     2.93265
  Fock        0.00000     0.00000     0.00000     0.00000     0.00000     0.00000
  -------------------------------------------------------------------------------------
  Total      -0.37120    -0.37120    -0.37120    -1.04818    -1.04818    -1.04818
  in kB     -13.03217   -13.03217   -13.03217   -36.79951   -36.79951   -36.79951
  external pressure =      -13.03 kB  Pullay stress =        0.00 kB


 VOLUME and BASIS-vectors are now :
 -----------------------------------------------------------------------------
  energy-cutoff  :      875.00
  volume of cell :       45.64
      direct lattice vectors                 reciprocal lattice vectors
     3.573605071  0.011912017  0.011912017     0.279835664 -0.000929687 -0.000929687
     0.011912017  3.573605071  0.011912017    -0.000929687  0.279835664 -0.000929687
     0.011912017  0.011912017  3.573605071    -0.000929687 -0.000929687  0.279835664

  length of vectors
     3.573644777  3.573644777  3.573644777     0.279838753  0.279838753  0.279838753


 FORCES acting on ions
    electron-ion (+dipol)            ewald-force                    non-local-force                 convergence-correction
 -----------------------------------------------------------------------------------------------
   0.126E+01 0.126E+01 0.126E+01   -.117E+01 -.117E+01 -.117E+01   -.879E-01 -.879E-01 -.879E-01   -.823E-04 -.823E-04 -.823E-04
   -.126E+01 -.126E+01 -.126E+01   0.117E+01 0.117E+01 0.117E+01   0.879E-01 0.879E-01 0.879E-01   0.823E-04 0.823E-04 0.823E-04
   0.126E+01 0.126E+01 0.126E+01   -.117E+01 -.117E+01 -.117E+01   -.879E-01 -.879E-01 -.879E-01   -.823E-04 -.823E-04 -.823E-04
   -.126E+01 -.126E+01 -.126E+01   0.117E+01 0.117E+01 0.117E+01   0.879E-01 0.879E-01 0.879E-01   0.823E-04 0.823E-04 0.823E-04
   0.126E+01 0.126E+01 0.126E+01   -.117E+01 -.117E+01 -.117E+01   -.879E-01 -.879E-01 -.879E-01   -.823E-04 -.823E-04 -.823E-04
   -.126E+01 -.126E+01 -.126E+01   0.117E+01 0.117E+01 0.117E+01   0.879E-01 0.879E-01 0.879E-01   0.823E-04 0.823E-04 0.823E-04
   0.126E+01 0.126E+01 0.126E+01   -.117E+01 -.117E+01 -.117E+01   -.879E-01 -.879E-01 -.879E-01   -.823E-04 -.823E-04 -.823E-04
   -.126E+01 -.126E+01 -.126E+01   0.117E+01 0.117E+01 0.117E+01   0.879E-01 0.879E-01 0.879E-01   0.823E-04 0.823E-04 0.823E-04
 -----------------------------------------------------------------------------------------------
   0.908E-12 0.161E-11 -.189E-11   0.333E-14 0.377E-14 -.333E-14   -.416E-16 0.000E+00 0.555E-16   -.168E-13 -.545E-13 -.390E-13
 
 
 POSITION                                       TOTAL-FORCE (eV/Angst)
 -----------------------------------------------------------------------------------
      0.89916      0.89916      0.89916        -0.000030     -0.000030     -0.000030
      0.00019      0.00019      0.00019         0.000030      0.000030      0.000030
      0.91108      2.69192      2.69192        -0.000030     -0.000030     -0.000030
      0.01211      1.79295      1.79295         0.000030      0.000030      0.000030
      2.69192      0.91108      2.69192        -0.000030     -0.000030     -0.000030
      1.79295      0.01211      1.79295         0.000030      0.000030      0.000030
      2.69192      2.69192      0.91108        -0.000030     -0.000030     -0.000030
      1.79295      1.79295      0.01211         0.000030      0.000030      0.000030
 -----------------------------------------------------------------------------------
    total drift:                                0.000000      0.000000     -0.000000


--------------------------------------------------------------------------------------------------------



  FREE ENERGIE OF THE ION-ELECTRON SYSTEM (eV)
  ---------------------------------------------------
  free  energy   TOTEN  =       -72.83462148 eV

  energy  without entropy=      -72.83462148  energy(sigma->0) =      -72.83462148
 
 d Force = 0.1911406E-03[-0.340E-06, 0.383E-03]  d Energy = 0.1911986E-03-0.580E-07
 d Force =-0.1288936E-01[-0.133E-01,-0.124E-01]  d Ewald  =-0.1289010E-01 0.733E-06


--------------------------------------------------------------------------------------------------------


    POTLOK:  cpu time    0.0120: real time    0.0115


--------------------------------------------------------------------------------------------------------


 stress matrix after NEB project (eV)
     -0.37120     -1.04818     -1.04818
     -1.04818     -0.37120     -1.04818
     -1.04818     -1.04818     -0.37120
  FORCES: max atom, RMS     0.000052    0.000052
  FORCE total and by dimension    0.000147    0.000030
  Stress total and by dimension    2.646788    1.048182


--------------------------------------------------------------------------------------------------------


  
 reached required accuracy - stopping structural energy minimisation
     LOOP+:  cpu time   41.6787: real time   41.8191
    4ORBIT:  cpu time    0.0000: real time    0.0000

 total amount of memory used by VASP MPI-rank0    94461. kBytes
=======================================================================

   base      :      30000. kBytes
   nonl-proj :      48946. kBytes
   fftplans  :        905. kBytes
   grid      :       2114. kBytes
   one-center:         24. kBytes
   wavefun   :      12472. kBytes
 
  
  
 General timing and accounting informations for this job:
 ========================================================
  
                  Total CPU time used (sec):      194.167
                            User time (sec):      192.154
                          System time (sec):        2.014
                         Elapsed time (sec):      205.882
  
                   Maximum memory used (kb):      189476.
                   Average memory used (kb):           0.
  
                          Minor page faults:        47432
                          Major page faults:          363
                 Voluntary context switches:         8734
