<?xml version="1.0" encoding="ISO-8859-1"?>
<modeling>
 <generator>
  <i name="program" type="string">vasp </i>
  <i name="version" type="string">5.4.4.18Apr17-6-g9f103f2a35  </i>
  <i name="subversion" type="string">(build Jan 14 2019 14:48:31) complex            parallel </i>
  <i name="platform" type="string">LinuxIFC </i>
  <i name="date" type="string">2019 08 26 </i>
  <i name="time" type="string">21:07:08 </i>
 </generator>
 <incar>
  <i type="int" name="ISTART">     0</i>
  <i type="string" name="PREC">high     (precision level)</i>
  <i type="logical" name="ADDGRID"> T  </i>
  <i type="int" name="NELM">    40</i>
  <i type="int" name="NELMIN">     4</i>
  <i type="int" name="IBRION">     2</i>
  <i name="EDIFF">      0.00000001</i>
  <i name="EDIFFG">     -0.01000000</i>
  <i type="int" name="NSW">   100</i>
  <i type="int" name="ISIF">     2</i>
  <i type="logical" name="LREAL"> F  </i>
  <i type="int" name="ISMEAR">     0</i>
  <i name="SIGMA">      0.05000000</i>
  <i type="logical" name="LWAVE"> F  </i>
  <i type="logical" name="LCHARG"> F  </i>
  <v type="int" name="KPOINT_BSE">    -1     0     0     0</v>
  <i type="int" name="NELM">    40</i>
 </incar>
 <structure name="primitive_cell" >
  <crystal>
   <varray name="basis" >
    <v>      -0.01191202      -1.79275854      -1.79275854 </v>
    <v>      -1.79275854      -1.79275854      -0.01191202 </v>
    <v>      -1.79275854      -0.01191202      -1.79275854 </v>
   </varray>
   <i name="volume">     11.40893830 </i>
   <varray name="rec_basis" >
    <v>       0.28169504      -0.27983566      -0.27983566 </v>
    <v>      -0.27983566      -0.27983566       0.28169504 </v>
    <v>      -0.27983566       0.28169504      -0.27983566 </v>
   </varray>
  </crystal>
  <varray name="positions" >
   <v>      -0.25000000      -0.25000000      -0.25000000 </v>
   <v>       0.00000000       0.00000000       0.00000000 </v>
  </varray>
 </structure>
 <varray name="primitive_index" >
  <v type="int" >        1 </v>
  <v type="int" >        4 </v>
 </varray>
 <kpoints>
  <generation param="Monkhorst-Pack">
   <v type="int" name="divisions">      14       14       14 </v>
   <v name="usershift">      0.00000000       0.00000000       0.00000000 </v>
   <v name="genvec1">      0.07142857      -0.00000000       0.00000000 </v>
   <v name="genvec2">     -0.00000000       0.07142857       0.00000000 </v>
   <v name="genvec3">      0.00000000       0.00000000       0.07142857 </v>
   <v name="shift">      0.50000000       0.50000000       0.50000000 </v>
  </generation>
  <varray name="kpointlist" >
   <v>       0.03571429       0.03571429       0.03571429 </v>
   <v>       0.10714286       0.03571429       0.03571429 </v>
   <v>       0.17857143       0.03571429       0.03571429 </v>
   <v>       0.25000000       0.03571429       0.03571429 </v>
   <v>       0.32142857       0.03571429       0.03571429 </v>
   <v>       0.39285714       0.03571429       0.03571429 </v>
   <v>       0.46428571       0.03571429       0.03571429 </v>
   <v>      -0.46428571       0.03571429       0.03571429 </v>
   <v>      -0.39285714       0.03571429       0.03571429 </v>
   <v>      -0.32142857       0.03571429       0.03571429 </v>
   <v>      -0.25000000       0.03571429       0.03571429 </v>
   <v>      -0.17857143       0.03571429       0.03571429 </v>
   <v>      -0.10714286       0.03571429       0.03571429 </v>
   <v>      -0.03571429       0.03571429       0.03571429 </v>
   <v>       0.10714286       0.10714286       0.03571429 </v>
   <v>       0.17857143       0.10714286       0.03571429 </v>
   <v>       0.25000000       0.10714286       0.03571429 </v>
   <v>       0.32142857       0.10714286       0.03571429 </v>
   <v>       0.39285714       0.10714286       0.03571429 </v>
   <v>       0.46428571       0.10714286       0.03571429 </v>
   <v>      -0.46428571       0.10714286       0.03571429 </v>
   <v>      -0.39285714       0.10714286       0.03571429 </v>
   <v>      -0.32142857       0.10714286       0.03571429 </v>
   <v>      -0.25000000       0.10714286       0.03571429 </v>
   <v>      -0.17857143       0.10714286       0.03571429 </v>
   <v>      -0.10714286       0.10714286       0.03571429 </v>
   <v>      -0.03571429       0.10714286       0.03571429 </v>
   <v>       0.17857143       0.17857143       0.03571429 </v>
   <v>       0.25000000       0.17857143       0.03571429 </v>
   <v>       0.32142857       0.17857143       0.03571429 </v>
   <v>       0.39285714       0.17857143       0.03571429 </v>
   <v>       0.46428571       0.17857143       0.03571429 </v>
   <v>      -0.46428571       0.17857143       0.03571429 </v>
   <v>      -0.39285714       0.17857143       0.03571429 </v>
   <v>      -0.32142857       0.17857143       0.03571429 </v>
   <v>      -0.25000000       0.17857143       0.03571429 </v>
   <v>      -0.17857143       0.17857143       0.03571429 </v>
   <v>      -0.10714286       0.17857143       0.03571429 </v>
   <v>      -0.03571429       0.17857143       0.03571429 </v>
   <v>       0.25000000       0.25000000       0.03571429 </v>
   <v>       0.32142857       0.25000000       0.03571429 </v>
   <v>       0.39285714       0.25000000       0.03571429 </v>
   <v>       0.46428571       0.25000000       0.03571429 </v>
   <v>      -0.46428571       0.25000000       0.03571429 </v>
   <v>      -0.39285714       0.25000000       0.03571429 </v>
   <v>      -0.32142857       0.25000000       0.03571429 </v>
   <v>      -0.25000000       0.25000000       0.03571429 </v>
   <v>      -0.17857143       0.25000000       0.03571429 </v>
   <v>      -0.10714286       0.25000000       0.03571429 </v>
   <v>      -0.03571429       0.25000000       0.03571429 </v>
   <v>       0.32142857       0.32142857       0.03571429 </v>
   <v>       0.39285714       0.32142857       0.03571429 </v>
   <v>       0.46428571       0.32142857       0.03571429 </v>
   <v>      -0.46428571       0.32142857       0.03571429 </v>
   <v>      -0.39285714       0.32142857       0.03571429 </v>
   <v>      -0.32142857       0.32142857       0.03571429 </v>
   <v>      -0.25000000       0.32142857       0.03571429 </v>
   <v>      -0.17857143       0.32142857       0.03571429 </v>
   <v>      -0.10714286       0.32142857       0.03571429 </v>
   <v>      -0.03571429       0.32142857       0.03571429 </v>
   <v>       0.39285714       0.39285714       0.03571429 </v>
   <v>       0.46428571       0.39285714       0.03571429 </v>
   <v>      -0.46428571       0.39285714       0.03571429 </v>
   <v>      -0.39285714       0.39285714       0.03571429 </v>
   <v>      -0.32142857       0.39285714       0.03571429 </v>
   <v>      -0.25000000       0.39285714       0.03571429 </v>
   <v>      -0.17857143       0.39285714       0.03571429 </v>
   <v>      -0.10714286       0.39285714       0.03571429 </v>
   <v>      -0.03571429       0.39285714       0.03571429 </v>
   <v>       0.46428571       0.46428571       0.03571429 </v>
   <v>      -0.46428571       0.46428571       0.03571429 </v>
   <v>      -0.39285714       0.46428571       0.03571429 </v>
   <v>      -0.32142857       0.46428571       0.03571429 </v>
   <v>      -0.25000000       0.46428571       0.03571429 </v>
   <v>      -0.17857143       0.46428571       0.03571429 </v>
   <v>      -0.10714286       0.46428571       0.03571429 </v>
   <v>      -0.03571429       0.46428571       0.03571429 </v>
   <v>      -0.46428571      -0.46428571       0.03571429 </v>
   <v>      -0.39285714      -0.46428571       0.03571429 </v>
   <v>      -0.32142857      -0.46428571       0.03571429 </v>
   <v>      -0.25000000      -0.46428571       0.03571429 </v>
   <v>      -0.17857143      -0.46428571       0.03571429 </v>
   <v>      -0.10714286      -0.46428571       0.03571429 </v>
   <v>      -0.39285714      -0.39285714       0.03571429 </v>
   <v>      -0.32142857      -0.39285714       0.03571429 </v>
   <v>      -0.25000000      -0.39285714       0.03571429 </v>
   <v>      -0.17857143      -0.39285714       0.03571429 </v>
   <v>      -0.10714286      -0.39285714       0.03571429 </v>
   <v>      -0.32142857      -0.32142857       0.03571429 </v>
   <v>      -0.25000000      -0.32142857       0.03571429 </v>
   <v>      -0.17857143      -0.32142857       0.03571429 </v>
   <v>      -0.10714286      -0.32142857       0.03571429 </v>
   <v>      -0.25000000      -0.25000000       0.03571429 </v>
   <v>      -0.17857143      -0.25000000       0.03571429 </v>
   <v>      -0.10714286      -0.25000000       0.03571429 </v>
   <v>      -0.17857143      -0.17857143       0.03571429 </v>
   <v>      -0.10714286      -0.17857143       0.03571429 </v>
   <v>      -0.10714286      -0.10714286       0.03571429 </v>
   <v>       0.10714286       0.10714286       0.10714286 </v>
   <v>       0.17857143       0.10714286       0.10714286 </v>
   <v>       0.25000000       0.10714286       0.10714286 </v>
   <v>       0.32142857       0.10714286       0.10714286 </v>
   <v>       0.39285714       0.10714286       0.10714286 </v>
   <v>       0.46428571       0.10714286       0.10714286 </v>
   <v>      -0.46428571       0.10714286       0.10714286 </v>
   <v>      -0.39285714       0.10714286       0.10714286 </v>
   <v>      -0.32142857       0.10714286       0.10714286 </v>
   <v>      -0.25000000       0.10714286       0.10714286 </v>
   <v>      -0.17857143       0.10714286       0.10714286 </v>
   <v>      -0.10714286       0.10714286       0.10714286 </v>
   <v>       0.17857143       0.17857143       0.10714286 </v>
   <v>       0.25000000       0.17857143       0.10714286 </v>
   <v>       0.32142857       0.17857143       0.10714286 </v>
   <v>       0.39285714       0.17857143       0.10714286 </v>
   <v>       0.46428571       0.17857143       0.10714286 </v>
   <v>      -0.46428571       0.17857143       0.10714286 </v>
   <v>      -0.39285714       0.17857143       0.10714286 </v>
   <v>      -0.32142857       0.17857143       0.10714286 </v>
   <v>      -0.25000000       0.17857143       0.10714286 </v>
   <v>      -0.17857143       0.17857143       0.10714286 </v>
   <v>      -0.10714286       0.17857143       0.10714286 </v>
   <v>       0.25000000       0.25000000       0.10714286 </v>
   <v>       0.32142857       0.25000000       0.10714286 </v>
   <v>       0.39285714       0.25000000       0.10714286 </v>
   <v>       0.46428571       0.25000000       0.10714286 </v>
   <v>      -0.46428571       0.25000000       0.10714286 </v>
   <v>      -0.39285714       0.25000000       0.10714286 </v>
   <v>      -0.32142857       0.25000000       0.10714286 </v>
   <v>      -0.25000000       0.25000000       0.10714286 </v>
   <v>      -0.17857143       0.25000000       0.10714286 </v>
   <v>      -0.10714286       0.25000000       0.10714286 </v>
   <v>       0.32142857       0.32142857       0.10714286 </v>
   <v>       0.39285714       0.32142857       0.10714286 </v>
   <v>       0.46428571       0.32142857       0.10714286 </v>
   <v>      -0.46428571       0.32142857       0.10714286 </v>
   <v>      -0.39285714       0.32142857       0.10714286 </v>
   <v>      -0.32142857       0.32142857       0.10714286 </v>
   <v>      -0.25000000       0.32142857       0.10714286 </v>
   <v>      -0.17857143       0.32142857       0.10714286 </v>
   <v>      -0.10714286       0.32142857       0.10714286 </v>
   <v>       0.39285714       0.39285714       0.10714286 </v>
   <v>       0.46428571       0.39285714       0.10714286 </v>
   <v>      -0.46428571       0.39285714       0.10714286 </v>
   <v>      -0.39285714       0.39285714       0.10714286 </v>
   <v>      -0.32142857       0.39285714       0.10714286 </v>
   <v>      -0.25000000       0.39285714       0.10714286 </v>
   <v>      -0.17857143       0.39285714       0.10714286 </v>
   <v>      -0.10714286       0.39285714       0.10714286 </v>
   <v>       0.46428571       0.46428571       0.10714286 </v>
   <v>      -0.46428571       0.46428571       0.10714286 </v>
   <v>      -0.39285714       0.46428571       0.10714286 </v>
   <v>      -0.32142857       0.46428571       0.10714286 </v>
   <v>      -0.25000000       0.46428571       0.10714286 </v>
   <v>      -0.17857143       0.46428571       0.10714286 </v>
   <v>      -0.10714286       0.46428571       0.10714286 </v>
   <v>      -0.46428571      -0.46428571       0.10714286 </v>
   <v>      -0.39285714      -0.46428571       0.10714286 </v>
   <v>      -0.32142857      -0.46428571       0.10714286 </v>
   <v>      -0.25000000      -0.46428571       0.10714286 </v>
   <v>      -0.17857143      -0.46428571       0.10714286 </v>
   <v>      -0.39285714      -0.39285714       0.10714286 </v>
   <v>      -0.32142857      -0.39285714       0.10714286 </v>
   <v>      -0.25000000      -0.39285714       0.10714286 </v>
   <v>      -0.17857143      -0.39285714       0.10714286 </v>
   <v>      -0.32142857      -0.32142857       0.10714286 </v>
   <v>      -0.25000000      -0.32142857       0.10714286 </v>
   <v>      -0.17857143      -0.32142857       0.10714286 </v>
   <v>      -0.25000000      -0.25000000       0.10714286 </v>
   <v>      -0.17857143      -0.25000000       0.10714286 </v>
   <v>      -0.17857143      -0.17857143       0.10714286 </v>
   <v>       0.17857143       0.17857143       0.17857143 </v>
   <v>       0.25000000       0.17857143       0.17857143 </v>
   <v>       0.32142857       0.17857143       0.17857143 </v>
   <v>       0.39285714       0.17857143       0.17857143 </v>
   <v>       0.46428571       0.17857143       0.17857143 </v>
   <v>      -0.46428571       0.17857143       0.17857143 </v>
   <v>      -0.39285714       0.17857143       0.17857143 </v>
   <v>      -0.32142857       0.17857143       0.17857143 </v>
   <v>      -0.25000000       0.17857143       0.17857143 </v>
   <v>      -0.17857143       0.17857143       0.17857143 </v>
   <v>       0.25000000       0.25000000       0.17857143 </v>
   <v>       0.32142857       0.25000000       0.17857143 </v>
   <v>       0.39285714       0.25000000       0.17857143 </v>
   <v>       0.46428571       0.25000000       0.17857143 </v>
   <v>      -0.46428571       0.25000000       0.17857143 </v>
   <v>      -0.39285714       0.25000000       0.17857143 </v>
   <v>      -0.32142857       0.25000000       0.17857143 </v>
   <v>      -0.25000000       0.25000000       0.17857143 </v>
   <v>      -0.17857143       0.25000000       0.17857143 </v>
   <v>       0.32142857       0.32142857       0.17857143 </v>
   <v>       0.39285714       0.32142857       0.17857143 </v>
   <v>       0.46428571       0.32142857       0.17857143 </v>
   <v>      -0.46428571       0.32142857       0.17857143 </v>
   <v>      -0.39285714       0.32142857       0.17857143 </v>
   <v>      -0.32142857       0.32142857       0.17857143 </v>
   <v>      -0.25000000       0.32142857       0.17857143 </v>
   <v>      -0.17857143       0.32142857       0.17857143 </v>
   <v>       0.39285714       0.39285714       0.17857143 </v>
   <v>       0.46428571       0.39285714       0.17857143 </v>
   <v>      -0.46428571       0.39285714       0.17857143 </v>
   <v>      -0.39285714       0.39285714       0.17857143 </v>
   <v>      -0.32142857       0.39285714       0.17857143 </v>
   <v>      -0.25000000       0.39285714       0.17857143 </v>
   <v>      -0.17857143       0.39285714       0.17857143 </v>
   <v>       0.46428571       0.46428571       0.17857143 </v>
   <v>      -0.46428571       0.46428571       0.17857143 </v>
   <v>      -0.39285714       0.46428571       0.17857143 </v>
   <v>      -0.32142857       0.46428571       0.17857143 </v>
   <v>      -0.25000000       0.46428571       0.17857143 </v>
   <v>      -0.17857143       0.46428571       0.17857143 </v>
   <v>      -0.46428571      -0.46428571       0.17857143 </v>
   <v>      -0.39285714      -0.46428571       0.17857143 </v>
   <v>      -0.32142857      -0.46428571       0.17857143 </v>
   <v>      -0.25000000      -0.46428571       0.17857143 </v>
   <v>      -0.39285714      -0.39285714       0.17857143 </v>
   <v>      -0.32142857      -0.39285714       0.17857143 </v>
   <v>      -0.25000000      -0.39285714       0.17857143 </v>
   <v>      -0.32142857      -0.32142857       0.17857143 </v>
   <v>      -0.25000000      -0.32142857       0.17857143 </v>
   <v>      -0.25000000      -0.25000000       0.17857143 </v>
   <v>       0.25000000       0.25000000       0.25000000 </v>
   <v>       0.32142857       0.25000000       0.25000000 </v>
   <v>       0.39285714       0.25000000       0.25000000 </v>
   <v>       0.46428571       0.25000000       0.25000000 </v>
   <v>      -0.46428571       0.25000000       0.25000000 </v>
   <v>      -0.39285714       0.25000000       0.25000000 </v>
   <v>      -0.32142857       0.25000000       0.25000000 </v>
   <v>      -0.25000000       0.25000000       0.25000000 </v>
   <v>       0.32142857       0.32142857       0.25000000 </v>
   <v>       0.39285714       0.32142857       0.25000000 </v>
   <v>       0.46428571       0.32142857       0.25000000 </v>
   <v>      -0.46428571       0.32142857       0.25000000 </v>
   <v>      -0.39285714       0.32142857       0.25000000 </v>
   <v>      -0.32142857       0.32142857       0.25000000 </v>
   <v>      -0.25000000       0.32142857       0.25000000 </v>
   <v>       0.39285714       0.39285714       0.25000000 </v>
   <v>       0.46428571       0.39285714       0.25000000 </v>
   <v>      -0.46428571       0.39285714       0.25000000 </v>
   <v>      -0.39285714       0.39285714       0.25000000 </v>
   <v>      -0.32142857       0.39285714       0.25000000 </v>
   <v>      -0.25000000       0.39285714       0.25000000 </v>
   <v>       0.46428571       0.46428571       0.25000000 </v>
   <v>      -0.46428571       0.46428571       0.25000000 </v>
   <v>      -0.39285714       0.46428571       0.25000000 </v>
   <v>      -0.32142857       0.46428571       0.25000000 </v>
   <v>      -0.25000000       0.46428571       0.25000000 </v>
   <v>      -0.46428571      -0.46428571       0.25000000 </v>
   <v>      -0.39285714      -0.46428571       0.25000000 </v>
   <v>      -0.32142857      -0.46428571       0.25000000 </v>
   <v>      -0.39285714      -0.39285714       0.25000000 </v>
   <v>      -0.32142857      -0.39285714       0.25000000 </v>
   <v>      -0.32142857      -0.32142857       0.25000000 </v>
   <v>       0.32142857       0.32142857       0.32142857 </v>
   <v>       0.39285714       0.32142857       0.32142857 </v>
   <v>       0.46428571       0.32142857       0.32142857 </v>
   <v>      -0.46428571       0.32142857       0.32142857 </v>
   <v>      -0.39285714       0.32142857       0.32142857 </v>
   <v>      -0.32142857       0.32142857       0.32142857 </v>
   <v>       0.39285714       0.39285714       0.32142857 </v>
   <v>       0.46428571       0.39285714       0.32142857 </v>
   <v>      -0.46428571       0.39285714       0.32142857 </v>
   <v>      -0.39285714       0.39285714       0.32142857 </v>
   <v>      -0.32142857       0.39285714       0.32142857 </v>
   <v>       0.46428571       0.46428571       0.32142857 </v>
   <v>      -0.46428571       0.46428571       0.32142857 </v>
   <v>      -0.39285714       0.46428571       0.32142857 </v>
   <v>      -0.32142857       0.46428571       0.32142857 </v>
   <v>      -0.46428571      -0.46428571       0.32142857 </v>
   <v>      -0.39285714      -0.46428571       0.32142857 </v>
   <v>      -0.39285714      -0.39285714       0.32142857 </v>
   <v>       0.39285714       0.39285714       0.39285714 </v>
   <v>       0.46428571       0.39285714       0.39285714 </v>
   <v>      -0.46428571       0.39285714       0.39285714 </v>
   <v>      -0.39285714       0.39285714       0.39285714 </v>
   <v>       0.46428571       0.46428571       0.39285714 </v>
   <v>      -0.46428571       0.46428571       0.39285714 </v>
   <v>      -0.39285714       0.46428571       0.39285714 </v>
   <v>      -0.46428571      -0.46428571       0.39285714 </v>
   <v>       0.46428571       0.46428571       0.46428571 </v>
   <v>      -0.46428571       0.46428571       0.46428571 </v>
  </varray>
  <varray name="weights" >
   <v>       0.00072886 </v>
   <v>       0.00218659 </v>
   <v>       0.00218659 </v>
   <v>       0.00218659 </v>
   <v>       0.00218659 </v>
   <v>       0.00218659 </v>
   <v>       0.00218659 </v>
   <v>       0.00218659 </v>
   <v>       0.00218659 </v>
   <v>       0.00218659 </v>
   <v>       0.00218659 </v>
   <v>       0.00218659 </v>
   <v>       0.00218659 </v>
   <v>       0.00218659 </v>
   <v>       0.00218659 </v>
   <v>       0.00437318 </v>
   <v>       0.00437318 </v>
   <v>       0.00437318 </v>
   <v>       0.00437318 </v>
   <v>       0.00437318 </v>
   <v>       0.00437318 </v>
   <v>       0.00437318 </v>
   <v>       0.00437318 </v>
   <v>       0.00437318 </v>
   <v>       0.00437318 </v>
   <v>       0.00437318 </v>
   <v>       0.00437318 </v>
   <v>       0.00218659 </v>
   <v>       0.00437318 </v>
   <v>       0.00437318 </v>
   <v>       0.00437318 </v>
   <v>       0.00437318 </v>
   <v>       0.00437318 </v>
   <v>       0.00437318 </v>
   <v>       0.00437318 </v>
   <v>       0.00437318 </v>
   <v>       0.00437318 </v>
   <v>       0.00437318 </v>
   <v>       0.00437318 </v>
   <v>       0.00218659 </v>
   <v>       0.00437318 </v>
   <v>       0.00437318 </v>
   <v>       0.00437318 </v>
   <v>       0.00437318 </v>
   <v>       0.00437318 </v>
   <v>       0.00437318 </v>
   <v>       0.00437318 </v>
   <v>       0.00437318 </v>
   <v>       0.00437318 </v>
   <v>       0.00437318 </v>
   <v>       0.00218659 </v>
   <v>       0.00437318 </v>
   <v>       0.00437318 </v>
   <v>       0.00437318 </v>
   <v>       0.00437318 </v>
   <v>       0.00437318 </v>
   <v>       0.00437318 </v>
   <v>       0.00437318 </v>
   <v>       0.00437318 </v>
   <v>       0.00437318 </v>
   <v>       0.00218659 </v>
   <v>       0.00437318 </v>
   <v>       0.00437318 </v>
   <v>       0.00437318 </v>
   <v>       0.00437318 </v>
   <v>       0.00437318 </v>
   <v>       0.00437318 </v>
   <v>       0.00437318 </v>
   <v>       0.00437318 </v>
   <v>       0.00218659 </v>
   <v>       0.00437318 </v>
   <v>       0.00437318 </v>
   <v>       0.00437318 </v>
   <v>       0.00437318 </v>
   <v>       0.00437318 </v>
   <v>       0.00437318 </v>
   <v>       0.00437318 </v>
   <v>       0.00218659 </v>
   <v>       0.00437318 </v>
   <v>       0.00437318 </v>
   <v>       0.00437318 </v>
   <v>       0.00437318 </v>
   <v>       0.00437318 </v>
   <v>       0.00218659 </v>
   <v>       0.00437318 </v>
   <v>       0.00437318 </v>
   <v>       0.00437318 </v>
   <v>       0.00437318 </v>
   <v>       0.00218659 </v>
   <v>       0.00437318 </v>
   <v>       0.00437318 </v>
   <v>       0.00437318 </v>
   <v>       0.00218659 </v>
   <v>       0.00437318 </v>
   <v>       0.00437318 </v>
   <v>       0.00218659 </v>
   <v>       0.00437318 </v>
   <v>       0.00218659 </v>
   <v>       0.00072886 </v>
   <v>       0.00218659 </v>
   <v>       0.00218659 </v>
   <v>       0.00218659 </v>
   <v>       0.00218659 </v>
   <v>       0.00218659 </v>
   <v>       0.00218659 </v>
   <v>       0.00218659 </v>
   <v>       0.00218659 </v>
   <v>       0.00218659 </v>
   <v>       0.00218659 </v>
   <v>       0.00218659 </v>
   <v>       0.00218659 </v>
   <v>       0.00437318 </v>
   <v>       0.00437318 </v>
   <v>       0.00437318 </v>
   <v>       0.00437318 </v>
   <v>       0.00437318 </v>
   <v>       0.00437318 </v>
   <v>       0.00437318 </v>
   <v>       0.00437318 </v>
   <v>       0.00437318 </v>
   <v>       0.00437318 </v>
   <v>       0.00218659 </v>
   <v>       0.00437318 </v>
   <v>       0.00437318 </v>
   <v>       0.00437318 </v>
   <v>       0.00437318 </v>
   <v>       0.00437318 </v>
   <v>       0.00437318 </v>
   <v>       0.00437318 </v>
   <v>       0.00437318 </v>
   <v>       0.00437318 </v>
   <v>       0.00218659 </v>
   <v>       0.00437318 </v>
   <v>       0.00437318 </v>
   <v>       0.00437318 </v>
   <v>       0.00437318 </v>
   <v>       0.00437318 </v>
   <v>       0.00437318 </v>
   <v>       0.00437318 </v>
   <v>       0.00437318 </v>
   <v>       0.00218659 </v>
   <v>       0.00437318 </v>
   <v>       0.00437318 </v>
   <v>       0.00437318 </v>
   <v>       0.00437318 </v>
   <v>       0.00437318 </v>
   <v>       0.00437318 </v>
   <v>       0.00437318 </v>
   <v>       0.00218659 </v>
   <v>       0.00437318 </v>
   <v>       0.00437318 </v>
   <v>       0.00437318 </v>
   <v>       0.00437318 </v>
   <v>       0.00437318 </v>
   <v>       0.00437318 </v>
   <v>       0.00218659 </v>
   <v>       0.00437318 </v>
   <v>       0.00437318 </v>
   <v>       0.00437318 </v>
   <v>       0.00437318 </v>
   <v>       0.00218659 </v>
   <v>       0.00437318 </v>
   <v>       0.00437318 </v>
   <v>       0.00437318 </v>
   <v>       0.00218659 </v>
   <v>       0.00437318 </v>
   <v>       0.00437318 </v>
   <v>       0.00218659 </v>
   <v>       0.00437318 </v>
   <v>       0.00218659 </v>
   <v>       0.00072886 </v>
   <v>       0.00218659 </v>
   <v>       0.00218659 </v>
   <v>       0.00218659 </v>
   <v>       0.00218659 </v>
   <v>       0.00218659 </v>
   <v>       0.00218659 </v>
   <v>       0.00218659 </v>
   <v>       0.00218659 </v>
   <v>       0.00218659 </v>
   <v>       0.00218659 </v>
   <v>       0.00437318 </v>
   <v>       0.00437318 </v>
   <v>       0.00437318 </v>
   <v>       0.00437318 </v>
   <v>       0.00437318 </v>
   <v>       0.00437318 </v>
   <v>       0.00437318 </v>
   <v>       0.00437318 </v>
   <v>       0.00218659 </v>
   <v>       0.00437318 </v>
   <v>       0.00437318 </v>
   <v>       0.00437318 </v>
   <v>       0.00437318 </v>
   <v>       0.00437318 </v>
   <v>       0.00437318 </v>
   <v>       0.00437318 </v>
   <v>       0.00218659 </v>
   <v>       0.00437318 </v>
   <v>       0.00437318 </v>
   <v>       0.00437318 </v>
   <v>       0.00437318 </v>
   <v>       0.00437318 </v>
   <v>       0.00437318 </v>
   <v>       0.00218659 </v>
   <v>       0.00437318 </v>
   <v>       0.00437318 </v>
   <v>       0.00437318 </v>
   <v>       0.00437318 </v>
   <v>       0.00437318 </v>
   <v>       0.00218659 </v>
   <v>       0.00437318 </v>
   <v>       0.00437318 </v>
   <v>       0.00437318 </v>
   <v>       0.00218659 </v>
   <v>       0.00437318 </v>
   <v>       0.00437318 </v>
   <v>       0.00218659 </v>
   <v>       0.00437318 </v>
   <v>       0.00218659 </v>
   <v>       0.00072886 </v>
   <v>       0.00218659 </v>
   <v>       0.00218659 </v>
   <v>       0.00218659 </v>
   <v>       0.00218659 </v>
   <v>       0.00218659 </v>
   <v>       0.00218659 </v>
   <v>       0.00218659 </v>
   <v>       0.00218659 </v>
   <v>       0.00437318 </v>
   <v>       0.00437318 </v>
   <v>       0.00437318 </v>
   <v>       0.00437318 </v>
   <v>       0.00437318 </v>
   <v>       0.00437318 </v>
   <v>       0.00218659 </v>
   <v>       0.00437318 </v>
   <v>       0.00437318 </v>
   <v>       0.00437318 </v>
   <v>       0.00437318 </v>
   <v>       0.00437318 </v>
   <v>       0.00218659 </v>
   <v>       0.00437318 </v>
   <v>       0.00437318 </v>
   <v>       0.00437318 </v>
   <v>       0.00437318 </v>
   <v>       0.00218659 </v>
   <v>       0.00437318 </v>
   <v>       0.00437318 </v>
   <v>       0.00218659 </v>
   <v>       0.00437318 </v>
   <v>       0.00218659 </v>
   <v>       0.00072886 </v>
   <v>       0.00218659 </v>
   <v>       0.00218659 </v>
   <v>       0.00218659 </v>
   <v>       0.00218659 </v>
   <v>       0.00218659 </v>
   <v>       0.00218659 </v>
   <v>       0.00437318 </v>
   <v>       0.00437318 </v>
   <v>       0.00437318 </v>
   <v>       0.00437318 </v>
   <v>       0.00218659 </v>
   <v>       0.00437318 </v>
   <v>       0.00437318 </v>
   <v>       0.00437318 </v>
   <v>       0.00218659 </v>
   <v>       0.00437318 </v>
   <v>       0.00218659 </v>
   <v>       0.00072886 </v>
   <v>       0.00218659 </v>
   <v>       0.00218659 </v>
   <v>       0.00218659 </v>
   <v>       0.00218659 </v>
   <v>       0.00437318 </v>
   <v>       0.00437318 </v>
   <v>       0.00218659 </v>
   <v>       0.00072886 </v>
   <v>       0.00218659 </v>
  </varray>
 </kpoints>
 <parameters>
  <separator name="general" >
   <i type="string" name="SYSTEM">unknown system</i>
   <i type="logical" name="LCOMPAT"> F  </i>
  </separator>
  <separator name="electronic" >
   <i type="string" name="PREC">high</i>
   <i name="ENMAX">    875.00000000</i>
   <i name="ENAUG">    946.76800000</i>
   <i name="EDIFF">      0.00000001</i>
   <i type="int" name="IALGO">    38</i>
   <i type="int" name="IWAVPR">    11</i>
   <i type="int" name="NBANDS">    24</i>
   <i name="NELECT">     32.00000000</i>
   <i type="int" name="TURBO">     0</i>
   <i type="int" name="IRESTART">     0</i>
   <i type="int" name="NREBOOT">     0</i>
   <i type="int" name="NMIN">     0</i>
   <i name="EREF">      0.00000000</i>
   <separator name="electronic smearing" >
    <i type="int" name="ISMEAR">     0</i>
    <i name="SIGMA">      0.05000000</i>
    <i name="KSPACING">      0.50000000</i>
    <i type="logical" name="KGAMMA"> T  </i>
   </separator>
   <separator name="electronic projectors" >
    <i type="logical" name="LREAL"> F  </i>
    <v name="ROPT">      0.00000000</v>
    <i type="int" name="LMAXPAW">  -100</i>
    <i type="int" name="LMAXMIX">     2</i>
    <i type="logical" name="NLSPLINE"> F  </i>
   </separator>
   <separator name="electronic startup" >
    <i type="int" name="ISTART">     0</i>
    <i type="int" name="ICHARG">     2</i>
    <i type="int" name="INIWAV">     1</i>
   </separator>
   <separator name="electronic spin" >
    <i type="int" name="ISPIN">     1</i>
    <i type="logical" name="LNONCOLLINEAR"> F  </i>
    <v name="MAGMOM">      1.00000000      1.00000000      1.00000000      1.00000000      1.00000000      1.00000000      1.00000000      1.00000000</v>
    <i name="NUPDOWN">     -1.00000000</i>
    <i type="logical" name="LSORBIT"> F  </i>
    <v name="SAXIS">      0.00000000      0.00000000      1.00000000</v>
    <i type="logical" name="LSPIRAL"> F  </i>
    <v name="QSPIRAL">      0.00000000      0.00000000      0.00000000</v>
    <i type="logical" name="LZEROZ"> F  </i>
   </separator>
   <separator name="electronic exchange-correlation" >
    <i type="logical" name="LASPH"> F  </i>
    <i type="logical" name="LMETAGGA"> F  </i>
   </separator>
   <separator name="electronic convergence" >
    <i type="int" name="NELM">    40</i>
    <i type="int" name="NELMDL">    -5</i>
    <i type="int" name="NELMIN">     4</i>
    <i name="ENINI">    875.00000000</i>
    <separator name="electronic convergence detail" >
     <i type="logical" name="LDIAG"> T  </i>
     <i type="logical" name="LSUBROT"> F  </i>
     <i name="WEIMIN">      0.00100000</i>
     <i name="EBREAK">      0.00000000</i>
     <i name="DEPER">      0.30000000</i>
     <i type="int" name="NRMM">     4</i>
     <i name="TIME">      0.40000000</i>
    </separator>
   </separator>
   <separator name="electronic mixer" >
    <i name="AMIX">      0.40000000</i>
    <i name="BMIX">      1.00000000</i>
    <i name="AMIN">      0.10000000</i>
    <i name="AMIX_MAG">      1.60000000</i>
    <i name="BMIX_MAG">      1.00000000</i>
    <separator name="electronic mixer details" >
     <i type="int" name="IMIX">     4</i>
     <i type="logical" name="MIXFIRST"> F  </i>
     <i type="int" name="MAXMIX">   -45</i>
     <i name="WC">    100.00000000</i>
     <i type="int" name="INIMIX">     1</i>
     <i type="int" name="MIXPRE">     1</i>
     <i type="int" name="MREMOVE">     5</i>
    </separator>
   </separator>
   <separator name="electronic dipolcorrection" >
    <i type="logical" name="LDIPOL"> F  </i>
    <i type="logical" name="LMONO"> F  </i>
    <i type="int" name="IDIPOL">     0</i>
    <i name="EPSILON">      1.00000000</i>
    <v name="DIPOL">   -100.00000000   -100.00000000   -100.00000000</v>
    <i name="EFIELD">      0.00000000</i>
   </separator>
  </separator>
  <separator name="grids" >
   <i type="int" name="NGX">    36</i>
   <i type="int" name="NGY">    36</i>
   <i type="int" name="NGZ">    36</i>
   <i type="int" name="NGXF">    48</i>
   <i type="int" name="NGYF">    48</i>
   <i type="int" name="NGZF">    48</i>
   <i type="logical" name="ADDGRID"> T  </i>
  </separator>
  <separator name="ionic" >
   <i type="int" name="NSW">   100</i>
   <i type="int" name="IBRION">     2</i>
   <i type="int" name="MDALGO">     0</i>
   <i type="int" name="ISIF">     2</i>
   <i name="PSTRESS">      0.00000000</i>
   <i name="EDIFFG">     -0.01000000</i>
   <i type="int" name="NFREE">     1</i>
   <i name="POTIM">      0.50000000</i>
   <i name="SMASS">     -3.00000000</i>
   <i name="SCALEE">      1.00000000</i>
  </separator>
  <separator name="ionic md" >
   <i name="TEBEG">      0.00010000</i>
   <i name="TEEND">      0.00010000</i>
   <i type="int" name="NBLOCK">     1</i>
   <i type="int" name="KBLOCK">   100</i>
   <i type="int" name="NPACO">   256</i>
   <i name="APACO">     16.00000000</i>
  </separator>
  <separator name="symmetry" >
   <i type="int" name="ISYM">     2</i>
   <i name="SYMPREC">      0.00001000</i>
  </separator>
  <separator name="dos" >
   <i type="int" name="LORBIT">     0</i>
   <v name="RWIGS">     -1.00000000</v>
   <i type="int" name="NEDOS">   301</i>
   <i name="EMIN">     10.00000000</i>
   <i name="EMAX">    -10.00000000</i>
   <i name="EFERMI">      0.00000000</i>
  </separator>
  <separator name="writing" >
   <i type="int" name="NWRITE">     2</i>
   <i type="logical" name="LWAVE"> F  </i>
   <i type="logical" name="LDOWNSAMPLE"> F  </i>
   <i type="logical" name="LCHARG"> F  </i>
   <i type="logical" name="LPARD"> F  </i>
   <i type="logical" name="LVTOT"> F  </i>
   <i type="logical" name="LVHAR"> F  </i>
   <i type="logical" name="LELF"> F  </i>
   <i type="logical" name="LOPTICS"> F  </i>
   <v name="STM">      0.00000000      0.00000000      0.00000000      0.00000000      0.00000000      0.00000000      0.00000000</v>
  </separator>
  <separator name="performance" >
   <i type="int" name="NPAR">    24</i>
   <i type="int" name="NSIM">     4</i>
   <i type="int" name="NBLK">    -1</i>
   <i type="logical" name="LPLANE"> T  </i>
   <i type="logical" name="LSCALAPACK"> T  </i>
   <i type="logical" name="LSCAAWARE"> F  </i>
   <i type="logical" name="LSCALU"> F  </i>
   <i type="logical" name="LASYNC"> F  </i>
   <i type="logical" name="LORBITALREAL"> F  </i>
  </separator>
  <separator name="miscellaneous" >
   <i type="int" name="IDIOT">     3</i>
   <i type="int" name="ISPECIAL">     0</i>
   <i type="logical" name="LMUSIC"> F  </i>
   <v name="POMASS">     12.01100000</v>
   <v name="DARWINR">      0.00000000</v>
   <v name="DARWINV">      1.00000000</v>
   <i type="logical" name="LCORR"> T  </i>
  </separator>
  <i type="logical" name="GGA_COMPAT"> T  </i>
  <i type="logical" name="LBERRY"> F  </i>
  <i type="int" name="ICORELEVEL">     0</i>
  <i type="logical" name="LDAU"> F  </i>
  <i type="int" name="I_CONSTRAINED_M">     0</i>
  <separator name="electronic exchange-correlation" >
   <i type="string" name="GGA">--</i>
   <i type="int" name="VOSKOWN">     0</i>
   <i type="logical" name="LHFCALC"> F  </i>
   <i type="string" name="PRECFOCK"></i>
   <i type="logical" name="LSYMGRAD"> F  </i>
   <i type="logical" name="LHFONE"> F  </i>
   <i type="logical" name="LRHFCALC"> F  </i>
   <i type="logical" name="LTHOMAS"> F  </i>
   <i type="logical" name="LMODELHF"> F  </i>
   <i name="ENCUT4O">     -1.00000000</i>
   <i type="int" name="EXXOEP">     0</i>
   <i type="int" name="FOURORBIT">     0</i>
   <i name="AEXX">      0.00000000</i>
   <i name="HFALPHA">      0.00000000</i>
   <i name="MCALPHA">      0.00000000</i>
   <i name="ALDAX">      1.00000000</i>
   <i name="AGGAX">      1.00000000</i>
   <i name="ALDAC">      1.00000000</i>
   <i name="AGGAC">      1.00000000</i>
   <i type="int" name="NKREDX">     1</i>
   <i type="int" name="NKREDY">     1</i>
   <i type="int" name="NKREDZ">     1</i>
   <i type="logical" name="SHIFTRED"> F  </i>
   <i type="logical" name="ODDONLY"> F  </i>
   <i type="logical" name="EVENONLY"> F  </i>
   <i type="int" name="LMAXFOCK">     0</i>
   <i type="int" name="NMAXFOCKAE">     0</i>
   <i type="logical" name="LFOCKAEDFT"> F  </i>
   <i name="HFSCREEN">      0.00000000</i>
   <i name="HFSCREENC">      0.00000000</i>
   <i type="int" name="NBANDSGWLOW">     0</i>
  </separator>
  <separator name="vdW DFT" >
   <i type="logical" name="LUSE_VDW"> F  </i>
   <i name="Zab_VDW">     -0.84910000</i>
   <i name="PARAM1">      0.12340000</i>
   <i name="PARAM2">      1.00000000</i>
   <i name="PARAM3">      0.00000000</i>
  </separator>
  <separator name="model GW" >
   <i type="int" name="MODEL_GW">     0</i>
   <i name="MODEL_EPS0">      3.42268149</i>
   <i name="MODEL_ALPHA">      1.00000000</i>
  </separator>
  <separator name="linear response parameters" >
   <i type="logical" name="LEPSILON"> F  </i>
   <i type="logical" name="LRPA"> F  </i>
   <i type="logical" name="LNABLA"> F  </i>
   <i type="logical" name="LVEL"> F  </i>
   <i type="int" name="KINTER">     0</i>
   <i name="CSHIFT">      0.10000000</i>
   <i name="OMEGAMAX">     -1.00000000</i>
   <i name="DEG_THRESHOLD">      0.00200000</i>
   <i name="RTIME">     -0.10000000</i>
   <i name="WPLASMAI">      0.00000000</i>
   <v name="DFIELD">      0.00000000      0.00000000      0.00000000</v>
   <v name="WPLASMA">      0.00000000      0.00000000      0.00000000      0.00000000      0.00000000      0.00000000      0.00000000      0.00000000      0.00000000</v>
  </separator>
  <separator name="orbital magnetization" >
   <i type="logical" name="NUCIND"> F  </i>
   <v name="MAGPOS">      0.00000000      0.00000000      0.00000000</v>
   <i type="logical" name="LNICSALL"> T  </i>
   <i type="logical" name="ORBITALMAG"> F  </i>
   <i type="logical" name="LMAGBLOCH"> F  </i>
   <i type="logical" name="LCHIMAG"> F  </i>
   <i type="logical" name="LGAUGE"> T  </i>
   <i type="int" name="MAGATOM">     0</i>
   <v name="MAGDIPOL">      0.00000000      0.00000000      0.00000000</v>
   <v name="AVECCONST">      0.00000000      0.00000000      0.00000000</v>
  </separator>
  <separator name="response functions" >
   <i type="logical" name="LADDER"> F  </i>
   <i type="logical" name="LRPAFORCE"> F  </i>
   <i type="logical" name="LFXC"> F  </i>
   <i type="logical" name="LHARTREE"> T  </i>
   <i type="int" name="IBSE">     0</i>
   <v type="int" name="KPOINT">    -1     0     0     0</v>
   <i type="logical" name="LTCTE"> F  </i>
   <i type="logical" name="LTETE"> F  </i>
   <i type="logical" name="LTRIPLET"> F  </i>
   <i type="logical" name="LFXCEPS"> F  </i>
   <i type="logical" name="LFXHEG"> F  </i>
   <i type="int" name="NATURALO">     2</i>
   <i type="logical" name="L2ORDER"> F  </i>
   <i type="logical" name="LMP2LT"> F  </i>
   <i type="logical" name="LUSEW"> F  </i>
   <i name="ENCUTGW">     -2.00000000</i>
   <i name="ENCUTGWSOFT">     -2.00000000</i>
   <i name="ENCUTLF">     -1.00000000</i>
   <i type="int" name="LMAXMP2">    -1</i>
   <i name="SCISSOR">      0.00000000</i>
   <i type="int" name="NOMEGA">     0</i>
   <i type="int" name="NOMEGAR">     0</i>
   <i type="int" name="NBANDSGW">    -1</i>
   <i type="int" name="NBANDSO">    -1</i>
   <i type="int" name="NBANDSV">    -1</i>
   <i type="int" name="NELM">    40</i>
   <i type="int" name="NELMHF">     1</i>
   <i type="int" name="DIM">     3</i>
   <i type="int" name="ANTIRES">     0</i>
   <i name="OMEGAMAX">    -30.00000000</i>
   <i name="OMEGAMIN">    -30.00000000</i>
   <i name="OMEGATL">   -200.00000000</i>
   <i type="int" name="OMEGAGRID">   140</i>
   <i name="CSHIFT">     -0.10000000</i>
   <i type="logical" name="SELFENERGY"> F  </i>
   <i type="logical" name="LSPECTRAL"> F  </i>
   <i type="logical" name="LSPECTRALGW"> F  </i>
   <i type="logical" name="LSINGLES"> F  </i>
   <i type="logical" name="LFERMIGW"> F  </i>
   <i type="logical" name="ODDONLYGW"> F  </i>
   <i type="logical" name="EVENONLYGW"> F  </i>
   <i type="int" name="NKREDLFX">     1</i>
   <i type="int" name="NKREDLFY">     1</i>
   <i type="int" name="NKREDLFZ">     1</i>
   <i type="int" name="MAXMEM">  2800</i>
   <i type="int" name="TELESCOPE">     0</i>
   <i type="int" name="TAUPAR">     1</i>
   <i type="int" name="OMEGAPAR">    -1</i>
   <i name="LAMBDA">      1.00000000</i>
  </separator>
  <separator name="External order field" >
   <i name="OFIELD_KAPPA">      0.00000000</i>
   <v name="OFIELD_K">      0.00000000      0.00000000      0.00000000</v>
   <i name="OFIELD_Q6_NEAR">      0.00000000</i>
   <i name="OFIELD_Q6_FAR">      0.00000000</i>
   <i name="OFIELD_A">      0.00000000</i>
  </separator>
 </parameters>
 <atominfo>
  <atoms>       8 </atoms>
  <types>       1 </types>
  <array name="atoms" >
   <dimension dim="1">ion</dimension>
   <field type="string">element</field>
   <field type="int">atomtype</field>
   <set>
    <rc><c>C </c><c>   1</c></rc>
    <rc><c>C </c><c>   1</c></rc>
    <rc><c>C </c><c>   1</c></rc>
    <rc><c>C </c><c>   1</c></rc>
    <rc><c>C </c><c>   1</c></rc>
    <rc><c>C </c><c>   1</c></rc>
    <rc><c>C </c><c>   1</c></rc>
    <rc><c>C </c><c>   1</c></rc>
   </set>
  </array>
  <array name="atomtypes" >
   <dimension dim="1">type</dimension>
   <field type="int">atomspertype</field>
   <field type="string">element</field>
   <field>mass</field>
   <field>valence</field>
   <field type="string">pseudopotential</field>
   <set>
    <rc><c>   8</c><c>C </c><c>     12.01100000</c><c>      4.00000000</c><c>  PAW_PBE C_h 06Feb2004                 </c></rc>
   </set>
  </array>
 </atominfo>
 <structure name="initialpos" >
  <crystal>
   <varray name="basis" >
    <v>       3.57360507       0.01191202       0.01191202 </v>
    <v>       0.01191202       3.57360507       0.01191202 </v>
    <v>       0.01191202       0.01191202       3.57360507 </v>
   </varray>
   <i name="volume">     45.63575319 </i>
   <varray name="rec_basis" >
    <v>       0.27983566      -0.00092969      -0.00092969 </v>
    <v>      -0.00092969       0.27983566      -0.00092969 </v>
    <v>      -0.00092969      -0.00092969       0.27983566 </v>
   </varray>
  </crystal>
  <varray name="positions" >
   <v>       0.25000000       0.25000000       0.25000000 </v>
   <v>       0.00000000       0.00000000       0.00000000 </v>
   <v>       0.25000000       0.75000000       0.75000000 </v>
   <v>       0.00000000       0.50000000       0.50000000 </v>
   <v>       0.75000000       0.25000000       0.75000000 </v>
   <v>       0.50000000       0.00000000       0.50000000 </v>
   <v>       0.75000000       0.75000000       0.25000000 </v>
   <v>       0.50000000       0.50000000       0.00000000 </v>
  </varray>
 </structure>
 <calculation>
  <scstep>
   <time name="dav">    4.51    5.44</time>
   <time name="total">    4.54    5.51</time>
   <energy>
    <i name="alphaZ">     76.88111560 </i>
    <i name="ewald">  -1389.16611385 </i>
    <i name="hartreedc">    -70.49355509 </i>
    <i name="XCdc">     62.04455134 </i>
    <i name="pawpsdc">    914.77613359 </i>
    <i name="pawaedc">   -872.73161751 </i>
    <i name="eentropy">     -0.00090755 </i>
    <i name="bandstr">    202.46496609 </i>
    <i name="atom">   1177.21277265 </i>
    <i name="e_fr_energy">    100.98734528 </i>
    <i name="e_wo_entrp">    100.98825283 </i>
    <i name="e_0_energy">    100.98779906 </i>
   </energy>
  </scstep>
  <scstep>
   <time name="dav">    7.80    7.85</time>
   <time name="total">    7.80    7.85</time>
   <energy>
    <i name="e_fr_energy">    -72.49739133 </i>
    <i name="e_wo_entrp">    -72.49739133 </i>
    <i name="e_0_energy">    -72.49739133 </i>
   </energy>
  </scstep>
  <scstep>
   <time name="dav">    5.75    5.76</time>
   <time name="total">    5.75    5.77</time>
   <energy>
    <i name="e_fr_energy">    -75.25797387 </i>
    <i name="e_wo_entrp">    -75.25797387 </i>
    <i name="e_0_energy">    -75.25797387 </i>
   </energy>
  </scstep>
  <scstep>
   <time name="dav">    9.25    9.27</time>
   <time name="total">    9.25    9.27</time>
   <energy>
    <i name="e_fr_energy">    -75.27489282 </i>
    <i name="e_wo_entrp">    -75.27489282 </i>
    <i name="e_0_energy">    -75.27489282 </i>
   </energy>
  </scstep>
  <scstep>
   <time name="dav">    5.63    5.65</time>
   <time name="total">    5.85    5.92</time>
   <energy>
    <i name="e_fr_energy">    -75.27489563 </i>
    <i name="e_wo_entrp">    -75.27489563 </i>
    <i name="e_0_energy">    -75.27489563 </i>
   </energy>
  </scstep>
  <scstep>
   <time name="dav">    5.39    5.40</time>
   <time name="total">    5.61    5.65</time>
   <energy>
    <i name="e_fr_energy">    -73.44763297 </i>
    <i name="e_wo_entrp">    -73.44763297 </i>
    <i name="e_0_energy">    -73.44763297 </i>
   </energy>
  </scstep>
  <scstep>
   <time name="dav">    6.99    7.01</time>
   <time name="total">    7.22    7.25</time>
   <energy>
    <i name="e_fr_energy">    -72.83593697 </i>
    <i name="e_wo_entrp">    -72.83593697 </i>
    <i name="e_0_energy">    -72.83593697 </i>
   </energy>
  </scstep>
  <scstep>
   <time name="dav">    8.01    8.03</time>
   <time name="total">    8.24    8.27</time>
   <energy>
    <i name="e_fr_energy">    -72.83428333 </i>
    <i name="e_wo_entrp">    -72.83428333 </i>
    <i name="e_0_energy">    -72.83428333 </i>
   </energy>
  </scstep>
  <scstep>
   <time name="dav">    7.11    7.12</time>
   <time name="total">    7.33    7.35</time>
   <energy>
    <i name="e_fr_energy">    -72.83446475 </i>
    <i name="e_wo_entrp">    -72.83446475 </i>
    <i name="e_0_energy">    -72.83446475 </i>
   </energy>
  </scstep>
  <scstep>
   <time name="dav">    7.74    7.75</time>
   <time name="total">    7.96    7.98</time>
   <energy>
    <i name="e_fr_energy">    -72.83458785 </i>
    <i name="e_wo_entrp">    -72.83458785 </i>
    <i name="e_0_energy">    -72.83458785 </i>
   </energy>
  </scstep>
  <scstep>
   <time name="dav">    7.54    7.55</time>
   <time name="total">    7.76    7.78</time>
   <energy>
    <i name="e_fr_energy">    -72.83458892 </i>
    <i name="e_wo_entrp">    -72.83458892 </i>
    <i name="e_0_energy">    -72.83458892 </i>
   </energy>
  </scstep>
  <scstep>
   <time name="dav">    7.82    7.84</time>
   <time name="total">    8.04    8.07</time>
   <energy>
    <i name="e_fr_energy">    -72.83458928 </i>
    <i name="e_wo_entrp">    -72.83458928 </i>
    <i name="e_0_energy">    -72.83458928 </i>
   </energy>
  </scstep>
  <scstep>
   <time name="dav">    7.59    7.61</time>
   <time name="total">    7.81    7.84</time>
   <energy>
    <i name="e_fr_energy">    -72.83458929 </i>
    <i name="e_wo_entrp">    -72.83458929 </i>
    <i name="e_0_energy">    -72.83458929 </i>
   </energy>
  </scstep>
  <scstep>
   <time name="dav">    7.10    7.11</time>
   <time name="total">    7.11    7.13</time>
   <energy>
    <i name="alphaZ">     76.88111560 </i>
    <i name="ewald">  -1389.16611385 </i>
    <i name="hartreedc">   -105.60268008 </i>
    <i name="XCdc">     65.06882291 </i>
    <i name="pawpsdc">  14457.99324336 </i>
    <i name="pawaedc"> -14416.46436231 </i>
    <i name="eentropy">     -0.00000000 </i>
    <i name="bandstr">     61.24261242 </i>
    <i name="atom">   1177.21277265 </i>
    <i name="e_fr_energy">    -72.83458929 </i>
    <i name="e_wo_entrp">    -72.83458929 </i>
    <i name="e_0_energy">    -72.83458929 </i>
   </energy>
  </scstep>
  <structure>
   <crystal>
    <varray name="basis" >
     <v>       3.57360507       0.01191202       0.01191202 </v>
     <v>       0.01191202       3.57360507       0.01191202 </v>
     <v>       0.01191202       0.01191202       3.57360507 </v>
    </varray>
    <i name="volume">     45.63575319 </i>
    <varray name="rec_basis" >
     <v>       0.27983566      -0.00092969      -0.00092969 </v>
     <v>      -0.00092969       0.27983566      -0.00092969 </v>
     <v>      -0.00092969      -0.00092969       0.27983566 </v>
    </varray>
   </crystal>
   <varray name="positions" >
    <v>       0.25000000       0.25000000       0.25000000 </v>
    <v>       0.00000000       0.00000000       0.00000000 </v>
    <v>       0.25000000       0.75000000       0.75000000 </v>
    <v>       0.00000000       0.50000000       0.50000000 </v>
    <v>       0.75000000       0.25000000       0.75000000 </v>
    <v>       0.50000000       0.00000000       0.50000000 </v>
    <v>       0.75000000       0.75000000       0.25000000 </v>
    <v>       0.50000000       0.50000000       0.00000000 </v>
   </varray>
  </structure>
  <varray name="forces" >
   <v>      -0.01382618      -0.01382618      -0.01382618 </v>
   <v>       0.01382618       0.01382618       0.01382618 </v>
   <v>      -0.01382618      -0.01382618      -0.01382618 </v>
   <v>       0.01382618       0.01382618       0.01382618 </v>
   <v>      -0.01382618      -0.01382618      -0.01382618 </v>
   <v>       0.01382618       0.01382618       0.01382618 </v>
   <v>      -0.01382618      -0.01382618      -0.01382618 </v>
   <v>       0.01382618       0.01382618       0.01382618 </v>
  </varray>
  <varray name="stress" >
   <v>     -12.97739392     -36.89360749     -36.89360749 </v>
   <v>     -36.89360749     -12.97739392     -36.89360749 </v>
   <v>     -36.89360749     -36.89360749     -12.97739392 </v>
  </varray>
  <energy>
   <i name="e_fr_energy">    -72.83458929 </i>
   <i name="e_wo_entrp">    -72.83458929 </i>
   <i name="e_0_energy">     -0.00000000 </i>
  </energy>
  <time name="totalsc">  105.74  107.21</time>
 </calculation>
 <calculation>
  <scstep>
   <time name="dav">    5.96    5.97</time>
   <time name="total">    6.18    6.21</time>
   <energy>
    <i name="alphaZ">     76.88111560 </i>
    <i name="ewald">  -1389.18454748 </i>
    <i name="hartreedc">   -105.59386002 </i>
    <i name="XCdc">     65.06833572 </i>
    <i name="pawpsdc">  14457.98498140 </i>
    <i name="pawaedc"> -14416.45610073 </i>
    <i name="eentropy">     -0.00000000 </i>
    <i name="bandstr">     61.25288487 </i>
    <i name="atom">   1177.21277265 </i>
    <i name="e_fr_energy">    -72.83441799 </i>
    <i name="e_wo_entrp">    -72.83441799 </i>
    <i name="e_0_energy">    -72.83441799 </i>
   </energy>
  </scstep>
  <scstep>
   <time name="dav">    8.56    8.58</time>
   <time name="total">    8.78    8.81</time>
   <energy>
    <i name="e_fr_energy">    -72.83443416 </i>
    <i name="e_wo_entrp">    -72.83443416 </i>
    <i name="e_0_energy">    -72.83443416 </i>
   </energy>
  </scstep>
  <scstep>
   <time name="dav">    6.53    6.55</time>
   <time name="total">    6.75    6.78</time>
   <energy>
    <i name="e_fr_energy">    -72.83443015 </i>
    <i name="e_wo_entrp">    -72.83443015 </i>
    <i name="e_0_energy">    -72.83443015 </i>
   </energy>
  </scstep>
  <scstep>
   <time name="dav">    8.37    8.51</time>
   <time name="total">    8.59    8.74</time>
   <energy>
    <i name="e_fr_energy">    -72.83443028 </i>
    <i name="e_wo_entrp">    -72.83443028 </i>
    <i name="e_0_energy">    -72.83443028 </i>
   </energy>
  </scstep>
  <scstep>
   <time name="dav">    6.80    6.82</time>
   <time name="total">    6.81    6.84</time>
   <energy>
    <i name="alphaZ">     76.88111560 </i>
    <i name="ewald">  -1389.18454748 </i>
    <i name="hartreedc">   -105.59207156 </i>
    <i name="XCdc">     65.06817878 </i>
    <i name="pawpsdc">  14456.22808666 </i>
    <i name="pawaedc"> -14414.69908934 </i>
    <i name="eentropy">     -0.00000000 </i>
    <i name="bandstr">     61.25112441 </i>
    <i name="atom">   1177.21277265 </i>
    <i name="e_fr_energy">    -72.83443028 </i>
    <i name="e_wo_entrp">    -72.83443028 </i>
    <i name="e_0_energy">    -72.83443028 </i>
   </energy>
  </scstep>
  <structure>
   <crystal>
    <varray name="basis" >
     <v>       3.57360507       0.01191202       0.01191202 </v>
     <v>       0.01191202       3.57360507       0.01191202 </v>
     <v>       0.01191202       0.01191202       3.57360507 </v>
    </varray>
    <i name="volume">     45.63575319 </i>
    <varray name="rec_basis" >
     <v>       0.27983566      -0.00092969      -0.00092969 </v>
     <v>      -0.00092969       0.27983566      -0.00092969 </v>
     <v>      -0.00092969      -0.00092969       0.27983566 </v>
    </varray>
   </crystal>
   <varray name="positions" >
    <v>       0.24981459       0.24981459       0.24981459 </v>
    <v>       0.00018541       0.00018541       0.00018541 </v>
    <v>       0.24981459       0.74981459       0.74981459 </v>
    <v>       0.00018541       0.50018541       0.50018541 </v>
    <v>       0.74981459       0.24981459       0.74981459 </v>
    <v>       0.50018541       0.00018541       0.50018541 </v>
    <v>       0.74981459       0.74981459       0.24981459 </v>
    <v>       0.50018541       0.50018541       0.00018541 </v>
   </varray>
  </structure>
  <varray name="forces" >
   <v>       0.03370589       0.03370589       0.03370589 </v>
   <v>      -0.03370589      -0.03370589      -0.03370589 </v>
   <v>       0.03370589       0.03370589       0.03370589 </v>
   <v>      -0.03370589      -0.03370589      -0.03370589 </v>
   <v>       0.03370589       0.03370589       0.03370589 </v>
   <v>      -0.03370589      -0.03370589      -0.03370589 </v>
   <v>       0.03370589       0.03370589       0.03370589 </v>
   <v>      -0.03370589      -0.03370589      -0.03370589 </v>
  </varray>
  <varray name="stress" >
   <v>     -13.15638129     -36.59838211     -36.59838211 </v>
   <v>     -36.59838211     -13.15638129     -36.59838211 </v>
   <v>     -36.59838211     -36.59838211     -13.15638129 </v>
  </varray>
  <energy>
   <i name="e_fr_energy">    -72.83443028 </i>
   <i name="e_wo_entrp">    -72.83443028 </i>
   <i name="e_0_energy">     -0.00000000 </i>
  </energy>
  <time name="totalsc">   42.65   42.94</time>
 </calculation>
 <calculation>
  <scstep>
   <time name="dav">    5.93    5.95</time>
   <time name="total">    6.16    6.18</time>
   <energy>
    <i name="alphaZ">     76.88111560 </i>
    <i name="ewald">  -1389.17165738 </i>
    <i name="hartreedc">   -105.59810326 </i>
    <i name="XCdc">     65.06851522 </i>
    <i name="pawpsdc">  14456.28368524 </i>
    <i name="pawaedc"> -14414.75468400 </i>
    <i name="eentropy">     -0.00000000 </i>
    <i name="bandstr">     61.24374099 </i>
    <i name="atom">   1177.21277265 </i>
    <i name="e_fr_energy">    -72.83461493 </i>
    <i name="e_wo_entrp">    -72.83461493 </i>
    <i name="e_0_energy">    -72.83461493 </i>
   </energy>
  </scstep>
  <scstep>
   <time name="dav">    8.58    8.60</time>
   <time name="total">    8.81    8.83</time>
   <energy>
    <i name="e_fr_energy">    -72.83462338 </i>
    <i name="e_wo_entrp">    -72.83462338 </i>
    <i name="e_0_energy">    -72.83462338 </i>
   </energy>
  </scstep>
  <scstep>
   <time name="dav">    6.40    6.42</time>
   <time name="total">    6.63    6.65</time>
   <energy>
    <i name="e_fr_energy">    -72.83462142 </i>
    <i name="e_wo_entrp">    -72.83462142 </i>
    <i name="e_0_energy">    -72.83462142 </i>
   </energy>
  </scstep>
  <scstep>
   <time name="dav">    8.10    8.12</time>
   <time name="total">    8.33    8.36</time>
   <energy>
    <i name="e_fr_energy">    -72.83462149 </i>
    <i name="e_wo_entrp">    -72.83462149 </i>
    <i name="e_0_energy">    -72.83462149 </i>
   </energy>
  </scstep>
  <scstep>
   <time name="dav">    6.58    6.59</time>
   <time name="total">    6.59    6.61</time>
   <energy>
    <i name="alphaZ">     76.88111560 </i>
    <i name="ewald">  -1389.17165738 </i>
    <i name="hartreedc">   -105.59943275 </i>
    <i name="XCdc">     65.06862561 </i>
    <i name="pawpsdc">  14457.53895283 </i>
    <i name="pawaedc"> -14416.01003108 </i>
    <i name="eentropy">     -0.00000000 </i>
    <i name="bandstr">     61.24503304 </i>
    <i name="atom">   1177.21277265 </i>
    <i name="e_fr_energy">    -72.83462148 </i>
    <i name="e_wo_entrp">    -72.83462148 </i>
    <i name="e_0_energy">    -72.83462148 </i>
   </energy>
  </scstep>
  <structure>
   <crystal>
    <varray name="basis" >
     <v>       3.57360507       0.01191202       0.01191202 </v>
     <v>       0.01191202       3.57360507       0.01191202 </v>
     <v>       0.01191202       0.01191202       3.57360507 </v>
    </varray>
    <i name="volume">     45.63575319 </i>
    <varray name="rec_basis" >
     <v>       0.27983566      -0.00092969      -0.00092969 </v>
     <v>      -0.00092969       0.27983566      -0.00092969 </v>
     <v>      -0.00092969      -0.00092969       0.27983566 </v>
    </varray>
   </crystal>
   <varray name="positions" >
    <v>       0.24994607       0.24994607       0.24994607 </v>
    <v>       0.00005393       0.00005393       0.00005393 </v>
    <v>       0.24994607       0.74994607       0.74994607 </v>
    <v>       0.00005393       0.50005393       0.50005393 </v>
    <v>       0.74994607       0.24994607       0.74994607 </v>
    <v>       0.50005393       0.00005393       0.50005393 </v>
    <v>       0.74994607       0.74994607       0.24994607 </v>
    <v>       0.50005393       0.50005393       0.00005393 </v>
   </varray>
  </structure>
  <varray name="forces" >
   <v>      -0.00002998      -0.00002998      -0.00002998 </v>
   <v>       0.00002998       0.00002998       0.00002998 </v>
   <v>      -0.00002998      -0.00002998      -0.00002998 </v>
   <v>       0.00002998       0.00002998       0.00002998 </v>
   <v>      -0.00002998      -0.00002998      -0.00002998 </v>
   <v>       0.00002998       0.00002998       0.00002998 </v>
   <v>      -0.00002998      -0.00002998      -0.00002998 </v>
   <v>       0.00002998       0.00002998       0.00002998 </v>
  </varray>
  <varray name="stress" >
   <v>     -13.03217428     -36.79951177     -36.79951177 </v>
   <v>     -36.79951177     -13.03217428     -36.79951177 </v>
   <v>     -36.79951177     -36.79951177     -13.03217428 </v>
  </varray>
  <energy>
   <i name="e_fr_energy">    -72.83462148 </i>
   <i name="e_wo_entrp">    -72.83462148 </i>
   <i name="e_0_energy">     -0.00000000 </i>
  </energy>
  <time name="totalsc">   41.68   41.82</time>
  <eigenvalues>
   <array>
    <dimension dim="1">band</dimension>
    <dimension dim="2">kpoint</dimension>
    <dimension dim="3">spin</dimension>
    <field>eigene</field>
    <field>occ</field>
    <set>
     <set comment="spin 1">
      <set comment="kpoint 1">
       <r>  -10.5114    1.0000 </r>
       <r>   -2.4103    1.0000 </r>
       <r>   -2.4103    1.0000 </r>
       <r>   -2.4103    1.0000 </r>
       <r>   -1.2942    1.0000 </r>
       <r>   -1.2942    1.0000 </r>
       <r>   -1.2942    1.0000 </r>
       <r>    4.4147    1.0000 </r>
       <r>    4.4147    1.0000 </r>
       <r>    4.4147    1.0000 </r>
       <r>    4.6881    1.0000 </r>
       <r>    4.6881    1.0000 </r>
       <r>    4.6881    1.0000 </r>
       <r>   10.5672    1.0000 </r>
       <r>   10.7977    1.0000 </r>
       <r>   10.7977    1.0000 </r>
       <r>   15.5312    0.0000 </r>
       <r>   15.5312    0.0000 </r>
       <r>   15.5312    0.0000 </r>
       <r>   15.8944    0.0000 </r>
       <r>   15.8944    0.0000 </r>
       <r>   15.8944    0.0000 </r>
       <r>   16.4195    0.0000 </r>
       <r>   16.6113    0.0000 </r>
      </set>
      <set comment="kpoint 2">
       <r>  -10.4183    1.0000 </r>
       <r>   -3.4965    1.0000 </r>
       <r>   -2.3372    1.0000 </r>
       <r>   -2.3372    1.0000 </r>
       <r>   -1.2544    1.0000 </r>
       <r>   -1.2544    1.0000 </r>
       <r>   -0.1257    1.0000 </r>
       <r>    4.0978    1.0000 </r>
       <r>    4.0978    1.0000 </r>
       <r>    4.5155    1.0000 </r>
       <r>    4.6209    1.0000 </r>
       <r>    4.6209    1.0000 </r>
       <r>    4.7779    1.0000 </r>
       <r>   10.1001    1.0000 </r>
       <r>   10.4483    1.0000 </r>
       <r>   10.6803    1.0000 </r>
       <r>   15.2888    0.0000 </r>
       <r>   15.8966    0.0000 </r>
       <r>   15.8966    0.0000 </r>
       <r>   16.2717    0.0000 </r>
       <r>   16.2717    0.0000 </r>
       <r>   16.3496    0.0000 </r>
       <r>   16.4767    0.0000 </r>
       <r>   16.9237    0.0000 </r>
      </set>
      <set comment="kpoint 3">
       <r>  -10.2316    1.0000 </r>
       <r>   -4.5246    1.0000 </r>
       <r>   -2.2047    1.0000 </r>
       <r>   -2.2047    1.0000 </r>
       <r>   -1.1696    1.0000 </r>
       <r>   -1.1696    1.0000 </r>
       <r>    1.0645    1.0000 </r>
       <r>    3.6674    1.0000 </r>
       <r>    3.6674    1.0000 </r>
       <r>    4.3713    1.0000 </r>
       <r>    4.3713    1.0000 </r>
       <r>    4.7117    1.0000 </r>
       <r>    4.9579    1.0000 </r>
       <r>    9.4583    1.0000 </r>
       <r>    9.8687    1.0000 </r>
       <r>   10.3019    1.0000 </r>
       <r>   15.1371    0.0000 </r>
       <r>   16.3383    0.0000 </r>
       <r>   16.5321    0.0000 </r>
       <r>   16.5321    0.0000 </r>
       <r>   16.9320    0.0000 </r>
       <r>   17.0347    0.0000 </r>
       <r>   17.0347    0.0000 </r>
       <r>   17.6698    0.0000 </r>
      </set>
      <set comment="kpoint 4">
       <r>   -9.9519    1.0000 </r>
       <r>   -5.4861    1.0000 </r>
       <r>   -2.0244    1.0000 </r>
       <r>   -2.0244    1.0000 </r>
       <r>   -1.0541    1.0000 </r>
       <r>   -1.0541    1.0000 </r>
       <r>    2.2571    1.0000 </r>
       <r>    3.2017    1.0000 </r>
       <r>    3.2017    1.0000 </r>
       <r>    4.0066    1.0000 </r>
       <r>    4.0066    1.0000 </r>
       <r>    5.0045    1.0000 </r>
       <r>    5.2266    1.0000 </r>
       <r>    8.7346    1.0000 </r>
       <r>    9.1842    1.0000 </r>
       <r>    9.7189    1.0000 </r>
       <r>   15.0707    0.0000 </r>
       <r>   16.1502    0.0000 </r>
       <r>   17.4291    0.0000 </r>
       <r>   17.4291    0.0000 </r>
       <r>   17.6454    0.0000 </r>
       <r>   18.0480    0.0000 </r>
       <r>   18.0480    0.0000 </r>
       <r>   18.5993    0.0000 </r>
      </set>
      <set comment="kpoint 5">
       <r>   -9.5799    1.0000 </r>
       <r>   -6.3745    1.0000 </r>
       <r>   -1.8183    1.0000 </r>
       <r>   -1.8183    1.0000 </r>
       <r>   -0.9306    1.0000 </r>
       <r>   -0.9306    1.0000 </r>
       <r>    2.7766    1.0000 </r>
       <r>    2.7766    1.0000 </r>
       <r>    3.4289    1.0000 </r>
       <r>    3.6079    1.0000 </r>
       <r>    3.6079    1.0000 </r>
       <r>    5.3975    1.0000 </r>
       <r>    5.5815    1.0000 </r>
       <r>    7.9864    1.0000 </r>
       <r>    8.4737    1.0000 </r>
       <r>    8.9835    1.0000 </r>
       <r>   15.0807    0.0000 </r>
       <r>   15.9349    0.0000 </r>
       <r>   18.4925    0.0000 </r>
       <r>   18.5241    0.0000 </r>
       <r>   18.5241    0.0000 </r>
       <r>   19.2185    0.0000 </r>
       <r>   19.2185    0.0000 </r>
       <r>   19.6289    0.0000 </r>
      </set>
      <set comment="kpoint 6">
       <r>   -9.1166    1.0000 </r>
       <r>   -7.1845    1.0000 </r>
       <r>   -1.6276    1.0000 </r>
       <r>   -1.6276    1.0000 </r>
       <r>   -0.8256    1.0000 </r>
       <r>   -0.8256    1.0000 </r>
       <r>    2.4594    1.0000 </r>
       <r>    2.4594    1.0000 </r>
       <r>    3.2571    1.0000 </r>
       <r>    3.2571    1.0000 </r>
       <r>    4.5488    1.0000 </r>
       <r>    5.9007    1.0000 </r>
       <r>    6.0194    1.0000 </r>
       <r>    7.2377    1.0000 </r>
       <r>    7.7816    1.0000 </r>
       <r>    8.1448    1.0000 </r>
       <r>   15.1573    0.0000 </r>
       <r>   15.7130    0.0000 </r>
       <r>   19.4680    0.0000 </r>
       <r>   19.7320    0.0000 </r>
       <r>   19.7320    0.0000 </r>
       <r>   20.4508    0.0000 </r>
       <r>   20.4508    0.0000 </r>
       <r>   20.7088    0.0000 </r>
      </set>
      <set comment="kpoint 7">
       <r>   -8.5636    1.0000 </r>
       <r>   -7.9123    1.0000 </r>
       <r>   -1.5174    1.0000 </r>
       <r>   -1.5174    1.0000 </r>
       <r>   -0.7537    1.0000 </r>
       <r>   -0.7537    1.0000 </r>
       <r>    2.2975    1.0000 </r>
       <r>    2.2975    1.0000 </r>
       <r>    3.0382    1.0000 </r>
       <r>    3.0382    1.0000 </r>
       <r>    5.5706    1.0000 </r>
       <r>    6.4712    1.0000 </r>
       <r>    6.5349    1.0000 </r>
       <r>    6.5358    1.0000 </r>
       <r>    7.1337    1.0000 </r>
       <r>    7.2694    1.0000 </r>
       <r>   15.2895    0.0000 </r>
       <r>   15.5032    0.0000 </r>
       <r>   20.5491    0.0000 </r>
       <r>   20.8641    0.0000 </r>
       <r>   20.8641    0.0000 </r>
       <r>   21.4638    0.0000 </r>
       <r>   21.4638    0.0000 </r>
       <r>   21.6801    0.0000 </r>
      </set>
      <set comment="kpoint 8">
       <r>   -8.5547    1.0000 </r>
       <r>   -7.9226    1.0000 </r>
       <r>   -1.5431    1.0000 </r>
       <r>   -1.5431    1.0000 </r>
       <r>   -0.7198    1.0000 </r>
       <r>   -0.7198    1.0000 </r>
       <r>    2.3068    1.0000 </r>
       <r>    2.3068    1.0000 </r>
       <r>    3.0188    1.0000 </r>
       <r>    3.0188    1.0000 </r>
       <r>    5.6086    1.0000 </r>
       <r>    6.4592    1.0000 </r>
       <r>    6.4716    1.0000 </r>
       <r>    6.5461    1.0000 </r>
       <r>    7.1211    1.0000 </r>
       <r>    7.3136    1.0000 </r>
       <r>   15.3223    0.0000 </r>
       <r>   15.4650    0.0000 </r>
       <r>   20.5791    0.0000 </r>
       <r>   20.6496    0.0000 </r>
       <r>   20.6496    0.0000 </r>
       <r>   21.5885    0.0000 </r>
       <r>   21.6940    0.0000 </r>
       <r>   21.6941    0.0000 </r>
      </set>
      <set comment="kpoint 9">
       <r>   -9.1091    1.0000 </r>
       <r>   -7.1963    1.0000 </r>
       <r>   -1.6865    1.0000 </r>
       <r>   -1.6865    1.0000 </r>
       <r>   -0.7471    1.0000 </r>
       <r>   -0.7471    1.0000 </r>
       <r>    2.4896    1.0000 </r>
       <r>    2.4896    1.0000 </r>
       <r>    3.2028    1.0000 </r>
       <r>    3.2028    1.0000 </r>
       <r>    4.5917    1.0000 </r>
       <r>    5.8376    1.0000 </r>
       <r>    6.0290    1.0000 </r>
       <r>    7.2546    1.0000 </r>
       <r>    7.7679    1.0000 </r>
       <r>    8.1653    1.0000 </r>
       <r>   15.1848    0.0000 </r>
       <r>   15.6691    0.0000 </r>
       <r>   19.4689    0.0000 </r>
       <r>   19.4689    0.0000 </r>
       <r>   19.4951    0.0000 </r>
       <r>   20.6361    0.0000 </r>
       <r>   20.7498    0.0000 </r>
       <r>   20.7690    0.0000 </r>
      </set>
      <set comment="kpoint 10">
       <r>   -9.5738    1.0000 </r>
       <r>   -6.3878    1.0000 </r>
       <r>   -1.8839    1.0000 </r>
       <r>   -1.8839    1.0000 </r>
       <r>   -0.8434    1.0000 </r>
       <r>   -0.8434    1.0000 </r>
       <r>    2.8308    1.0000 </r>
       <r>    2.8308    1.0000 </r>
       <r>    3.4679    1.0000 </r>
       <r>    3.5247    1.0000 </r>
       <r>    3.5247    1.0000 </r>
       <r>    5.3455    1.0000 </r>
       <r>    5.5894    1.0000 </r>
       <r>    8.0228    1.0000 </r>
       <r>    8.4592    1.0000 </r>
       <r>    8.9888    1.0000 </r>
       <r>   15.1028    0.0000 </r>
       <r>   15.8848    0.0000 </r>
       <r>   18.2632    0.0000 </r>
       <r>   18.2632    0.0000 </r>
       <r>   18.5165    0.0000 </r>
       <r>   19.5158    0.0000 </r>
       <r>   19.5158    0.0000 </r>
       <r>   19.5675    0.0000 </r>
      </set>
      <set comment="kpoint 11">
       <r>   -9.9472    1.0000 </r>
       <r>   -5.5011    1.0000 </r>
       <r>   -2.0819    1.0000 </r>
       <r>   -2.0819    1.0000 </r>
       <r>   -0.9782    1.0000 </r>
       <r>   -0.9782    1.0000 </r>
       <r>    2.2909    1.0000 </r>
       <r>    3.2803    1.0000 </r>
       <r>    3.2803    1.0000 </r>
       <r>    3.9010    1.0000 </r>
       <r>    3.9010    1.0000 </r>
       <r>    4.9647    1.0000 </r>
       <r>    5.2328    1.0000 </r>
       <r>    8.7826    1.0000 </r>
       <r>    9.1697    1.0000 </r>
       <r>    9.7152    1.0000 </r>
       <r>   15.0873    0.0000 </r>
       <r>   16.0908    0.0000 </r>
       <r>   17.1780    0.0000 </r>
       <r>   17.1780    0.0000 </r>
       <r>   17.6657    0.0000 </r>
       <r>   18.3316    0.0000 </r>
       <r>   18.3316    0.0000 </r>
       <r>   18.5549    0.0000 </r>
      </set>
      <set comment="kpoint 12">
       <r>  -10.2283    1.0000 </r>
       <r>   -4.5413    1.0000 </r>
       <r>   -2.2481    1.0000 </r>
       <r>   -2.2481    1.0000 </r>
       <r>   -1.1131    1.0000 </r>
       <r>   -1.1131    1.0000 </r>
       <r>    1.0939    1.0000 </r>
       <r>    3.7674    1.0000 </r>
       <r>    3.7674    1.0000 </r>
       <r>    4.2491    1.0000 </r>
       <r>    4.2491    1.0000 </r>
       <r>    4.6836    1.0000 </r>
       <r>    4.9624    1.0000 </r>
       <r>    9.5113    1.0000 </r>
       <r>    9.8552    1.0000 </r>
       <r>   10.2918    1.0000 </r>
       <r>   15.1481    0.0000 </r>
       <r>   16.2620    0.0000 </r>
       <r>   16.2976    0.0000 </r>
       <r>   16.2976    0.0000 </r>
       <r>   16.9479    0.0000 </r>
       <r>   17.2952    0.0000 </r>
       <r>   17.2952    0.0000 </r>
       <r>   17.6571    0.0000 </r>
      </set>
      <set comment="kpoint 13">
       <r>  -10.4163    1.0000 </r>
       <r>   -3.5151    1.0000 </r>
       <r>   -2.3638    1.0000 </r>
       <r>   -2.3638    1.0000 </r>
       <r>   -1.2199    1.0000 </r>
       <r>   -1.2199    1.0000 </r>
       <r>   -0.0997    1.0000 </r>
       <r>    4.2150    1.0000 </r>
       <r>    4.2150    1.0000 </r>
       <r>    4.4890    1.0000 </r>
       <r>    4.4890    1.0000 </r>
       <r>    4.4988    1.0000 </r>
       <r>    4.7806    1.0000 </r>
       <r>   10.1506    1.0000 </r>
       <r>   10.4381    1.0000 </r>
       <r>   10.6640    1.0000 </r>
       <r>   15.2942    0.0000 </r>
       <r>   15.6993    0.0000 </r>
       <r>   15.6993    0.0000 </r>
       <r>   16.3584    0.0000 </r>
       <r>   16.3605    0.0000 </r>
       <r>   16.4861    0.0000 </r>
       <r>   16.4861    0.0000 </r>
       <r>   16.9786    0.0000 </r>
      </set>
      <set comment="kpoint 14">
       <r>  -10.5107    1.0000 </r>
       <r>   -2.4310    1.0000 </r>
       <r>   -2.4193    1.0000 </r>
       <r>   -2.4193    1.0000 </r>
       <r>   -1.2827    1.0000 </r>
       <r>   -1.2827    1.0000 </r>
       <r>   -1.2712    1.0000 </r>
       <r>    4.4092    1.0000 </r>
       <r>    4.5434    1.0000 </r>
       <r>    4.5434    1.0000 </r>
       <r>    4.5541    1.0000 </r>
       <r>    4.5541    1.0000 </r>
       <r>    4.6887    1.0000 </r>
       <r>   10.6066    1.0000 </r>
       <r>   10.7723    1.0000 </r>
       <r>   10.7938    1.0000 </r>
       <r>   15.4429    0.0000 </r>
       <r>   15.4429    0.0000 </r>
       <r>   15.5310    0.0000 </r>
       <r>   15.8999    0.0000 </r>
       <r>   15.9887    0.0000 </r>
       <r>   15.9887    0.0000 </r>
       <r>   16.3313    0.0000 </r>
       <r>   16.6154    0.0000 </r>
      </set>
      <set comment="kpoint 15">
       <r>  -10.3260    1.0000 </r>
       <r>   -3.4144    1.0000 </r>
       <r>   -3.4144    1.0000 </r>
       <r>   -2.2733    1.0000 </r>
       <r>   -1.2184    1.0000 </r>
       <r>   -0.1101    1.0000 </r>
       <r>   -0.1101    1.0000 </r>
       <r>    3.5871    1.0000 </r>
       <r>    4.2123    1.0000 </r>
       <r>    4.2123    1.0000 </r>
       <r>    4.7140    1.0000 </r>
       <r>    4.7140    1.0000 </r>
       <r>    4.8411    1.0000 </r>
       <r>    9.5367    1.0000 </r>
       <r>   10.1742    1.0000 </r>
       <r>   10.6893    1.0000 </r>
       <r>   15.6665    0.0000 </r>
       <r>   15.6665    0.0000 </r>
       <r>   15.8914    0.0000 </r>
       <r>   16.7059    0.0000 </r>
       <r>   16.7059    0.0000 </r>
       <r>   16.7893    0.0000 </r>
       <r>   16.9333    0.0000 </r>
       <r>   17.0308    0.0000 </r>
      </set>
      <set comment="kpoint 16">
       <r>  -10.1401    1.0000 </r>
       <r>   -4.4374    1.0000 </r>
       <r>   -3.2618    1.0000 </r>
       <r>   -2.1613    1.0000 </r>
       <r>   -1.1403    1.0000 </r>
       <r>   -0.0764    1.0000 </r>
       <r>    1.0426    1.0000 </r>
       <r>    3.0410    1.0000 </r>
       <r>    3.7974    1.0000 </r>
       <r>    4.4333    1.0000 </r>
       <r>    4.4802    1.0000 </r>
       <r>    4.8506    1.0000 </r>
       <r>    4.9033    1.0000 </r>
       <r>    8.8454    1.0000 </r>
       <r>    9.6193    1.0000 </r>
       <r>   10.4726    1.0000 </r>
       <r>   15.5189    0.0000 </r>
       <r>   16.2054    0.0000 </r>
       <r>   16.3537    0.0000 </r>
       <r>   16.7188    0.0000 </r>
       <r>   17.2719    0.0000 </r>
       <r>   17.4055    0.0000 </r>
       <r>   17.7023    0.0000 </r>
       <r>   17.9031    0.0000 </r>
      </set>
      <set comment="kpoint 17">
       <r>   -9.8614    1.0000 </r>
       <r>   -5.3955    1.0000 </r>
       <r>   -3.0450    1.0000 </r>
       <r>   -2.0250    1.0000 </r>
       <r>   -1.0289    1.0000 </r>
       <r>   -0.0494    1.0000 </r>
       <r>    2.1736    1.0000 </r>
       <r>    2.5404    1.0000 </r>
       <r>    3.3434    1.0000 </r>
       <r>    4.1539    1.0000 </r>
       <r>    4.6782    1.0000 </r>
       <r>    4.7637    1.0000 </r>
       <r>    5.1935    1.0000 </r>
       <r>    8.1003    1.0000 </r>
       <r>    8.9507    1.0000 </r>
       <r>   10.0100    1.0000 </r>
       <r>   15.4539    0.0000 </r>
       <r>   16.5411    0.0000 </r>
       <r>   16.8614    0.0000 </r>
       <r>   17.2940    0.0000 </r>
       <r>   17.9677    0.0000 </r>
       <r>   18.3593    0.0000 </r>
       <r>   18.6122    0.0000 </r>
       <r>   18.6941    0.0000 </r>
      </set>
      <set comment="kpoint 18">
       <r>   -9.4905    1.0000 </r>
       <r>   -6.2817    1.0000 </r>
       <r>   -2.7757    1.0000 </r>
       <r>   -1.9132    1.0000 </r>
       <r>   -0.8879    1.0000 </r>
       <r>   -0.0653    1.0000 </r>
       <r>    2.1643    1.0000 </r>
       <r>    2.9095    1.0000 </r>
       <r>    3.2444    1.0000 </r>
       <r>    3.8344    1.0000 </r>
       <r>    4.3909    1.0000 </r>
       <r>    5.2022    1.0000 </r>
       <r>    5.6009    1.0000 </r>
       <r>    7.3438    1.0000 </r>
       <r>    8.2483    1.0000 </r>
       <r>    9.3561    1.0000 </r>
       <r>   15.4635    0.0000 </r>
       <r>   16.3315    0.0000 </r>
       <r>   17.7894    0.0000 </r>
       <r>   18.4206    0.0000 </r>
       <r>   18.7957    0.0000 </r>
       <r>   19.4699    0.0000 </r>
       <r>   19.5865    0.0000 </r>
       <r>   19.6514    0.0000 </r>
      </set>
      <set comment="kpoint 19">
       <r>   -9.0286    1.0000 </r>
       <r>   -7.0904    1.0000 </r>
       <r>   -2.4751    1.0000 </r>
       <r>   -1.8997    1.0000 </r>
       <r>   -0.7041    1.0000 </r>
       <r>   -0.1573    1.0000 </r>
       <r>    1.9777    1.0000 </r>
       <r>    2.5273    1.0000 </r>
       <r>    3.6254    1.0000 </r>
       <r>    4.0657    1.0000 </r>
       <r>    4.2152    1.0000 </r>
       <r>    5.7244    1.0000 </r>
       <r>    6.1634    1.0000 </r>
       <r>    6.5965    1.0000 </r>
       <r>    7.5553    1.0000 </r>
       <r>    8.5712    1.0000 </r>
       <r>   15.5381    0.0000 </r>
       <r>   16.1133    0.0000 </r>
       <r>   18.8982    0.0000 </r>
       <r>   19.6563    0.0000 </r>
       <r>   19.7504    0.0000 </r>
       <r>   20.5732    0.0000 </r>
       <r>   20.5848    0.0000 </r>
       <r>   20.7227    0.0000 </r>
      </set>
      <set comment="kpoint 20">
       <r>   -8.4771    1.0000 </r>
       <r>   -7.8174    1.0000 </r>
       <r>   -2.1804    1.0000 </r>
       <r>   -2.0291    1.0000 </r>
       <r>   -0.4721    1.0000 </r>
       <r>   -0.3257    1.0000 </r>
       <r>    2.0018    1.0000 </r>
       <r>    2.2150    1.0000 </r>
       <r>    3.5950    1.0000 </r>
       <r>    3.7778    1.0000 </r>
       <r>    5.0752    1.0000 </r>
       <r>    5.8585    1.0000 </r>
       <r>    6.2917    1.0000 </r>
       <r>    6.8931    1.0000 </r>
       <r>    6.8983    1.0000 </r>
       <r>    7.7170    1.0000 </r>
       <r>   15.6669    0.0000 </r>
       <r>   15.9057    0.0000 </r>
       <r>   20.0579    0.0000 </r>
       <r>   20.6473    0.0000 </r>
       <r>   20.8080    0.0000 </r>
       <r>   21.2151    0.0000 </r>
       <r>   21.5871    0.0000 </r>
       <r>   21.8127    0.0000 </r>
      </set>
      <set comment="kpoint 21">
       <r>   -8.4593    1.0000 </r>
       <r>   -7.8381    1.0000 </r>
       <r>   -2.2707    1.0000 </r>
       <r>   -1.9520    1.0000 </r>
       <r>   -0.5257    1.0000 </r>
       <r>   -0.2305    1.0000 </r>
       <r>    2.0155    1.0000 </r>
       <r>    2.2027    1.0000 </r>
       <r>    3.5992    1.0000 </r>
       <r>    3.7376    1.0000 </r>
       <r>    5.1026    1.0000 </r>
       <r>    5.8635    1.0000 </r>
       <r>    6.2658    1.0000 </r>
       <r>    6.8741    1.0000 </r>
       <r>    6.8998    1.0000 </r>
       <r>    7.7360    1.0000 </r>
       <r>   15.7253    0.0000 </r>
       <r>   15.8374    0.0000 </r>
       <r>   19.8276    0.0000 </r>
       <r>   20.5700    0.0000 </r>
       <r>   20.8658    0.0000 </r>
       <r>   21.3786    0.0000 </r>
       <r>   21.4630    0.0000 </r>
       <r>   21.7725    0.0000 </r>
      </set>
      <set comment="kpoint 22">
       <r>   -9.0136    1.0000 </r>
       <r>   -7.1141    1.0000 </r>
       <r>   -2.5615    1.0000 </r>
       <r>   -1.8597    1.0000 </r>
       <r>   -0.7002    1.0000 </r>
       <r>   -0.0431    1.0000 </r>
       <r>    1.9953    1.0000 </r>
       <r>    2.5263    1.0000 </r>
       <r>    3.5894    1.0000 </r>
       <r>    3.9951    1.0000 </r>
       <r>    4.2702    1.0000 </r>
       <r>    5.6681    1.0000 </r>
       <r>    6.1504    1.0000 </r>
       <r>    6.6290    1.0000 </r>
       <r>    7.5520    1.0000 </r>
       <r>    8.5801    1.0000 </r>
       <r>   15.5866    0.0000 </r>
       <r>   16.0346    0.0000 </r>
       <r>   18.6471    0.0000 </r>
       <r>   19.4611    0.0000 </r>
       <r>   19.8037    0.0000 </r>
       <r>   20.4635    0.0000 </r>
       <r>   20.7168    0.0000 </r>
       <r>   20.8538    0.0000 </r>
      </set>
      <set comment="kpoint 23">
       <r>   -9.4783    1.0000 </r>
       <r>   -6.3085    1.0000 </r>
       <r>   -2.8501    1.0000 </r>
       <r>   -1.9147    1.0000 </r>
       <r>   -0.8380    1.0000 </r>
       <r>    0.0464    1.0000 </r>
       <r>    2.1967    1.0000 </r>
       <r>    2.9328    1.0000 </r>
       <r>    3.3110    1.0000 </r>
       <r>    3.7596    1.0000 </r>
       <r>    4.2958    1.0000 </r>
       <r>    5.1278    1.0000 </r>
       <r>    5.6041    1.0000 </r>
       <r>    7.3968    1.0000 </r>
       <r>    8.2396    1.0000 </r>
       <r>    9.3558    1.0000 </r>
       <r>   15.5019    0.0000 </r>
       <r>   16.2407    0.0000 </r>
       <r>   17.5369    0.0000 </r>
       <r>   18.2417    0.0000 </r>
       <r>   18.8438    0.0000 </r>
       <r>   19.4760    0.0000 </r>
       <r>   19.6715    0.0000 </r>
       <r>   19.7189    0.0000 </r>
      </set>
      <set comment="kpoint 24">
       <r>   -9.8520    1.0000 </r>
       <r>   -5.4256    1.0000 </r>
       <r>   -3.1041    1.0000 </r>
       <r>   -2.0473    1.0000 </r>
       <r>   -0.9656    1.0000 </r>
       <r>    0.0446    1.0000 </r>
       <r>    2.2383    1.0000 </r>
[...]
       <r>   -4.7836    1.0000 </r>
       <r>   -4.6036    1.0000 </r>
       <r>   -2.2122    1.0000 </r>
       <r>   -2.2065    1.0000 </r>
       <r>   -1.4564    1.0000 </r>
       <r>   -0.9258    1.0000 </r>
       <r>    7.1224    1.0000 </r>
       <r>    7.2509    1.0000 </r>
       <r>    7.6676    1.0000 </r>
       <r>    7.6948    1.0000 </r>
       <r>    7.7398    1.0000 </r>
       <r>    7.7659    1.0000 </r>
       <r>    7.9948    1.0000 </r>
       <r>    8.1222    1.0000 </r>
       <r>   18.8538    0.0000 </r>
       <r>   18.9736    0.0000 </r>
       <r>   19.0558    0.0000 </r>
       <r>   19.0854    0.0000 </r>
       <r>   19.4402    0.0000 </r>
       <r>   19.5902    0.0000 </r>
       <r>   19.6825    0.0000 </r>
       <r>   19.7841    0.0000 </r>
      </set>
      <set comment="kpoint 278">
       <r>   -5.4627    1.0000 </r>
       <r>   -4.9872    1.0000 </r>
       <r>   -4.9872    1.0000 </r>
       <r>   -4.8677    1.0000 </r>
       <r>   -2.2923    1.0000 </r>
       <r>   -2.0031    1.0000 </r>
       <r>   -2.0031    1.0000 </r>
       <r>   -1.5375    1.0000 </r>
       <r>    7.5693    1.0000 </r>
       <r>    7.6086    1.0000 </r>
       <r>    7.6086    1.0000 </r>
       <r>    7.8749    1.0000 </r>
       <r>    7.9337    1.0000 </r>
       <r>    7.9337    1.0000 </r>
       <r>    7.9815    1.0000 </r>
       <r>    8.1204    1.0000 </r>
       <r>   19.1678    0.0000 </r>
       <r>   19.1678    0.0000 </r>
       <r>   19.1903    0.0000 </r>
       <r>   19.2258    0.0000 </r>
       <r>   19.3487    0.0000 </r>
       <r>   19.3487    0.0000 </r>
       <r>   19.3750    0.0000 </r>
       <r>   19.6367    0.0000 </r>
      </set>
      <set comment="kpoint 279">
       <r>   -5.2294    1.0000 </r>
       <r>   -4.7693    1.0000 </r>
       <r>   -4.7693    1.0000 </r>
       <r>   -4.7693    1.0000 </r>
       <r>   -2.3873    1.0000 </r>
       <r>   -2.3873    1.0000 </r>
       <r>   -2.3873    1.0000 </r>
       <r>   -2.1075    1.0000 </r>
       <r>    7.9206    1.0000 </r>
       <r>    7.9206    1.0000 </r>
       <r>    7.9206    1.0000 </r>
       <r>    7.9646    1.0000 </r>
       <r>    7.9646    1.0000 </r>
       <r>    7.9646    1.0000 </r>
       <r>    8.1802    1.0000 </r>
       <r>    8.1802    1.0000 </r>
       <r>   19.1314    0.0000 </r>
       <r>   19.1314    0.0000 </r>
       <r>   19.1314    0.0000 </r>
       <r>   19.3501    0.0000 </r>
       <r>   19.3501    0.0000 </r>
       <r>   19.4885    0.0000 </r>
       <r>   19.4885    0.0000 </r>
       <r>   19.4885    0.0000 </r>
      </set>
      <set comment="kpoint 280">
       <r>   -5.0724    1.0000 </r>
       <r>   -4.9516    1.0000 </r>
       <r>   -4.7713    1.0000 </r>
       <r>   -4.7713    1.0000 </r>
       <r>   -2.3839    1.0000 </r>
       <r>   -2.3839    1.0000 </r>
       <r>   -2.3795    1.0000 </r>
       <r>   -2.0879    1.0000 </r>
       <r>    7.9071    1.0000 </r>
       <r>    7.9071    1.0000 </r>
       <r>    7.9746    1.0000 </r>
       <r>    7.9746    1.0000 </r>
       <r>    8.0309    1.0000 </r>
       <r>    8.0518    1.0000 </r>
       <r>    8.0685    1.0000 </r>
       <r>    8.0905    1.0000 </r>
       <r>   19.1331    0.0000 </r>
       <r>   19.1500    0.0000 </r>
       <r>   19.1500    0.0000 </r>
       <r>   19.2961    0.0000 </r>
       <r>   19.3691    0.0000 </r>
       <r>   19.3974    0.0000 </r>
       <r>   19.3974    0.0000 </r>
       <r>   19.4745    0.0000 </r>
      </set>
     </set>
    </set>
   </array>
  </eigenvalues>
  <separator name="orbital magnetization" >
   <v name="MAGDIPOLOUT">      0.00000000      0.00000000      0.00000000</v>
  </separator>
  <dos>
   <i name="efermi">     11.01420100 </i>
   <total>
    <array>
     <dimension dim="1">gridpoints</dimension>
     <dimension dim="2">spin</dimension>
     <field>energy</field>
     <field>total</field>
     <field>integrated</field>
     <set>
      <set comment="spin 1">
       <r>   -12.1752     0.0000     0.0000 </r>
       <r>   -12.0532     0.0000     0.0000 </r>
       <r>   -11.9312     0.0000     0.0000 </r>
       <r>   -11.8092     0.0000     0.0000 </r>
       <r>   -11.6871     0.0000     0.0000 </r>
       <r>   -11.5651     0.0000     0.0000 </r>
       <r>   -11.4431     0.0000     0.0000 </r>
       <r>   -11.3211     0.0000     0.0000 </r>
       <r>   -11.1991     0.0000     0.0000 </r>
       <r>   -11.0771     0.0000     0.0000 </r>
       <r>   -10.9551     0.0000     0.0000 </r>
       <r>   -10.8331     0.0000     0.0000 </r>
       <r>   -10.7111     0.0000     0.0000 </r>
       <r>   -10.5891     0.0006     0.0001 </r>
       <r>   -10.4671     0.0533     0.0066 </r>
       <r>   -10.3450     0.1731     0.0277 </r>
       <r>   -10.2230     0.2192     0.0545 </r>
       <r>   -10.1010     0.3275     0.0944 </r>
       <r>    -9.9790     0.2350     0.1231 </r>
       <r>    -9.8570     0.4443     0.1773 </r>
       <r>    -9.7350     0.3437     0.2192 </r>
       <r>    -9.6130     0.4032     0.2684 </r>
       <r>    -9.4910     0.4993     0.3293 </r>
       <r>    -9.3690     0.4949     0.3897 </r>
       <r>    -9.2470     0.5389     0.4555 </r>
       <r>    -9.1250     0.3873     0.5027 </r>
       <r>    -9.0029     0.6869     0.5865 </r>
       <r>    -8.8809     0.6392     0.6645 </r>
       <r>    -8.7589     0.5381     0.7302 </r>
       <r>    -8.6369     0.4836     0.7892 </r>
       <r>    -8.5149     0.7551     0.8813 </r>
       <r>    -8.3929     0.7984     0.9787 </r>
       <r>    -8.2709     0.5924     1.0510 </r>
       <r>    -8.1489     0.7557     1.1432 </r>
       <r>    -8.0269     0.6372     1.2210 </r>
       <r>    -7.9049     0.8514     1.3249 </r>
       <r>    -7.7829     0.5859     1.3963 </r>
       <r>    -7.6608     0.9629     1.5138 </r>
       <r>    -7.5388     1.0184     1.6381 </r>
       <r>    -7.4168     0.5589     1.7063 </r>
       <r>    -7.2948     0.8024     1.8042 </r>
       <r>    -7.1728     0.7643     1.8974 </r>
       <r>    -7.0508     1.2098     2.0450 </r>
       <r>    -6.9288     0.8918     2.1538 </r>
       <r>    -6.8068     0.9303     2.2673 </r>
       <r>    -6.6848     0.7618     2.3603 </r>
       <r>    -6.5628     1.0771     2.4917 </r>
       <r>    -6.4407     0.8644     2.5972 </r>
       <r>    -6.3187     1.0802     2.7290 </r>
       <r>    -6.1967     1.0121     2.8525 </r>
       <r>    -6.0747     1.1303     2.9904 </r>
       <r>    -5.9527     1.0322     3.1163 </r>
       <r>    -5.8307     1.2350     3.2670 </r>
       <r>    -5.7087     1.1966     3.4130 </r>
       <r>    -5.5867     0.6797     3.4959 </r>
       <r>    -5.4647     1.0993     3.6300 </r>
       <r>    -5.3427     1.6203     3.8277 </r>
       <r>    -5.2207     1.3137     3.9880 </r>
       <r>    -5.0986     1.2121     4.1359 </r>
       <r>    -4.9766     1.4051     4.3073 </r>
       <r>    -4.8546     1.1854     4.4520 </r>
       <r>    -4.7326     1.3816     4.6205 </r>
       <r>    -4.6106     1.6651     4.8237 </r>
       <r>    -4.4886     1.5038     5.0072 </r>
       <r>    -4.3666     1.4129     5.1795 </r>
       <r>    -4.2446     1.4355     5.3547 </r>
       <r>    -4.1226     1.4328     5.5295 </r>
       <r>    -4.0006     1.7261     5.7401 </r>
       <r>    -3.8786     1.1230     5.8771 </r>
       <r>    -3.7565     1.1200     6.0138 </r>
       <r>    -3.6345     1.0330     6.1398 </r>
       <r>    -3.5125     0.9849     6.2600 </r>
       <r>    -3.3905     1.7092     6.4685 </r>
       <r>    -3.2685     1.3521     6.6335 </r>
       <r>    -3.1465     0.6635     6.7144 </r>
       <r>    -3.0245     1.1634     6.8564 </r>
       <r>    -2.9025     1.1491     6.9966 </r>
       <r>    -2.7805     1.1183     7.1330 </r>
       <r>    -2.6585     0.8721     7.2394 </r>
       <r>    -2.5365     0.6024     7.3129 </r>
       <r>    -2.4144     0.6761     7.3954 </r>
       <r>    -2.2924     1.0883     7.5282 </r>
       <r>    -2.1704     1.3041     7.6873 </r>
       <r>    -2.0484     1.2908     7.8448 </r>
       <r>    -1.9264     1.3861     8.0139 </r>
       <r>    -1.8044     1.1200     8.1506 </r>
       <r>    -1.6824     0.6475     8.2296 </r>
       <r>    -1.5604     0.8456     8.3328 </r>
       <r>    -1.4384     1.0947     8.4663 </r>
       <r>    -1.3164     0.8161     8.5659 </r>
       <r>    -1.1944     1.0467     8.6936 </r>
       <r>    -1.0723     1.8949     8.9248 </r>
       <r>    -0.9503     1.6094     9.1212 </r>
       <r>    -0.8283     1.8388     9.3455 </r>
       <r>    -0.7063     2.3967     9.6379 </r>
       <r>    -0.5843     2.1633     9.9019 </r>
       <r>    -0.4623     2.2201    10.1728 </r>
       <r>    -0.3403     1.3077    10.3323 </r>
       <r>    -0.2183     2.2623    10.6083 </r>
       <r>    -0.0963     2.3166    10.8910 </r>
       <r>     0.0257     2.4450    11.1893 </r>
       <r>     0.1478     1.5685    11.3807 </r>
       <r>     0.2698     1.3188    11.5416 </r>
       <r>     0.3918     0.8452    11.6447 </r>
       <r>     0.5138     1.2342    11.7953 </r>
       <r>     0.6358     1.3795    11.9636 </r>
       <r>     0.7578     1.0426    12.0908 </r>
       <r>     0.8798     1.2078    12.2382 </r>
       <r>     1.0018     1.5206    12.4237 </r>
       <r>     1.1238     1.4909    12.6056 </r>
       <r>     1.2458     0.7869    12.7016 </r>
       <r>     1.3678     0.8904    12.8102 </r>
       <r>     1.4899     1.3644    12.9767 </r>
       <r>     1.6119     0.9993    13.0986 </r>
       <r>     1.7339     1.2328    13.2491 </r>
       <r>     1.8559     1.4137    13.4215 </r>
       <r>     1.9779     1.7361    13.6334 </r>
       <r>     2.0999     2.1474    13.8954 </r>
       <r>     2.2219     1.7921    14.1140 </r>
       <r>     2.3439     2.3931    14.4060 </r>
       <r>     2.4659     2.0490    14.6560 </r>
       <r>     2.5879     2.5946    14.9726 </r>
       <r>     2.7099     1.6873    15.1784 </r>
       <r>     2.8320     1.6379    15.3783 </r>
       <r>     2.9540     1.3825    15.5469 </r>
       <r>     3.0760     2.3418    15.8327 </r>
       <r>     3.1980     3.0451    16.2042 </r>
       <r>     3.3200     2.6245    16.5244 </r>
       <r>     3.4420     1.2113    16.6722 </r>
       <r>     3.5640     1.8500    16.8979 </r>
       <r>     3.6860     2.2902    17.1774 </r>
       <r>     3.8080     2.5471    17.4881 </r>
       <r>     3.9300     2.6116    17.8068 </r>
       <r>     4.0520     2.3987    18.0994 </r>
       <r>     4.1741     2.1463    18.3613 </r>
       <r>     4.2961     2.0735    18.6143 </r>
       <r>     4.4181     3.0800    18.9901 </r>
       <r>     4.5401     3.4684    19.4133 </r>
       <r>     4.6621     3.0594    19.7865 </r>
       <r>     4.7841     2.7940    20.1274 </r>
       <r>     4.9061     2.9246    20.4842 </r>
       <r>     5.0281     2.8237    20.8288 </r>
       <r>     5.1501     2.9841    21.1928 </r>
       <r>     5.2721     4.3517    21.7238 </r>
       <r>     5.3941     3.6075    22.1639 </r>
       <r>     5.5162     1.9513    22.4020 </r>
       <r>     5.6382     2.0794    22.6557 </r>
       <r>     5.7602     3.2280    23.0496 </r>
       <r>     5.8822     3.6394    23.4936 </r>
       <r>     6.0042     3.5188    23.9229 </r>
       <r>     6.1262     2.1728    24.1880 </r>
       <r>     6.2482     2.6072    24.5061 </r>
       <r>     6.3702     3.1654    24.8923 </r>
       <r>     6.4922     2.6273    25.2129 </r>
       <r>     6.6142     2.8713    25.5632 </r>
       <r>     6.7363     3.0253    25.9323 </r>
       <r>     6.8583     2.4394    26.2300 </r>
       <r>     6.9803     2.1853    26.4966 </r>
       <r>     7.1023     3.4119    26.9129 </r>
       <r>     7.2243     3.0305    27.2826 </r>
       <r>     7.3463     2.2511    27.5573 </r>
       <r>     7.4683     2.3081    27.8389 </r>
       <r>     7.5903     2.4269    28.1350 </r>
       <r>     7.7123     2.3808    28.4255 </r>
       <r>     7.8343     3.8162    28.8911 </r>
       <r>     7.9563     2.3742    29.1808 </r>
       <r>     8.0784     1.4153    29.3534 </r>
       <r>     8.2004     2.0469    29.6032 </r>
       <r>     8.3224     2.2926    29.8829 </r>
       <r>     8.4444     2.0615    30.1344 </r>
       <r>     8.5664     1.8651    30.3620 </r>
       <r>     8.6884     0.8603    30.4670 </r>
       <r>     8.8104     0.8581    30.5717 </r>
       <r>     8.9324     1.6346    30.7711 </r>
       <r>     9.0544     1.4302    30.9456 </r>
       <r>     9.1764     1.2583    31.0991 </r>
       <r>     9.2984     0.6114    31.1737 </r>
       <r>     9.4205     0.7412    31.2641 </r>
       <r>     9.5425     0.8017    31.3620 </r>
       <r>     9.6645     1.1632    31.5039 </r>
       <r>     9.7865     0.7153    31.5912 </r>
       <r>     9.9085     0.4250    31.6430 </r>
       <r>    10.0305     0.6312    31.7200 </r>
       <r>    10.1525     0.4974    31.7807 </r>
       <r>    10.2745     0.5205    31.8442 </r>
       <r>    10.3965     0.3210    31.8834 </r>
       <r>    10.5185     0.5078    31.9453 </r>
       <r>    10.6405     0.1118    31.9590 </r>
       <r>    10.7626     0.2632    31.9911 </r>
       <r>    10.8846     0.0726    32.0000 </r>
       <r>    11.0066     0.0004    32.0000 </r>
       <r>    11.1286     0.0000    32.0000 </r>
       <r>    11.2506     0.0000    32.0000 </r>
       <r>    11.3726     0.0000    32.0000 </r>
       <r>    11.4946     0.0000    32.0000 </r>
       <r>    11.6166     0.0000    32.0000 </r>
       <r>    11.7386     0.0000    32.0000 </r>
       <r>    11.8606     0.0000    32.0000 </r>
       <r>    11.9826     0.0000    32.0000 </r>
       <r>    12.1047     0.0000    32.0000 </r>
       <r>    12.2267     0.0000    32.0000 </r>
       <r>    12.3487     0.0000    32.0000 </r>
       <r>    12.4707     0.0000    32.0000 </r>
       <r>    12.5927     0.0000    32.0000 </r>
       <r>    12.7147     0.0000    32.0000 </r>
       <r>    12.8367     0.0000    32.0000 </r>
       <r>    12.9587     0.0000    32.0000 </r>
       <r>    13.0807     0.0000    32.0000 </r>
       <r>    13.2027     0.0000    32.0000 </r>
       <r>    13.3248     0.0000    32.0000 </r>
       <r>    13.4468     0.0000    32.0000 </r>
       <r>    13.5688     0.0000    32.0000 </r>
       <r>    13.6908     0.0000    32.0000 </r>
       <r>    13.8128     0.0000    32.0000 </r>
       <r>    13.9348     0.0000    32.0000 </r>
       <r>    14.0568     0.0000    32.0000 </r>
       <r>    14.1788     0.0000    32.0000 </r>
       <r>    14.3008     0.0000    32.0000 </r>
       <r>    14.4228     0.0000    32.0000 </r>
       <r>    14.5448     0.0000    32.0000 </r>
       <r>    14.6669     0.0000    32.0000 </r>
       <r>    14.7889     0.0000    32.0000 </r>
       <r>    14.9109     0.0000    32.0000 </r>
       <r>    15.0329     0.0290    32.0035 </r>
       <r>    15.1549     0.4057    32.0530 </r>
       <r>    15.2769     0.2467    32.0831 </r>
       <r>    15.3989     0.2311    32.1113 </r>
       <r>    15.5209     0.9556    32.2279 </r>
       <r>    15.6429     0.8579    32.3326 </r>
       <r>    15.7649     0.9321    32.4463 </r>
       <r>    15.8869     0.6110    32.5209 </r>
       <r>    16.0090     0.9933    32.6421 </r>
       <r>    16.1310     0.9314    32.7557 </r>
       <r>    16.2530     2.0384    33.0044 </r>
       <r>    16.3750     1.8479    33.2299 </r>
       <r>    16.4970     1.4117    33.4021 </r>
       <r>    16.6190     1.6127    33.5989 </r>
       <r>    16.7410     1.5523    33.7883 </r>
       <r>    16.8630     1.4881    33.9699 </r>
       <r>    16.9850     1.9632    34.2094 </r>
       <r>    17.1070     2.2517    34.4841 </r>
       <r>    17.2290     2.5034    34.7895 </r>
       <r>    17.3511     2.2331    35.0620 </r>
       <r>    17.4731     1.9856    35.3043 </r>
       <r>    17.5951     1.8279    35.5273 </r>
       <r>    17.7171     2.6873    35.8552 </r>
       <r>    17.8391     2.3184    36.1380 </r>
       <r>    17.9611     2.5698    36.4516 </r>
       <r>    18.0831     2.2920    36.7312 </r>
       <r>    18.2051     2.1853    36.9978 </r>
       <r>    18.3271     3.1100    37.3773 </r>
       <r>    18.4491     3.3628    37.7876 </r>
       <r>    18.5711     3.6397    38.2316 </r>
       <r>    18.6932     3.5726    38.6675 </r>
       <r>    18.8152     3.2941    39.0694 </r>
       <r>    18.9372     3.1570    39.4546 </r>
       <r>    19.0592     3.7915    39.9172 </r>
       <r>    19.1812     3.9587    40.4002 </r>
       <r>    19.3032     3.3830    40.8130 </r>
       <r>    19.4252     4.1884    41.3240 </r>
       <r>    19.5472     5.4489    41.9888 </r>
       <r>    19.6692     4.9049    42.5873 </r>
       <r>    19.7912     2.6965    42.9163 </r>
       <r>    19.9133     3.5819    43.3533 </r>
       <r>    20.0353     2.8912    43.7060 </r>
       <r>    20.1573     2.2470    43.9802 </r>
       <r>    20.2793     2.4787    44.2826 </r>
       <r>    20.4013     2.5258    44.5908 </r>
       <r>    20.5233     3.6017    45.0302 </r>
       <r>    20.6453     3.3259    45.4360 </r>
       <r>    20.7673     2.9187    45.7921 </r>
       <r>    20.8893     2.7330    46.1256 </r>
       <r>    21.0113     2.3434    46.4115 </r>
       <r>    21.1333     2.3042    46.6927 </r>
       <r>    21.2554     1.8120    46.9137 </r>
       <r>    21.3774     1.2904    47.0712 </r>
       <r>    21.4994     1.7892    47.2895 </r>
       <r>    21.6214     1.6406    47.4896 </r>
       <r>    21.7434     1.0986    47.6237 </r>
       <r>    21.8654     1.5799    47.8164 </r>
       <r>    21.9874     0.4784    47.8748 </r>
       <r>    22.1094     0.4822    47.9336 </r>
       <r>    22.2314     0.2025    47.9583 </r>
       <r>    22.3534     0.0233    47.9612 </r>
       <r>    22.4754     0.0582    47.9683 </r>
       <r>    22.5975     0.0875    47.9790 </r>
       <r>    22.7195     0.0834    47.9891 </r>
       <r>    22.8415     0.0880    47.9999 </r>
       <r>    22.9635     0.0011    48.0000 </r>
       <r>    23.0855     0.0000    48.0000 </r>
       <r>    23.2075     0.0000    48.0000 </r>
       <r>    23.3295     0.0000    48.0000 </r>
       <r>    23.4515     0.0000    48.0000 </r>
       <r>    23.5735     0.0000    48.0000 </r>
       <r>    23.6955     0.0000    48.0000 </r>
       <r>    23.8175     0.0000    48.0000 </r>
       <r>    23.9396     0.0000    48.0000 </r>
       <r>    24.0616     0.0000    48.0000 </r>
       <r>    24.1836     0.0000    48.0000 </r>
       <r>    24.3056     0.0000    48.0000 </r>
       <r>    24.4276     0.0000    48.0000 </r>
      </set>
     </set>
    </array>
   </total>
  </dos>
 </calculation>
 <structure name="finalpos" >
  <crystal>
   <varray name="basis" >
    <v>       3.57360507       0.01191202       0.01191202 </v>
    <v>       0.01191202       3.57360507       0.01191202 </v>
    <v>       0.01191202       0.01191202       3.57360507 </v>
   </varray>
   <i name="volume">     45.63575319 </i>
   <varray name="rec_basis" >
    <v>       0.27983566      -0.00092969      -0.00092969 </v>
    <v>      -0.00092969       0.27983566      -0.00092969 </v>
    <v>      -0.00092969      -0.00092969       0.27983566 </v>
   </varray>
  </crystal>
  <varray name="positions" >
   <v>       0.24994607       0.24994607       0.24994607 </v>
   <v>       0.00005393       0.00005393       0.00005393 </v>
   <v>       0.24994607       0.74994607       0.74994607 </v>
   <v>       0.00005393       0.50005393       0.50005393 </v>
   <v>       0.74994607       0.24994607       0.74994607 </v>
   <v>       0.50005393       0.00005393       0.50005393 </v>
   <v>       0.74994607       0.74994607       0.24994607 </v>
   <v>       0.50005393       0.50005393       0.00005393 </v>
  </varray>
 </structure>
</modeling>
