unknown system                          
           1
     3.573605    0.011912    0.011912
     0.011912    3.573605    0.011912
     0.011912    0.011912    3.573605
   C 
   8
Direct configuration=     1
   0.25000000  0.25000000  0.25000000
   0.00000000  0.00000000  0.00000000
   0.25000000  0.75000000  0.75000000
   0.00000000  0.50000000  0.50000000
   0.75000000  0.25000000  0.75000000
   0.50000000  0.00000000  0.50000000
   0.75000000  0.75000000  0.25000000
   0.50000000  0.50000000  0.00000000
Direct configuration=     2
   0.24981459  0.24981459  0.24981459
   0.00018541  0.00018541  0.00018541
   0.24981459  0.74981459  0.74981459
   0.00018541  0.50018541  0.50018541
   0.74981459  0.24981459  0.74981459
   0.50018541  0.00018541  0.50018541
   0.74981459  0.74981459  0.24981459
   0.50018541  0.50018541  0.00018541
Direct configuration=     3
   0.24994607  0.24994607  0.24994607
   0.00005393  0.00005393  0.00005393
   0.24994607  0.74994607  0.74994607
   0.00005393  0.50005393  0.50005393
   0.74994607  0.24994607  0.74994607
   0.50005393  0.00005393  0.50005393
   0.74994607  0.74994607  0.24994607
   0.50005393  0.50005393  0.00005393
