   2   2   0   0
  0.7936477E+02  0.2460190E-09  0.2460190E-09  0.3028239E-08  0.5000000E-15
  1.000000000000000E-004
  CAR 
 unknown system                          
     17.75665980    -24.60955604  301     -3.55001625      1.00000000
    -24.610  0.0000E+00  0.0000E+00
    -24.468  0.0000E+00  0.0000E+00
    -24.327  0.0000E+00  0.0000E+00
    -24.186  0.0000E+00  0.0000E+00
    -24.045  0.0000E+00  0.0000E+00
    -23.903  0.0000E+00  0.0000E+00
    -23.762  0.0000E+00  0.0000E+00
    -23.621  0.0000E+00  0.0000E+00
    -23.480  0.0000E+00  0.0000E+00
    -23.339  0.0000E+00  0.0000E+00
    -23.197  0.0000E+00  0.0000E+00
    -23.056  0.0000E+00  0.0000E+00
    -22.915  0.6207E-13  0.8766E-14
    -22.774  0.1085E-04  0.1532E-05
    -22.632  0.2187E-02  0.3104E-03
    -22.491  0.1982E-02  0.5903E-03
    -22.350  0.4756E-02  0.1262E-02
    -22.209  0.2114E-02  0.1560E-02
    -22.068  0.2719E-02  0.1944E-02
    -21.926  0.2946E-02  0.2360E-02
    -21.785  0.4889E-02  0.3051E-02
    -21.644  0.2386E-02  0.3388E-02
    -21.503  0.1973E-02  0.3667E-02
    -21.361  0.3528E-02  0.4165E-02
    -21.220  0.1758E-02  0.4413E-02
    -21.079  0.5887E-02  0.5244E-02
    -20.938  0.3517E-02  0.5741E-02
    -20.797  0.8415E-03  0.5860E-02
    -20.655  0.5617E-02  0.6653E-02
    -20.514  0.1019E-03  0.6668E-02
    -20.373  0.3360E-02  0.7142E-02
    -20.232  0.3572E-02  0.7646E-02
    -20.090  0.4879E-02  0.8335E-02
    -19.949  0.3779E-02  0.8869E-02
    -19.808  0.8451E-03  0.8988E-02
    -19.667  0.4830E-02  0.9671E-02
    -19.526  0.3059E-02  0.1010E-01
    -19.384  0.3179E-02  0.1055E-01
    -19.243  0.2896E-04  0.1056E-01
    -19.102  0.1705E-02  0.1080E-01
    -18.961  0.9507E-02  0.1214E-01
    -18.820  0.3548E-02  0.1264E-01
    -18.678  0.1128E-02  0.1280E-01
    -18.537  0.3732E-02  0.1333E-01
    -18.396  0.1737E-02  0.1357E-01
    -18.255  0.6049E-02  0.1443E-01
    -18.113  0.1364E-02  0.1462E-01
    -17.972  0.3572E-02  0.1512E-01
    -17.831  0.1101E-02  0.1528E-01
    -17.690  0.3866E-02  0.1582E-01
    -17.549  0.8792E-02  0.1707E-01
    -17.407  0.4146E-02  0.1765E-01
    -17.266  0.4809E-02  0.1833E-01
    -17.125  0.2269E-04  0.1833E-01
    -16.984  0.2534E-02  0.1869E-01
    -16.842  0.3362E-02  0.1917E-01
    -16.701  0.2151E-05  0.1917E-01
    -16.560  0.1224E-03  0.1918E-01
    -16.419  0.1890E-02  0.1945E-01
    -16.278  0.5817E-02  0.2027E-01
    -16.136  0.3949E-02  0.2083E-01
    -15.995  0.3092E-02  0.2127E-01
    -15.854  0.2009E-02  0.2155E-01
    -15.713  0.1101E-02  0.2171E-01
    -15.571  0.5555E-02  0.2249E-01
    -15.430  0.4510E-02  0.2313E-01
    -15.289  0.7350E-02  0.2417E-01
    -15.148  0.3625E-02  0.2468E-01
    -15.007  0.3196E-03  0.2472E-01
    -14.865  0.3591E-02  0.2523E-01
    -14.724  0.6235E-02  0.2611E-01
    -14.583  0.8312E-05  0.2611E-01
    -14.442  0.4117E-03  0.2617E-01
    -14.300  0.7472E-02  0.2722E-01
    -14.159  0.3828E-02  0.2777E-01
    -14.018  0.1462E-02  0.2797E-01
    -13.877  0.3741E-02  0.2850E-01
    -13.736  0.7922E-03  0.2861E-01
    -13.594  0.3271E-02  0.2907E-01
    -13.453  0.4151E-02  0.2966E-01
    -13.312  0.3364E-02  0.3014E-01
    -13.171  0.7180E-02  0.3115E-01
    -13.029  0.3670E-02  0.3167E-01
    -12.888  0.1743E-02  0.3191E-01
    -12.747  0.2498E-02  0.3227E-01
    -12.606  0.3817E-02  0.3281E-01
    -12.465  0.1811E-02  0.3306E-01
    -12.323  0.1937E-02  0.3333E-01
    -12.182  0.7331E-02  0.3437E-01
    -12.041  0.7274E-02  0.3540E-01
    -11.900  0.1245E-02  0.3557E-01
    -11.758  0.5466E-02  0.3634E-01
    -11.617  0.4234E-02  0.3694E-01
    -11.476  0.1326E-02  0.3713E-01
    -11.335  0.5918E-02  0.3797E-01
    -11.194  0.2220E-02  0.3828E-01
    -11.052  0.6473E-02  0.3919E-01
    -10.911  0.4599E-02  0.3984E-01
    -10.770  0.1901E-02  0.4011E-01
    -10.629  0.9214E-02  0.4141E-01
    -10.487  0.7003E-02  0.4240E-01
    -10.346  0.7960E-02  0.4353E-01
    -10.205  0.6500E-02  0.4444E-01
    -10.064  0.1350E-01  0.4635E-01
     -9.923  0.5973E-02  0.4719E-01
     -9.781  0.1008E-01  0.4862E-01
     -9.640  0.7972E-02  0.4974E-01
     -9.499  0.9684E-02  0.5111E-01
     -9.358  0.1344E-01  0.5301E-01
     -9.216  0.8426E-02  0.5420E-01
     -9.075  0.2200E-02  0.5451E-01
     -8.934  0.1135E-01  0.5611E-01
     -8.793  0.8171E-02  0.5726E-01
     -8.652  0.1032E-01  0.5872E-01
     -8.510  0.7151E-02  0.5973E-01
     -8.369  0.5950E-02  0.6057E-01
     -8.228  0.1860E-02  0.6083E-01
     -8.087  0.7403E-02  0.6188E-01
     -7.946  0.5018E-02  0.6259E-01
     -7.804  0.6740E-02  0.6354E-01
     -7.663  0.1031E-01  0.6500E-01
     -7.522  0.5848E-02  0.6582E-01
     -7.381  0.3036E-02  0.6625E-01
     -7.239  0.7016E-02  0.6724E-01
     -7.098  0.7514E-02  0.6830E-01
     -6.957  0.2329E-02  0.6863E-01
     -6.816  0.3017E-02  0.6906E-01
     -6.675  0.6213E-02  0.6993E-01
     -6.533  0.8180E-02  0.7109E-01
     -6.392  0.7022E-02  0.7208E-01
     -6.251  0.5498E-02  0.7286E-01
     -6.110  0.3370E-02  0.7333E-01
     -5.968  0.3313E-02  0.7380E-01
     -5.827  0.4268E-02  0.7440E-01
     -5.686  0.5493E-02  0.7518E-01
     -5.545  0.2586E-02  0.7555E-01
     -5.404  0.2283E-02  0.7587E-01
     -5.262  0.3072E-02  0.7630E-01
     -5.121  0.1365E-01  0.7823E-01
     -4.980  0.7368E-03  0.7833E-01
     -4.839  0.8112E-09  0.7833E-01
     -4.697  0.4962E-03  0.7840E-01
     -4.556  0.3432E-02  0.7889E-01
     -4.415  0.1663E-02  0.7912E-01
     -4.274  0.3121E-03  0.7917E-01
     -4.133  0.1649E-02  0.7940E-01
     -3.991  0.3158E-03  0.7944E-01
     -3.850  0.7286E-03  0.7955E-01
     -3.709  0.3202E-02  0.8000E-01
     -3.568  0.3824E-05  0.8000E-01
     -3.426  0.2582E-14  0.8000E-01
     -3.285  0.0000E+00  0.8000E-01
     -3.144  0.0000E+00  0.8000E-01
     -3.003  0.0000E+00  0.8000E-01
     -2.862  0.0000E+00  0.8000E-01
     -2.720  0.7818E-14  0.8000E-01
     -2.579  0.6378E-05  0.8000E-01
     -2.438  0.3350E-02  0.8047E-01
     -2.297  0.5789E-03  0.8056E-01
     -2.155  0.1578E-02  0.8078E-01
     -2.014  0.3872E-03  0.8083E-01
     -1.873  0.4207E-03  0.8089E-01
     -1.732  0.5318E-02  0.8164E-01
     -1.591  0.1738E-03  0.8167E-01
     -1.449  0.5055E-02  0.8238E-01
     -1.308  0.8385E-02  0.8357E-01
     -1.167  0.4605E-02  0.8422E-01
     -1.026  0.5524E-02  0.8500E-01
     -0.884  0.2541E-02  0.8536E-01
     -0.743  0.5097E-02  0.8608E-01
     -0.602  0.2540E-03  0.8611E-01
     -0.461  0.2357E-03  0.8614E-01
     -0.320  0.7476E-02  0.8720E-01
     -0.178  0.1562E-03  0.8722E-01
     -0.037  0.6560E-03  0.8731E-01
      0.104  0.4455E-02  0.8794E-01
      0.245  0.5298E-02  0.8869E-01
      0.387  0.5164E-02  0.8942E-01
      0.528  0.6070E-02  0.9028E-01
      0.669  0.4832E-02  0.9096E-01
      0.810  0.2363E-02  0.9129E-01
      0.951  0.4338E-02  0.9191E-01
      1.093  0.6283E-02  0.9279E-01
      1.234  0.1074E-01  0.9431E-01
      1.375  0.9967E-02  0.9572E-01
      1.516  0.9551E-02  0.9707E-01
      1.657  0.1186E-01  0.9874E-01
      1.799  0.1010E-01  0.1002E+00
      1.940  0.1228E-01  0.1019E+00
      2.081  0.1128E-01  0.1035E+00
      2.222  0.1647E-01  0.1058E+00
      2.364  0.2112E-01  0.1088E+00
      2.505  0.1234E-01  0.1105E+00
      2.646  0.1615E-01  0.1128E+00
      2.787  0.1305E-01  0.1147E+00
      2.928  0.1762E-01  0.1172E+00
      3.070  0.1742E-01  0.1196E+00
      3.211  0.1536E-01  0.1218E+00
      3.352  0.1966E-01  0.1246E+00
      3.493  0.1174E-01  0.1262E+00
      3.635  0.2462E-01  0.1297E+00
      3.776  0.1994E-01  0.1325E+00
      3.917  0.2186E-01  0.1356E+00
      4.058  0.1898E-01  0.1383E+00
      4.199  0.1836E-01  0.1409E+00
      4.341  0.2470E-01  0.1444E+00
      4.482  0.2556E-01  0.1480E+00
      4.623  0.2625E-01  0.1517E+00
      4.764  0.3357E-01  0.1564E+00
      4.906  0.1716E-01  0.1588E+00
      5.047  0.3242E-01  0.1634E+00
      5.188  0.3086E-01  0.1678E+00
      5.329  0.4154E-01  0.1736E+00
      5.470  0.3253E-01  0.1782E+00
      5.612  0.2365E-01  0.1816E+00
      5.753  0.3147E-01  0.1860E+00
      5.894  0.3310E-01  0.1907E+00
      6.035  0.3688E-01  0.1959E+00
      6.177  0.3135E-01  0.2003E+00
      6.318  0.4036E-01  0.2060E+00
      6.459  0.2546E-01  0.2096E+00
      6.600  0.1480E-01  0.2117E+00
      6.741  0.4061E-01  0.2175E+00
      6.883  0.3016E-01  0.2217E+00
      7.024  0.2058E-01  0.2246E+00
      7.165  0.3794E-01  0.2300E+00
      7.306  0.2617E-01  0.2337E+00
      7.448  0.3766E-01  0.2390E+00
      7.589  0.3834E-01  0.2444E+00
      7.730  0.3435E-01  0.2493E+00
      7.871  0.3756E-01  0.2546E+00
      8.012  0.3277E-01  0.2592E+00
      8.154  0.3807E-01  0.2646E+00
      8.295  0.2967E-01  0.2688E+00
      8.436  0.3850E-01  0.2742E+00
      8.577  0.2829E-01  0.2782E+00
      8.719  0.2714E-01  0.2820E+00
      8.860  0.3175E-01  0.2865E+00
      9.001  0.3063E-01  0.2908E+00
      9.142  0.4337E-01  0.2970E+00
      9.283  0.4925E-01  0.3039E+00
      9.425  0.2876E-01  0.3080E+00
      9.566  0.3052E-01  0.3123E+00
      9.707  0.3221E-01  0.3168E+00
      9.848  0.4884E-01  0.3237E+00
      9.990  0.3241E-01  0.3283E+00
     10.131  0.4268E-01  0.3343E+00
     10.272  0.4891E-01  0.3412E+00
     10.413  0.3620E-01  0.3463E+00
     10.554  0.2840E-01  0.3504E+00
     10.696  0.4076E-01  0.3561E+00
     10.837  0.3424E-01  0.3610E+00
     10.978  0.3579E-01  0.3660E+00
     11.119  0.5181E-01  0.3733E+00
     11.261  0.4197E-01  0.3792E+00
     11.402  0.3927E-01  0.3848E+00
     11.543  0.3578E-01  0.3898E+00
     11.684  0.3903E-01  0.3954E+00
     11.825  0.2750E-01  0.3992E+00
     11.967  0.3004E-01  0.4035E+00
     12.108  0.4012E-01  0.4092E+00
     12.249  0.4404E-01  0.4154E+00
     12.390  0.3172E-01  0.4199E+00
     12.531  0.3209E-01  0.4244E+00
     12.673  0.5315E-01  0.4319E+00
     12.814  0.3321E-01  0.4366E+00
     12.955  0.2440E-01  0.4400E+00
     13.096  0.3122E-01  0.4444E+00
     13.238  0.2332E-01  0.4477E+00
     13.379  0.2392E-01  0.4511E+00
     13.520  0.2491E-01  0.4546E+00
     13.661  0.2400E-01  0.4580E+00
     13.802  0.3001E-01  0.4622E+00
     13.944  0.2132E-01  0.4653E+00
     14.085  0.2630E-01  0.4690E+00
     14.226  0.1555E-01  0.4712E+00
     14.367  0.1778E-01  0.4737E+00
     14.509  0.1299E-01  0.4755E+00
     14.650  0.2354E-02  0.4758E+00
     14.791  0.5616E-02  0.4766E+00
     14.932  0.6282E-02  0.4775E+00
     15.073  0.5173E-02  0.4783E+00
     15.215  0.5596E-03  0.4783E+00
     15.356  0.6282E-02  0.4792E+00
     15.497  0.3532E-02  0.4797E+00
     15.638  0.4588E-05  0.4797E+00
     15.780  0.1440E-03  0.4797E+00
     15.921  0.1812E-02  0.4800E+00
     16.062  0.1084E-04  0.4800E+00
     16.203  0.6207E-13  0.4800E+00
     16.344  0.0000E+00  0.4800E+00
     16.486  0.0000E+00  0.4800E+00
     16.627  0.0000E+00  0.4800E+00
     16.768  0.0000E+00  0.4800E+00
     16.909  0.0000E+00  0.4800E+00
     17.051  0.0000E+00  0.4800E+00
     17.192  0.0000E+00  0.4800E+00
     17.333  0.0000E+00  0.4800E+00
     17.474  0.0000E+00  0.4800E+00
     17.615  0.0000E+00  0.4800E+00
     17.757  0.0000E+00  0.4800E+00
