 vasp.5.4.4.18Apr17-6-g9f103f2a35 (build Jan 14 2019 14:48:31) complex          
  
 executed on             LinuxIFC date 2019.09.10  15:54:02
 running on   24 total cores
 distrk:  each k-point on   24 cores,    1 groups
 distr:  one band on NCORES_PER_BAND=   1 cores,   24 groups


--------------------------------------------------------------------------------------------------------


 INCAR:
 POTCAR:    PAW_PBE C_h 06Feb2004                 

 ----------------------------------------------------------------------------- 
|                                                                             |
|           W    W    AA    RRRRR   N    N  II  N    N   GGGG   !!!           |
|           W    W   A  A   R    R  NN   N  II  NN   N  G    G  !!!           |
|           W    W  A    A  R    R  N N  N  II  N N  N  G       !!!           |
|           W WW W  AAAAAA  RRRRR   N  N N  II  N  N N  G  GGG   !            |
|           WW  WW  A    A  R   R   N   NN  II  N   NN  G    G                |
|           W    W  A    A  R    R  N    N  II  N    N   GGGG   !!!           |
|                                                                             |
|      For optimal performance we recommend to set                            |
|        NCORE= 4 - approx SQRT( number of cores)                             |
|      NCORE specifies how many cores store one orbital (NPAR=cpu/NCORE).     |
|      This setting can  greatly improve the performance of VASP for DFT.     |
|      The default,   NCORE=1            might be grossly inefficient         |
|      on modern multi-core architectures or massively parallel machines.     |
|      Do your own testing !!!!                                               |
|      Unfortunately you need to use the default for GW and RPA calculations. |
|      (for HF NCORE is supported but not extensively tested yet)             |
|                                                                             |
 ----------------------------------------------------------------------------- 

 POTCAR:    PAW_PBE C_h 06Feb2004                 
   VRHFIN =C: s2p2                                                              
   LEXCH  = PE                                                                  
   EATOM  =   147.1560 eV,   10.8157 Ry                                         
                                                                                
   TITEL  = PAW_PBE C_h 06Feb2004                                               
   LULTRA =        F    use ultrasoft PP ?                                      
   IUNSCR =        1    unscreen: 0-lin 1-nonlin 2-no                           
   RPACOR =    0.800    partial core radius                                     
   POMASS =   12.011; ZVAL   =    4.000    mass and valenz                      
   RCORE  =    1.100    outmost cutoff radius                                   
   RWIGS  =    1.630; RWIGS  =    0.863    wigner-seitz radius (au A)           
   ENMAX  =  700.000; ENMIN  =  500.000 eV                                      
   ICORE  =        2    local potential                                         
   LCOR   =        T    correct aug charges                                     
   LPAW   =        T    paw PP                                                  
   EAUG   =  946.768                                                            
   DEXC   =    0.000                                                            
   RMAX   =    1.128    core radius for proj-oper                               
   RAUG   =    1.300    factor for augmentation sphere                          
   RDEP   =    1.162    radius for radial grids                                 
   RDEPT  =    1.088    core radius for aug-charge                              
                                                                                
   Atomic configuration                                                         
    4 entries                                                                   
     n  l   j            E        occ.                                          
     1  0  0.50      -273.3789   2.0000                                         
     2  0  0.50       -13.7508   2.0000                                         
     2  1  0.50        -5.2854   2.0000                                         
     3  2  1.50        -5.4423   0.0000                                         
   Description                                                                  
     l       E           TYP  RCUT    TYP  RCUT                                 
     0    -13.7508458     23  1.100                                             
     0     -8.2022199     23  1.100                                             
     1     -5.2854383     23  1.100                                             
     1      1.1560700     23  1.100                                             
     2     -5.4423304      7  1.100                                             
  local pseudopotential read in
  partial core-charges read in
  partial kinetic energy density read in
  atomic valenz-charges read in
  non local Contribution for L=           0  read in
    real space projection operators read in
  non local Contribution for L=           0  read in
    real space projection operators read in
  non local Contribution for L=           1  read in
    real space projection operators read in
  non local Contribution for L=           1  read in
    real space projection operators read in
    PAW grid and wavefunctions read in
 
   number of l-projection  operators is LMAX  =           4
   number of lm-projection operators is LMMAX =           8
 
  PAW_PBE C_h 06Feb2004                 :
 energy of atom  1       EATOM= -147.1560
 kinetic energy error for atom=    0.0044 (will be added to EATOM!!)
 
 
 POSCAR: graphene                                
  positions in direct lattice
  velocities in cartesian coordinates
 exchange correlation table for  LEXCH =        8
   RHO(1)=    0.500       N(1)  =     2000
   RHO(2)=  100.500       N(2)  =     4000

 VTST: version 3.1, (03/28/14)

 CHAIN: initializing optimizer
 
 OPT: Using VASP Conjugate-Gradient optimizer
 CHAIN: Read ICHAIN            0
 
 POSCAR: graphene                                
  positions in direct lattice
  velocities in cartesian coordinates
 


--------------------------------------------------------------------------------------------------------


 ion  position               nearest neighbor table
   1  0.000  1.000  0.500-   2 1.42   2 1.42   2 1.42
   2  0.667  0.333  0.500-   1 1.42   1 1.42   1 1.42
 
  Warning from LATTYP: Got some problem with cell dimensions!
  Tried to take original basis but could not verify dimensions!
  LATTYP: Found a hexagonal cell.
 ALAT       =     2.4601857775
 C/A-ratio  =    12.3089865895
  
  Lattice vectors:
  
 A1 = (   2.4601857775,   0.0000000000,   0.0000000000)
 A2 = (  -1.2300928887,  -2.1305887421,   0.0000000000)
 A3 = (   0.0000000000,   0.0000000000, -30.2823937426)


Analysis of symmetry for initial positions (statically):
=====================================================================
 Subroutine PRICEL returns:
 Original cell was already a primitive cell.
 

 Routine SETGRP: Setting up the symmetry group for a 
 hexagonal supercell.


 Subroutine GETGRP returns: Found 24 space group operations
 (whereof 12 operations were pure point group operations)
 out of a pool of 24 trial point group operations.


The static configuration has the point symmetry D_3h.
 The point group associated with its full space group is D_6h.


Analysis of symmetry for dynamics (positions and initial velocities):
=====================================================================
 Subroutine PRICEL returns:
 Original cell was already a primitive cell.
 

 Routine SETGRP: Setting up the symmetry group for a 
 hexagonal supercell.


 Subroutine GETGRP returns: Found 24 space group operations
 (whereof 12 operations were pure point group operations)
 out of a pool of 24 trial point group operations.


The dynamic configuration has the point symmetry D_3h.
 The point group associated with its full space group is D_6h.


 Subroutine INISYM returns: Found 24 space group operations
 (whereof 12 operations are pure point group operations),
 and found     1 'primitive' translations

 
 
 KPOINTS: K-Mesh Generated with KP-Resolved Value 

Automatic generation of k-mesh.
Space group operators:
 irot       det(A)        alpha          n_x          n_y          n_z        tau_x        tau_y        tau_z
    1     1.000000     0.000000     1.000000     0.000000     0.000000     0.000000     0.000000     0.000000
    2    -1.000000    60.000000     0.000000     0.000000     1.000000     0.000000     0.000000     0.000000
    3     1.000000   120.000000     0.000000     0.000000     1.000000     0.000000     0.000000     0.000000
    4    -1.000000   179.999999     0.000000     0.000000     1.000000     0.000000     0.000000     0.000000
    5     1.000000   120.000000     0.000000     0.000000    -1.000000     0.000000     0.000000     0.000000
    6    -1.000000    60.000000     0.000000     0.000000    -1.000000     0.000000     0.000000     0.000000
    7    -1.000000   180.000000     1.000000     0.000000     0.000000     0.000000     0.000000     0.000000
    8     1.000000   180.000000     0.866026     0.499999     0.000000     0.000000     0.000000     0.000000
    9    -1.000000   180.000000    -0.500001    -0.866025     0.000000     0.000000     0.000000     0.000000
   10     1.000000   180.000000     0.000000     1.000000     0.000000     0.000000     0.000000     0.000000
   11    -1.000000   180.000000     0.500001    -0.866025     0.000000     0.000000     0.000000     0.000000
   12     1.000000   180.000000     0.866026    -0.499999     0.000000     0.000000     0.000000     0.000000
   13    -1.000000     0.000000     1.000000     0.000000     0.000000     0.666670     0.333330     0.000000
   14     1.000000    60.000000     0.000000     0.000000     1.000000     0.666670     0.333338     0.000000
   15    -1.000000   120.000000     0.000000     0.000000     1.000000     0.666662     0.333330     0.000000
   16     1.000000   179.999999     0.000000     0.000000     1.000000     0.666670     0.333330     0.000000
   17    -1.000000   120.000000     0.000000     0.000000    -1.000000     0.666670     0.333338     0.000000
   18     1.000000    60.000000     0.000000     0.000000    -1.000000     0.666662     0.333330     0.000000
   19     1.000000   180.000000     1.000000     0.000000     0.000000     0.666670     0.333330     0.000000
   20    -1.000000   180.000000     0.866026     0.499999     0.000000     0.666662     0.333330     0.000000
   21     1.000000   180.000000    -0.500001    -0.866025     0.000000     0.666670     0.333338     0.000000
   22    -1.000000   180.000000     0.000000     1.000000     0.000000     0.666670     0.333330     0.000000
   23     1.000000   180.000000     0.500001    -0.866025     0.000000     0.666662     0.333330     0.000000
   24    -1.000000   180.000000     0.866026    -0.499999     0.000000     0.666670     0.333338     0.000000
 
 Subroutine IBZKPT returns following result:
 ===========================================
 
 Found     42 irreducible k-points:
 
 Following reciprocal coordinates:
            Coordinates               Weight
  0.041667  0.041667  0.000000     48.000000
  0.125000  0.041667  0.000000     96.000000
  0.208333  0.041667  0.000000     96.000000
  0.291667  0.041667  0.000000     96.000000
  0.375000  0.041667  0.000000     96.000000
  0.458333  0.041667  0.000000     96.000000
 -0.458333  0.041667  0.000000     96.000000
 -0.375000  0.041667  0.000000     96.000000
 -0.291667  0.041667  0.000000     96.000000
 -0.208333  0.041667  0.000000     96.000000
 -0.125000  0.041667  0.000000     96.000000
 -0.041667  0.041667  0.000000     48.000000
  0.125000  0.125000  0.000000     48.000000
  0.208333  0.125000  0.000000     96.000000
  0.291667  0.125000  0.000000     96.000000
  0.375000  0.125000  0.000000     96.000000
  0.458333  0.125000  0.000000     96.000000
 -0.458333  0.125000  0.000000     96.000000
 -0.375000  0.125000  0.000000     96.000000
 -0.291667  0.125000  0.000000     96.000000
 -0.208333  0.125000  0.000000     96.000000
 -0.125000  0.125000  0.000000     48.000000
  0.208333  0.208333  0.000000     48.000000
  0.291667  0.208333  0.000000     96.000000
  0.375000  0.208333  0.000000     96.000000
  0.458333  0.208333  0.000000     96.000000
 -0.458333  0.208333  0.000000     96.000000
 -0.375000  0.208333  0.000000     96.000000
 -0.291667  0.208333  0.000000     96.000000
 -0.208333  0.208333  0.000000     48.000000
  0.291667  0.291667  0.000000     48.000000
  0.375000  0.291667  0.000000     96.000000
  0.458333  0.291667  0.000000     96.000000
 -0.458333  0.291667  0.000000     96.000000
 -0.375000  0.291667  0.000000     96.000000
 -0.291667  0.291667  0.000000     48.000000
  0.375000  0.375000  0.000000     48.000000
  0.458333  0.375000  0.000000     96.000000
 -0.458333  0.375000  0.000000     96.000000
 -0.375000  0.375000  0.000000     48.000000
  0.458333  0.458333  0.000000     48.000000
 -0.458333  0.458333  0.000000     48.000000
 
 Following cartesian coordinates:
            Coordinates               Weight
  0.083327  0.000000  0.000000     48.000000
  0.166654 -0.048109  0.000000     96.000000
  0.249981 -0.096218  0.000000     96.000000
  0.333308 -0.144326  0.000000     96.000000
  0.416635 -0.192435  0.000000     96.000000
  0.499962 -0.240544  0.000000     96.000000
 -0.416635  0.288653  0.000000     96.000000
 -0.333308  0.240544  0.000000     96.000000
 -0.249981  0.192435  0.000000     96.000000
 -0.166654  0.144326  0.000000     96.000000
 -0.083327  0.096218  0.000000     96.000000
  0.000000  0.048109  0.000000     48.000000
  0.249981  0.000000  0.000000     48.000000
  0.333308 -0.048109  0.000000     96.000000
  0.416635 -0.096218  0.000000     96.000000
  0.499962 -0.144326  0.000000     96.000000
  0.583289 -0.192435  0.000000     96.000000
 -0.333308  0.336761  0.000000     96.000000
 -0.249981  0.288653  0.000000     96.000000
 -0.166654  0.240544  0.000000     96.000000
 -0.083327  0.192435  0.000000     96.000000
  0.000000  0.144326  0.000000     48.000000
  0.416635  0.000000  0.000000     48.000000
  0.499962 -0.048109  0.000000     96.000000
  0.583289 -0.096218  0.000000     96.000000
  0.666616 -0.144326  0.000000     96.000000
 -0.249981  0.384870  0.000000     96.000000
 -0.166654  0.336761  0.000000     96.000000
 -0.083327  0.288653  0.000000     96.000000
  0.000000  0.240544  0.000000     48.000000
  0.583289  0.000000  0.000000     48.000000
  0.666616 -0.048109  0.000000     96.000000
  0.749943 -0.096218  0.000000     96.000000
 -0.166654  0.432979  0.000000     96.000000
 -0.083327  0.384870  0.000000     96.000000
  0.000000  0.336761  0.000000     48.000000
  0.749943  0.000000  0.000000     48.000000
  0.833270 -0.048109  0.000000     96.000000
 -0.083327  0.481088  0.000000     96.000000
  0.000000  0.432979  0.000000     48.000000
  0.916597  0.000000  0.000000     48.000000
  0.000000  0.529196  0.000000     48.000000
 


--------------------------------------------------------------------------------------------------------




 Dimension of arrays:
   k-points           NKPTS =     42   k-points in BZ     NKDIM =     42   number of bands    NBANDS=     24
   number of dos      NEDOS =    301   number of ions     NIONS =      2
   non local maximal  LDIM  =      4   non local SUM 2l+1 LMDIM =      8
   total plane-waves  NPLWV = 169344
   max r-space proj   IRMAX =      1   max aug-charges    IRDMAX=   2446
   dimension x,y,z NGX =    24 NGY =   24 NGZ =  294
   dimension x,y,z NGXF=    32 NGYF=   32 NGZF=  420
   support grid    NGXF=    32 NGYF=   32 NGZF=  420
   ions per type =               2
   NGX,Y,Z   is equivalent  to a cutoff of  16.22, 16.22, 16.14 a.u.
   NGXF,Y,Z  is equivalent  to a cutoff of  21.62, 21.62, 23.06 a.u.

 SYSTEM =  unknown system                          
 POSCAR =  graphene                                

 Startparameter for this run:
   NWRITE =      2    write-flag & timer
   PREC   = high      normal or accurate (medium, high low for compatibility)
   ISTART =      0    job   : 0-new  1-cont  2-samecut
   ICHARG =      2    charge: 1-file 2-atom 10-const
   ISPIN  =      1    spin polarized calculation?
   LNONCOLLINEAR =      F non collinear calculations
   LSORBIT =      F    spin-orbit coupling
   INIWAV =      1    electr: 0-lowe 1-rand  2-diag
   LASPH  =      F    aspherical Exc in radial PAW
   METAGGA=      F    non-selfconsistent MetaGGA calc.

 Electronic Relaxation 1
   ENCUT  =  875.0 eV  64.31 Ry    8.02 a.u.   5.93  5.93 73.04*2*pi/ulx,y,z
   ENINI  =  875.0     initial cutoff
   ENAUG  =  946.8 eV  augmentation charge cutoff
   NELM   =     40;   NELMIN=  2; NELMDL=  0     # of ELM steps 
   EDIFF  = 0.1E-06   stopping-criterion for ELM
   LREAL  =      F    real-space projection
   NLSPLINE    = F    spline interpolate recip. space projectors
   LCOMPAT=      F    compatible to vasp.4.4
   GGA_COMPAT  = T    GGA compatible to vasp.4.4-vasp.4.6
   LMAXPAW     = -100 max onsite density
   LMAXMIX     =    2 max onsite mixed and CHGCAR
   VOSKOWN=      0    Vosko Wilk Nusair interpolation
   ROPT   =    0.00000
 Ionic relaxation
   EDIFFG = -.1E-01   stopping-criterion for IOM
   NSW    =    100    number of steps for IOM
   NBLOCK =      1;   KBLOCK =    100    inner block; outer block 
   IBRION =      2    ionic relax: 0-MD 1-quasi-New 2-CG
   NFREE  =      1    steps in history (QN), initial steepest desc. (CG)
   ISIF   =      2    stress and relaxation
   IWAVPR =     11    prediction:  0-non 1-charg 2-wave 3-comb
   ISYM   =      2    0-nonsym 1-usesym 2-fastsym
   LCORR  =      T    Harris-Foulkes like correction to forces

   POTIM  = 0.5000    time-step for ionic-motion
   TEIN   =    0.0    initial temperature
   TEBEG  =    0.0;   TEEND  =   0.0 temperature during run
   SMASS  =  -3.00    Nose mass-parameter (am)
   estimated Nose-frequenzy (Omega)   =  0.10E-29 period in steps =****** mass=  -0.138E-27a.u.
   SCALEE = 1.0000    scale energy and forces
   NPACO  =    256;   APACO  = 16.0  distance and # of slots for P.C.
   PSTRESS=    0.0 pullay stress

  Mass of Ions in am
   POMASS =  12.01
  Ionic Valenz
   ZVAL   =   4.00
  Atomic Wigner-Seitz radii
   RWIGS  =  -1.00
  virtual crystal weights 
   VCA    =   1.00
   NELECT =       8.0000    total number of electrons
   NUPDOWN=      -1.0000    fix difference up-down

 DOS related values:
   EMIN   =  10.00;   EMAX   =-10.00  energy-range for DOS
   EFERMI =   0.00
   ISMEAR =     0;   SIGMA  =   0.05  broadening in eV -4-tet -1-fermi 0-gaus

 Electronic relaxation 2 (details)
   IALGO  =     48    algorithm
   LDIAG  =      T    sub-space diagonalisation (order eigenvalues)
   LSUBROT=      F    optimize rotation matrix (better conditioning)
   TURBO    =      0    0=normal 1=particle mesh
   IRESTART =      0    0=no restart 2=restart with 2 vectors
   NREBOOT  =      0    no. of reboots
   NMIN     =      0    reboot dimension
   EREF     =   0.00    reference energy to select bands
   IMIX   =      4    mixing-type and parameters
     AMIX     =   0.40;   BMIX     =  1.00
     AMIX_MAG =   1.60;   BMIX_MAG =  1.00
     AMIN     =   0.10
     WC   =   100.;   INIMIX=   1;  MIXPRE=   1;  MAXMIX= -45

 Intra band minimization:
   WEIMIN = 0.0010     energy-eigenvalue tresh-hold
   EBREAK =  0.10E-08  absolut break condition
   DEPER  =   0.30     relativ break condition  

   TIME   =   0.40     timestep for ELM

  volume/ion in A,a.u.               =      79.36       535.58
  Fermi-wavevector in a.u.,A,eV,Ry     =   0.604717  1.142750  4.975416  0.365683
  Thomas-Fermi vector in A             =   1.658174
 
 Write flags
   LWAVE        =      F    write WAVECAR
   LDOWNSAMPLE  =      F    k-point downsampling of WAVECAR
   LCHARG       =      F    write CHGCAR
   LVTOT        =      F    write LOCPOT, total local potential
   LVHAR        =      F    write LOCPOT, Hartree potential only
   LELF         =      F    write electronic localiz. function (ELF)
   LORBIT       =      0    0 simple, 1 ext, 2 COOP (PROOUT), +10 PAW based schemes


 Dipole corrections
   LMONO  =      F    monopole corrections only (constant potential shift)
   LDIPOL =      F    correct potential (dipole corrections)
   IDIPOL =      0    1-x, 2-y, 3-z, 4-all directions 
   EPSILON=  1.0000000 bulk dielectric constant

 Exchange correlation treatment:
   GGA     =    --    GGA type
   LEXCH   =     8    internal setting for exchange type
   VOSKOWN=      0    Vosko Wilk Nusair interpolation
   LHFCALC =     F    Hartree Fock is set to
   LHFONE  =     F    Hartree Fock one center treatment
   AEXX    =    0.0000 exact exchange contribution

 Linear response parameters
   LEPSILON=     F    determine dielectric tensor
   LRPA    =     F    only Hartree local field effects (RPA)
   LNABLA  =     F    use nabla operator in PAW spheres
   LVEL    =     F    velocity operator in full k-point grid
   LINTERFAST=   F  fast interpolation
   KINTER  =     0    interpolate to denser k-point grid
   CSHIFT  =0.1000    complex shift for real part using Kramers Kronig
   OMEGAMAX=  -1.0    maximum frequency
   DEG_THRESHOLD= 0.2000000E-02 threshold for treating states as degnerate
   RTIME   =   -0.100 relaxation time in fs
  (WPLASMAI=    0.000 imaginary part of plasma frequency in eV, 0.658/RTIME)
   DFIELD  = 0.0000000 0.0000000 0.0000000 field for delta impulse in time
 
 Orbital magnetization related:
   ORBITALMAG=     F  switch on orbital magnetization
   LCHIMAG   =     F  perturbation theory with respect to B field
   DQ        =  0.001000  dq finite difference perturbation B field
   LLRAUG    =     F  two centre corrections for induced B field



--------------------------------------------------------------------------------------------------------


 conjugate gradient relaxation of ions
 charge density and potential will be updated during run
 non-spin polarized calculation
 RMM-DIIS sequential band-by-band
 perform sub-space diagonalisation
    before iterative eigenvector-optimisation
 modified Broyden-mixing scheme, WC =      100.0
 initial mixing is a Kerker type mixing with AMIX =  0.4000 and BMIX =      1.0000
 Hartree-type preconditioning will be used
 using additional bands           20
 reciprocal scheme for non local part
 use partial core corrections
 calculate Harris-corrections to forces 
   (improved forces if not selfconsistent)
 use gradient corrections 
 use of overlap-Matrix (Vanderbilt PP)
 Gauss-broadening in eV      SIGMA  =   0.05


--------------------------------------------------------------------------------------------------------


  energy-cutoff  :      875.00
  volume of cell :      158.73
      direct lattice vectors                 reciprocal lattice vectors
     1.230092889 -2.130588742  0.000000000     0.406473368 -0.234676918  0.000000000
     1.230092889  2.130588742  0.000000000     0.406473368  0.234676918  0.000000000
     0.000000000  0.000000000 30.282393743     0.000000000  0.000000000  0.033022489

  length of vectors
     2.460190420  2.460190420 30.282393743     0.469354722  0.469354722  0.033022489


 
 k-points in units of 2pi/SCALE and weight: K-Mesh Generated with KP-Resolved Value 
   0.08332704  0.00000000  0.00000000       0.014
   0.16665408 -0.04810877  0.00000000       0.028
   0.24998112 -0.09621754  0.00000000       0.028
   0.33330816 -0.14432630  0.00000000       0.028
   0.41663520 -0.19243507  0.00000000       0.028
   0.49996224 -0.24054384  0.00000000       0.028
  -0.41663520  0.28865261  0.00000000       0.028
  -0.33330816  0.24054384  0.00000000       0.028
  -0.24998112  0.19243507  0.00000000       0.028
  -0.16665408  0.14432630  0.00000000       0.028
  -0.08332704  0.09621754  0.00000000       0.028
   0.00000000  0.04810877  0.00000000       0.014
   0.24998112  0.00000000  0.00000000       0.014
   0.33330816 -0.04810877  0.00000000       0.028
   0.41663520 -0.09621754  0.00000000       0.028
   0.49996224 -0.14432630  0.00000000       0.028
   0.58328928 -0.19243507  0.00000000       0.028
  -0.33330816  0.33676138  0.00000000       0.028
  -0.24998112  0.28865261  0.00000000       0.028
  -0.16665408  0.24054384  0.00000000       0.028
  -0.08332704  0.19243507  0.00000000       0.028
   0.00000000  0.14432630  0.00000000       0.014
   0.41663520  0.00000000  0.00000000       0.014
   0.49996224 -0.04810877  0.00000000       0.028
   0.58328928 -0.09621754  0.00000000       0.028
   0.66661632 -0.14432630  0.00000000       0.028
  -0.24998112  0.38487015  0.00000000       0.028
  -0.16665408  0.33676138  0.00000000       0.028
  -0.08332704  0.28865261  0.00000000       0.028
   0.00000000  0.24054384  0.00000000       0.014
   0.58328928  0.00000000  0.00000000       0.014
   0.66661632 -0.04810877  0.00000000       0.028
   0.74994336 -0.09621754  0.00000000       0.028
  -0.16665408  0.43297891  0.00000000       0.028
  -0.08332704  0.38487015  0.00000000       0.028
   0.00000000  0.33676138  0.00000000       0.014
   0.74994336  0.00000000  0.00000000       0.014
   0.83327041 -0.04810877  0.00000000       0.028
  -0.08332704  0.48108768  0.00000000       0.028
   0.00000000  0.43297891  0.00000000       0.014
   0.91659745  0.00000000  0.00000000       0.014
   0.00000000  0.52919645  0.00000000       0.014
 
 k-points in reciprocal lattice and weights: K-Mesh Generated with KP-Resolved Value 
   0.04166667  0.04166667  0.00000000       0.014
   0.12500000  0.04166667  0.00000000       0.028
   0.20833333  0.04166667  0.00000000       0.028
   0.29166667  0.04166667  0.00000000       0.028
   0.37500000  0.04166667  0.00000000       0.028
   0.45833333  0.04166667  0.00000000       0.028
  -0.45833333  0.04166667  0.00000000       0.028
  -0.37500000  0.04166667  0.00000000       0.028
  -0.29166667  0.04166667  0.00000000       0.028
  -0.20833333  0.04166667  0.00000000       0.028
  -0.12500000  0.04166667  0.00000000       0.028
  -0.04166667  0.04166667  0.00000000       0.014
   0.12500000  0.12500000  0.00000000       0.014
   0.20833333  0.12500000  0.00000000       0.028
   0.29166667  0.12500000  0.00000000       0.028
   0.37500000  0.12500000  0.00000000       0.028
   0.45833333  0.12500000  0.00000000       0.028
  -0.45833333  0.12500000  0.00000000       0.028
  -0.37500000  0.12500000  0.00000000       0.028
  -0.29166667  0.12500000  0.00000000       0.028
  -0.20833333  0.12500000  0.00000000       0.028
  -0.12500000  0.12500000  0.00000000       0.014
   0.20833333  0.20833333  0.00000000       0.014
   0.29166667  0.20833333  0.00000000       0.028
   0.37500000  0.20833333  0.00000000       0.028
   0.45833333  0.20833333  0.00000000       0.028
  -0.45833333  0.20833333  0.00000000       0.028
  -0.37500000  0.20833333  0.00000000       0.028
  -0.29166667  0.20833333  0.00000000       0.028
  -0.20833333  0.20833333  0.00000000       0.014
   0.29166667  0.29166667  0.00000000       0.014
   0.37500000  0.29166667  0.00000000       0.028
   0.45833333  0.29166667  0.00000000       0.028
  -0.45833333  0.29166667  0.00000000       0.028
  -0.37500000  0.29166667  0.00000000       0.028
  -0.29166667  0.29166667  0.00000000       0.014
   0.37500000  0.37500000  0.00000000       0.014
   0.45833333  0.37500000  0.00000000       0.028
  -0.45833333  0.37500000  0.00000000       0.028
  -0.37500000  0.37500000  0.00000000       0.014
   0.45833333  0.45833333  0.00000000       0.014
  -0.45833333  0.45833333  0.00000000       0.014
 
 position of ions in fractional coordinates (direct lattice) 
   0.00000262  0.99999738  0.50000000
   0.66666738  0.33333262  0.50000000
 
 position of ions in cartesian coordinates  (Angst):
   1.23009289  2.13057757 15.14119687
   1.23009289 -0.71019928 15.14119687
 


--------------------------------------------------------------------------------------------------------


 k-point  1 :   0.0417 0.0417 0.0000  plane waves:    9222
 k-point  2 :   0.1250 0.0417 0.0000  plane waves:    9230
 k-point  3 :   0.2083 0.0417 0.0000  plane waves:    9282
 k-point  4 :   0.2917 0.0417 0.0000  plane waves:    9319
 k-point  5 :   0.3750 0.0417 0.0000  plane waves:    9334
 k-point  6 :   0.4583 0.0417 0.0000  plane waves:    9350
 k-point  7 :  -0.4583 0.0417 0.0000  plane waves:    9333
 k-point  8 :  -0.3750 0.0417 0.0000  plane waves:    9324
 k-point  9 :  -0.2917 0.0417 0.0000  plane waves:    9305
 k-point 10 :  -0.2083 0.0417 0.0000  plane waves:    9259
 k-point 11 :  -0.1250 0.0417 0.0000  plane waves:    9245
 k-point 12 :  -0.0417 0.0417 0.0000  plane waves:    9215
 k-point 13 :   0.1250 0.1250 0.0000  plane waves:    9290
 k-point 14 :   0.2083 0.1250 0.0000  plane waves:    9323
 k-point 15 :   0.2917 0.1250 0.0000  plane waves:    9363
 k-point 16 :   0.3750 0.1250 0.0000  plane waves:    9353
 k-point 17 :   0.4583 0.1250 0.0000  plane waves:    9366
 k-point 18 :  -0.4583 0.1250 0.0000  plane waves:    9357
 k-point 19 :  -0.3750 0.1250 0.0000  plane waves:    9343
 k-point 20 :  -0.2917 0.1250 0.0000  plane waves:    9313
 k-point 21 :  -0.2083 0.1250 0.0000  plane waves:    9260
 k-point 22 :  -0.1250 0.1250 0.0000  plane waves:    9233
 k-point 23 :   0.2083 0.2083 0.0000  plane waves:    9356
 k-point 24 :   0.2917 0.2083 0.0000  plane waves:    9365
 k-point 25 :   0.3750 0.2083 0.0000  plane waves:    9392
 k-point 26 :   0.4583 0.2083 0.0000  plane waves:    9382
 k-point 27 :  -0.4583 0.2083 0.0000  plane waves:    9362
 k-point 28 :  -0.3750 0.2083 0.0000  plane waves:    9354
 k-point 29 :  -0.2917 0.2083 0.0000  plane waves:    9297
 k-point 30 :  -0.2083 0.2083 0.0000  plane waves:    9270
 k-point 31 :   0.2917 0.2917 0.0000  plane waves:    9388
 k-point 32 :   0.3750 0.2917 0.0000  plane waves:    9387
 k-point 33 :   0.4583 0.2917 0.0000  plane waves:    9378
 k-point 34 :  -0.4583 0.2917 0.0000  plane waves:    9371
 k-point 35 :  -0.3750 0.2917 0.0000  plane waves:    9332
 k-point 36 :  -0.2917 0.2917 0.0000  plane waves:    9302
 k-point 37 :   0.3750 0.3750 0.0000  plane waves:    9410
 k-point 38 :   0.4583 0.3750 0.0000  plane waves:    9374
 k-point 39 :  -0.4583 0.3750 0.0000  plane waves:    9328
 k-point 40 :  -0.3750 0.3750 0.0000  plane waves:    9314
 k-point 41 :   0.4583 0.4583 0.0000  plane waves:    9342
 k-point 42 :  -0.4583 0.4583 0.0000  plane waves:    9348

 maximum and minimum number of plane-waves per node :      9410     9215

 maximum number of plane-waves:      9410
 maximum index in each direction: 
   IXMAX=    6   IYMAX=    5   IZMAX=   73
   IXMIN=   -6   IYMIN=   -6   IZMIN=  -73


 serial   3D FFT for wavefunctions
 parallel 3D FFT for charge:
    minimum data exchange during FFTs selected (reduces bandwidth)


 total amount of memory used by VASP MPI-rank0    71653. kBytes
=======================================================================

   base      :      30000. kBytes
   nonl-proj :      25655. kBytes
   fftplans  :       1561. kBytes
   grid      :       8077. kBytes
   one-center:          6. kBytes
   wavefun   :       6354. kBytes
 
     INWAV:  cpu time    0.0000: real time    0.0000
 Broyden mixing: mesh for mixing (old mesh)
   NGX = 11   NGY = 11   NGZ =147
  (NGX  = 32   NGY  = 32   NGZ  =420)
  gives a total of  17787 points

 initial charge density was supplied:
 charge density of overlapping atoms calculated
 number of electron       8.0000000 magnetization 
 keeping initial charge density in first step


--------------------------------------------------------------------------------------------------------


 Maximum index for augmentation-charges          210 (set IRDMAX)


--------------------------------------------------------------------------------------------------------


 First call to EWALD:  gamma=   0.327
 Maximum number of real-space cells 6x 6x 1
 Maximum number of reciprocal cells 2x 2x13

    FEWALD:  cpu time    0.0020: real time    0.0096


--------------------------------------- Iteration      1(   1)  ---------------------------------------


    POTLOK:  cpu time    0.0330: real time    0.0655
    SETDIJ:  cpu time    0.0160: real time    0.0257
    EDDIAG:  cpu time    0.6499: real time    0.7624
  RMM-DIIS:  cpu time    1.2058: real time    1.2338
    ORTHCH:  cpu time    0.0310: real time    0.0305
       DOS:  cpu time    0.0030: real time    0.0151
    --------------------------------------------
      LOOP:  cpu time    1.9387: real time    2.1341

 eigenvalue-minimisations  :  1008
 total energy-change (2. order) : 0.1019147E+03  (-0.1473302E+03)
 number of electron       8.0000000 magnetization 
 augmentation part        8.0000000 magnetization 

 Free energy of the ion-electron system (eV)
  ---------------------------------------------------
  alpha Z        PSCENC =         1.38148821
  Ewald energy   TEWEN  =      2248.75687031
  -Hartree energ DENC   =     -2454.38155853
  -exchange      EXHF   =         0.00000000
  -V(xc)+E(xc)   XCENC  =        14.53053458
  PAW double counting   =       228.69403340     -218.18290438
  entropy T*S    EENTRO =        -0.00366642
  eigenvalues    EBANDS =       -13.18328682
  atomic energy  EATOM  =       294.30319316
  Solvation  Ediel_sol  =         0.00000000
  ---------------------------------------------------
  free energy    TOTEN  =       101.91470352 eV

  energy without entropy =      101.91836994  energy(sigma->0) =      101.91653673


--------------------------------------------------------------------------------------------------------




--------------------------------------- Iteration      1(   2)  ---------------------------------------


    EDDIAG:  cpu time    0.6249: real time    0.6414
  RMM-DIIS:  cpu time    1.2058: real time    1.2107
    ORTHCH:  cpu time    0.0310: real time    0.0305
       DOS:  cpu time    0.0000: real time    0.0007
    --------------------------------------------
      LOOP:  cpu time    1.8617: real time    1.8823

 eigenvalue-minimisations  :  1008
 total energy-change (2. order) :-0.5153891E+02  (-0.2618307E+02)
 number of electron       8.0000000 magnetization 
 augmentation part        8.0000000 magnetization 

 Free energy of the ion-electron system (eV)
  ---------------------------------------------------
  alpha Z        PSCENC =         1.38148821
  Ewald energy   TEWEN  =      2248.75687031
  -Hartree energ DENC   =     -2454.38155853
  -exchange      EXHF   =         0.00000000
  -V(xc)+E(xc)   XCENC  =        14.53053458
  PAW double counting   =       228.69403340     -218.18290438
  entropy T*S    EENTRO =        -0.00244257
  eigenvalues    EBANDS =       -64.72342344
  atomic energy  EATOM  =       294.30319316
  Solvation  Ediel_sol  =         0.00000000
  ---------------------------------------------------
  free energy    TOTEN  =        50.37579076 eV

  energy without entropy =       50.37823333  energy(sigma->0) =       50.37701204


--------------------------------------------------------------------------------------------------------




--------------------------------------- Iteration      1(   3)  ---------------------------------------


    EDDIAG:  cpu time    0.6269: real time    0.6375
  RMM-DIIS:  cpu time    1.1988: real time    1.2025
    ORTHCH:  cpu time    0.0310: real time    0.0306
       DOS:  cpu time    0.0010: real time    0.0007
    --------------------------------------------
      LOOP:  cpu time    1.8577: real time    1.8714

 eigenvalue-minimisations  :  1008
 total energy-change (2. order) :-0.3957578E+02  (-0.2034882E+02)
 number of electron       8.0000000 magnetization 
 augmentation part        8.0000000 magnetization 

 Free energy of the ion-electron system (eV)
  ---------------------------------------------------
  alpha Z        PSCENC =         1.38148821
  Ewald energy   TEWEN  =      2248.75687031
  -Hartree energ DENC   =     -2454.38155853
  -exchange      EXHF   =         0.00000000
  -V(xc)+E(xc)   XCENC  =        14.53053458
  PAW double counting   =       228.69403340     -218.18290438
  entropy T*S    EENTRO =        -0.00166394
  eigenvalues    EBANDS =      -104.29998188
  atomic energy  EATOM  =       294.30319316
  Solvation  Ediel_sol  =         0.00000000
  ---------------------------------------------------
  free energy    TOTEN  =        10.80001095 eV

  energy without entropy =       10.80167488  energy(sigma->0) =       10.80084291


--------------------------------------------------------------------------------------------------------




--------------------------------------- Iteration      1(   4)  ---------------------------------------


    EDDIAG:  cpu time    0.6239: real time    0.6399
  RMM-DIIS:  cpu time    1.1898: real time    1.1924
    ORTHCH:  cpu time    0.0300: real time    0.0304
       DOS:  cpu time    0.0010: real time    0.0005
    --------------------------------------------
      LOOP:  cpu time    1.8447: real time    1.8633

 eigenvalue-minimisations  :  1008
 total energy-change (2. order) :-0.2417710E+02  (-0.1331980E+02)
 number of electron       8.0000000 magnetization 
 augmentation part        8.0000000 magnetization 

 Free energy of the ion-electron system (eV)
  ---------------------------------------------------
  alpha Z        PSCENC =         1.38148821
  Ewald energy   TEWEN  =      2248.75687031
  -Hartree energ DENC   =     -2454.38155853
  -exchange      EXHF   =         0.00000000
  -V(xc)+E(xc)   XCENC  =        14.53053458
  PAW double counting   =       228.69403340     -218.18290438
  entropy T*S    EENTRO =        -0.00000000
  eigenvalues    EBANDS =      -128.47874135
  atomic energy  EATOM  =       294.30319316
  Solvation  Ediel_sol  =         0.00000000
  ---------------------------------------------------
  free energy    TOTEN  =       -13.37708459 eV

  energy without entropy =      -13.37708459  energy(sigma->0) =      -13.37708459


--------------------------------------------------------------------------------------------------------




--------------------------------------- Iteration      1(   5)  ---------------------------------------


    EDDIAG:  cpu time    0.6229: real time    0.6377
  RMM-DIIS:  cpu time    1.1928: real time    1.1958
    ORTHCH:  cpu time    0.0300: real time    0.0304
       DOS:  cpu time    0.0000: real time    0.0004
    --------------------------------------------
      LOOP:  cpu time    1.8457: real time    1.8644

 eigenvalue-minimisations  :  1008
 total energy-change (2. order) :-0.5058472E+01  (-0.3895394E+01)
 number of electron       8.0000000 magnetization 
 augmentation part        8.0000000 magnetization 

 Free energy of the ion-electron system (eV)
  ---------------------------------------------------
  alpha Z        PSCENC =         1.38148821
  Ewald energy   TEWEN  =      2248.75687031
  -Hartree energ DENC   =     -2454.38155853
  -exchange      EXHF   =         0.00000000
  -V(xc)+E(xc)   XCENC  =        14.53053458
  PAW double counting   =       228.69403340     -218.18290438
  entropy T*S    EENTRO =        -0.00000000
  eigenvalues    EBANDS =      -133.53721383
  atomic energy  EATOM  =       294.30319316
  Solvation  Ediel_sol  =         0.00000000
  ---------------------------------------------------
  free energy    TOTEN  =       -18.43555706 eV

  energy without entropy =      -18.43555706  energy(sigma->0) =      -18.43555706


--------------------------------------------------------------------------------------------------------




--------------------------------------- Iteration      1(   6)  ---------------------------------------


    EDDIAG:  cpu time    0.6319: real time    0.6350
  RMM-DIIS:  cpu time    1.2018: real time    1.2053
    ORTHCH:  cpu time    0.0300: real time    0.0304
       DOS:  cpu time    0.0010: real time    0.0004
    --------------------------------------------
      LOOP:  cpu time    1.8647: real time    1.8712

 eigenvalue-minimisations  :  1008
 total energy-change (2. order) :-0.1019424E+01  (-0.8447412E+00)
 number of electron       8.0000000 magnetization 
 augmentation part        8.0000000 magnetization 

 Free energy of the ion-electron system (eV)
  ---------------------------------------------------
  alpha Z        PSCENC =         1.38148821
  Ewald energy   TEWEN  =      2248.75687031
  -Hartree energ DENC   =     -2454.38155853
  -exchange      EXHF   =         0.00000000
  -V(xc)+E(xc)   XCENC  =        14.53053458
  PAW double counting   =       228.69403340     -218.18290438
  entropy T*S    EENTRO =        -0.00000000
  eigenvalues    EBANDS =      -134.55663733
  atomic energy  EATOM  =       294.30319316
  Solvation  Ediel_sol  =         0.00000000
  ---------------------------------------------------
  free energy    TOTEN  =       -19.45498057 eV

  energy without entropy =      -19.45498057  energy(sigma->0) =      -19.45498057


--------------------------------------------------------------------------------------------------------




--------------------------------------- Iteration      1(   7)  ---------------------------------------


    EDDIAG:  cpu time    0.6309: real time    0.6339
  RMM-DIIS:  cpu time    1.2088: real time    1.2118
    ORTHCH:  cpu time    0.0310: real time    0.0304
       DOS:  cpu time    0.0000: real time    0.0005
    --------------------------------------------
      LOOP:  cpu time    1.8707: real time    1.8765

 eigenvalue-minimisations  :  1008
 total energy-change (2. order) :-0.2265174E+00  (-0.1898203E+00)
 number of electron       8.0000000 magnetization 
 augmentation part        8.0000000 magnetization 

 Free energy of the ion-electron system (eV)
  ---------------------------------------------------
  alpha Z        PSCENC =         1.38148821
  Ewald energy   TEWEN  =      2248.75687031
  -Hartree energ DENC   =     -2454.38155853
  -exchange      EXHF   =         0.00000000
  -V(xc)+E(xc)   XCENC  =        14.53053458
  PAW double counting   =       228.69403340     -218.18290438
  entropy T*S    EENTRO =        -0.00000000
  eigenvalues    EBANDS =      -134.78315469
  atomic energy  EATOM  =       294.30319316
  Solvation  Ediel_sol  =         0.00000000
  ---------------------------------------------------
  free energy    TOTEN  =       -19.68149792 eV

  energy without entropy =      -19.68149792  energy(sigma->0) =      -19.68149792


--------------------------------------------------------------------------------------------------------




--------------------------------------- Iteration      1(   8)  ---------------------------------------


    EDDIAG:  cpu time    0.6259: real time    0.6386
  RMM-DIIS:  cpu time    1.1948: real time    1.1979
    ORTHCH:  cpu time    0.0300: real time    0.0305
       DOS:  cpu time    0.0000: real time    0.0004
    --------------------------------------------
      LOOP:  cpu time    1.8517: real time    1.8674

 eigenvalue-minimisations  :  1008
 total energy-change (2. order) :-0.5867046E-01  (-0.4865193E-01)
 number of electron       8.0000000 magnetization 
 augmentation part        8.0000000 magnetization 

 Free energy of the ion-electron system (eV)
  ---------------------------------------------------
  alpha Z        PSCENC =         1.38148821
  Ewald energy   TEWEN  =      2248.75687031
  -Hartree energ DENC   =     -2454.38155853
  -exchange      EXHF   =         0.00000000
  -V(xc)+E(xc)   XCENC  =        14.53053458
  PAW double counting   =       228.69403340     -218.18290438
  entropy T*S    EENTRO =        -0.00000000
  eigenvalues    EBANDS =      -134.84182515
  atomic energy  EATOM  =       294.30319316
  Solvation  Ediel_sol  =         0.00000000
  ---------------------------------------------------
  free energy    TOTEN  =       -19.74016838 eV

  energy without entropy =      -19.74016838  energy(sigma->0) =      -19.74016838


--------------------------------------------------------------------------------------------------------




--------------------------------------- Iteration      1(   9)  ---------------------------------------


    EDDIAG:  cpu time    0.6239: real time    0.6335
  RMM-DIIS:  cpu time    2.3116: real time    2.3597
    ORTHCH:  cpu time    0.0300: real time    0.0305
       DOS:  cpu time    0.0010: real time    0.0005
    --------------------------------------------
      LOOP:  cpu time    2.9655: real time    3.0242

 eigenvalue-minimisations  :  2026
 total energy-change (2. order) :-0.2165435E-01  (-0.1878648E-01)
 number of electron       8.0000000 magnetization 
 augmentation part        8.0000000 magnetization 

 Free energy of the ion-electron system (eV)
  ---------------------------------------------------
  alpha Z        PSCENC =         1.38148821
  Ewald energy   TEWEN  =      2248.75687031
  -Hartree energ DENC   =     -2454.38155853
  -exchange      EXHF   =         0.00000000
  -V(xc)+E(xc)   XCENC  =        14.53053458
  PAW double counting   =       228.69403340     -218.18290438
  entropy T*S    EENTRO =        -0.00000000
  eigenvalues    EBANDS =      -134.86347949
  atomic energy  EATOM  =       294.30319316
  Solvation  Ediel_sol  =         0.00000000
  ---------------------------------------------------
  free energy    TOTEN  =       -19.76182273 eV

  energy without entropy =      -19.76182273  energy(sigma->0) =      -19.76182273


--------------------------------------------------------------------------------------------------------




--------------------------------------- Iteration      1(  10)  ---------------------------------------


    EDDIAG:  cpu time    0.6249: real time    0.6393
  RMM-DIIS:  cpu time    2.5886: real time    2.5980
    ORTHCH:  cpu time    0.0300: real time    0.0305
       DOS:  cpu time    0.0010: real time    0.0005
    --------------------------------------------
      LOOP:  cpu time    3.2445: real time    3.2682

 eigenvalue-minimisations  :  2064
 total energy-change (2. order) :-0.3780421E-02  (-0.3215242E-02)
 number of electron       8.0000000 magnetization 
 augmentation part        8.0000000 magnetization 

 Free energy of the ion-electron system (eV)
  ---------------------------------------------------
  alpha Z        PSCENC =         1.38148821
  Ewald energy   TEWEN  =      2248.75687031
  -Hartree energ DENC   =     -2454.38155853
  -exchange      EXHF   =         0.00000000
  -V(xc)+E(xc)   XCENC  =        14.53053458
  PAW double counting   =       228.69403340     -218.18290438
  entropy T*S    EENTRO =        -0.00000000
  eigenvalues    EBANDS =      -134.86725991
  atomic energy  EATOM  =       294.30319316
  Solvation  Ediel_sol  =         0.00000000
  ---------------------------------------------------
  free energy    TOTEN  =       -19.76560315 eV

  energy without entropy =      -19.76560315  energy(sigma->0) =      -19.76560315


--------------------------------------------------------------------------------------------------------




--------------------------------------- Iteration      1(  11)  ---------------------------------------


    EDDIAG:  cpu time    0.6219: real time    0.6380
  RMM-DIIS:  cpu time    2.2247: real time    2.2286
    ORTHCH:  cpu time    0.0300: real time    0.0305
       DOS:  cpu time    0.0000: real time    0.0004
    --------------------------------------------
      LOOP:  cpu time    2.8776: real time    2.8976

 eigenvalue-minimisations  :  2026
 total energy-change (2. order) :-0.1448633E-03  (-0.1137184E-03)
 number of electron       8.0000000 magnetization 
 augmentation part        8.0000000 magnetization 

 Free energy of the ion-electron system (eV)
  ---------------------------------------------------
  alpha Z        PSCENC =         1.38148821
  Ewald energy   TEWEN  =      2248.75687031
  -Hartree energ DENC   =     -2454.38155853
  -exchange      EXHF   =         0.00000000
  -V(xc)+E(xc)   XCENC  =        14.53053458
  PAW double counting   =       228.69403340     -218.18290438
  entropy T*S    EENTRO =        -0.00000000
  eigenvalues    EBANDS =      -134.86740478
  atomic energy  EATOM  =       294.30319316
  Solvation  Ediel_sol  =         0.00000000
  ---------------------------------------------------
  free energy    TOTEN  =       -19.76574801 eV

  energy without entropy =      -19.76574801  energy(sigma->0) =      -19.76574801


--------------------------------------------------------------------------------------------------------




--------------------------------------- Iteration      1(  12)  ---------------------------------------


    EDDIAG:  cpu time    0.6249: real time    0.6391
  RMM-DIIS:  cpu time    2.5506: real time    2.5576
    ORTHCH:  cpu time    0.0310: real time    0.0305
       DOS:  cpu time    0.0000: real time    0.0005
    CHARGE:  cpu time    0.1720: real time    0.2040
    MIXING:  cpu time    0.0030: real time    0.0161
    --------------------------------------------
      LOOP:  cpu time    3.3805: real time    3.4477

 eigenvalue-minimisations  :  2057
 total energy-change (2. order) :-0.2636250E-04  (-0.2153171E-04)
 number of electron       8.0000000 magnetization 
 augmentation part       -0.0154055 magnetization 

 Broyden mixing:
  rms(total) = 0.92221E+00    rms(broyden)= 0.92215E+00
  rms(prec ) = 0.93588E+00
  weight for this iteration     100.00

 Free energy of the ion-electron system (eV)
  ---------------------------------------------------
  alpha Z        PSCENC =         1.38148821
  Ewald energy   TEWEN  =      2248.75687031
  -Hartree energ DENC   =     -2454.38155853
  -exchange      EXHF   =         0.00000000
  -V(xc)+E(xc)   XCENC  =        14.53053458
  PAW double counting   =       228.69403340     -218.18290438
  entropy T*S    EENTRO =        -0.00000000
  eigenvalues    EBANDS =      -134.86743114
  atomic energy  EATOM  =       294.30319316
  Solvation  Ediel_sol  =         0.00000000
  ---------------------------------------------------
  free energy    TOTEN  =       -19.76577437 eV

  energy without entropy =      -19.76577437  energy(sigma->0) =      -19.76577437


--------------------------------------------------------------------------------------------------------




--------------------------------------- Iteration      1(  13)  ---------------------------------------


    POTLOK:  cpu time    0.0200: real time    0.0305
    SETDIJ:  cpu time    0.0010: real time    0.0017
    EDDIAG:  cpu time    0.6159: real time    0.6179
  RMM-DIIS:  cpu time    2.2377: real time    2.2435
    ORTHCH:  cpu time    0.0310: real time    0.0310
       DOS:  cpu time    0.0000: real time    0.0005
    CHARGE:  cpu time    0.1650: real time    0.1654
    MIXING:  cpu time    0.0030: real time    0.0257
    --------------------------------------------
      LOOP:  cpu time    3.0735: real time    3.1160

 eigenvalue-minimisations  :  2016
 total energy-change (2. order) : 0.9131997E+00  (-0.4523457E-01)
 number of electron       8.0000000 magnetization 
 augmentation part       -0.0178672 magnetization 

 Broyden mixing:
  rms(total) = 0.60200E+00    rms(broyden)= 0.60200E+00
  rms(prec ) = 0.60836E+00
  weight for this iteration     100.00

 eigenvalues of (default mixing * dielectric matrix)
  average eigenvalue GAMMA=   2.6448
  2.6448

 Free energy of the ion-electron system (eV)
  ---------------------------------------------------
  alpha Z        PSCENC =         1.38148821
  Ewald energy   TEWEN  =      2248.75687031
  -Hartree energ DENC   =     -2465.87047284
  -exchange      EXHF   =         0.00000000
  -V(xc)+E(xc)   XCENC  =        14.98215093
  PAW double counting   =      1011.11180706    -1000.72778175
  entropy T*S    EENTRO =        -0.00000000
  eigenvalues    EBANDS =      -122.78982975
  atomic energy  EATOM  =       294.30319316
  Solvation  Ediel_sol  =         0.00000000
  ---------------------------------------------------
  free energy    TOTEN  =       -18.85257467 eV

  energy without entropy =      -18.85257467  energy(sigma->0) =      -18.85257467


--------------------------------------------------------------------------------------------------------




--------------------------------------- Iteration      1(  14)  ---------------------------------------


    POTLOK:  cpu time    0.0190: real time    0.0293
    SETDIJ:  cpu time    0.0020: real time    0.0017
    EDDIAG:  cpu time    0.6179: real time    0.6192
  RMM-DIIS:  cpu time    2.2027: real time    2.2074
    ORTHCH:  cpu time    0.0300: real time    0.0310
       DOS:  cpu time    0.0000: real time    0.0005
    CHARGE:  cpu time    0.1660: real time    0.1653
    MIXING:  cpu time    0.0010: real time    0.0072
    --------------------------------------------
      LOOP:  cpu time    3.0385: real time    3.0615

 eigenvalue-minimisations  :  2016
 total energy-change (2. order) : 0.3432326E+00  (-0.9537580E-01)
 number of electron       8.0000000 magnetization 
 augmentation part       -0.0209735 magnetization 

 Broyden mixing:
  rms(total) = 0.11983E+00    rms(broyden)= 0.11982E+00
  rms(prec ) = 0.12240E+00
  weight for this iteration     100.00

 eigenvalues of (default mixing * dielectric matrix)
  average eigenvalue GAMMA=   2.2343
  2.2343  2.2343

 Free energy of the ion-electron system (eV)
  ---------------------------------------------------
  alpha Z        PSCENC =         1.38148821
  Ewald energy   TEWEN  =      2248.75687031
  -Hartree energ DENC   =     -2484.75524475
  -exchange      EXHF   =         0.00000000
  -V(xc)+E(xc)   XCENC  =        15.73924711
  PAW double counting   =      3936.50992067    -3926.23947426
  entropy T*S    EENTRO =        -0.00000000
  eigenvalues    EBANDS =      -104.20534253
  atomic energy  EATOM  =       294.30319316
  Solvation  Ediel_sol  =         0.00000000
  ---------------------------------------------------
  free energy    TOTEN  =       -18.50934207 eV

  energy without entropy =      -18.50934207  energy(sigma->0) =      -18.50934207


--------------------------------------------------------------------------------------------------------




--------------------------------------- Iteration      1(  15)  ---------------------------------------


    POTLOK:  cpu time    0.0190: real time    0.0286
    SETDIJ:  cpu time    0.0020: real time    0.0017
    EDDIAG:  cpu time    0.6169: real time    0.6179
  RMM-DIIS:  cpu time    2.2847: real time    2.2916
    ORTHCH:  cpu time    0.0310: real time    0.0308
       DOS:  cpu time    0.0010: real time    0.0005
    CHARGE:  cpu time    0.1650: real time    0.1652
    MIXING:  cpu time    0.0010: real time    0.0051
    --------------------------------------------
      LOOP:  cpu time    3.1205: real time    3.1413

 eigenvalue-minimisations  :  2024
 total energy-change (2. order) : 0.2133744E-01  (-0.2595236E-02)
 number of electron       8.0000000 magnetization 
 augmentation part       -0.0204144 magnetization 

 Broyden mixing:
  rms(total) = 0.12641E-01    rms(broyden)= 0.12639E-01
  rms(prec ) = 0.16225E-01
  weight for this iteration     100.00

 eigenvalues of (default mixing * dielectric matrix)
  average eigenvalue GAMMA=   1.9986
  1.3442  2.3258  2.3258

 Free energy of the ion-electron system (eV)
  ---------------------------------------------------
  alpha Z        PSCENC =         1.38148821
  Ewald energy   TEWEN  =      2248.75687031
  -Hartree energ DENC   =     -2483.83727807
  -exchange      EXHF   =         0.00000000
  -V(xc)+E(xc)   XCENC  =        15.62369638
  PAW double counting   =      4182.30414817    -4171.97247660
  entropy T*S    EENTRO =        -0.00000000
  eigenvalues    EBANDS =      -105.04764619
  atomic energy  EATOM  =       294.30319316
  Solvation  Ediel_sol  =         0.00000000
  ---------------------------------------------------
  free energy    TOTEN  =       -18.48800463 eV

  energy without entropy =      -18.48800463  energy(sigma->0) =      -18.48800463


--------------------------------------------------------------------------------------------------------




--------------------------------------- Iteration      1(  16)  ---------------------------------------


    POTLOK:  cpu time    0.0180: real time    0.0283
    SETDIJ:  cpu time    0.0020: real time    0.0017
    EDDIAG:  cpu time    0.6159: real time    0.6173
  RMM-DIIS:  cpu time    2.2977: real time    2.3035
    ORTHCH:  cpu time    0.0310: real time    0.0309
       DOS:  cpu time    0.0000: real time    0.0005
    CHARGE:  cpu time    0.1650: real time    0.1653
    MIXING:  cpu time    0.0010: real time    0.0008
    --------------------------------------------
      LOOP:  cpu time    3.1305: real time    3.1483

 eigenvalue-minimisations  :  2027
 total energy-change (2. order) : 0.1627076E-02  (-0.4276702E-04)
 number of electron       8.0000000 magnetization 
 augmentation part       -0.0203583 magnetization 

 Broyden mixing:
  rms(total) = 0.83617E-02    rms(broyden)= 0.83614E-02
  rms(prec ) = 0.11630E-01
  weight for this iteration     100.00

 eigenvalues of (default mixing * dielectric matrix)
  average eigenvalue GAMMA=   2.0851
  0.9931  2.5301  2.5301  2.2871

 Free energy of the ion-electron system (eV)
  ---------------------------------------------------
  alpha Z        PSCENC =         1.38148821
  Ewald energy   TEWEN  =      2248.75687031
  -Hartree energ DENC   =     -2485.05751532
  -exchange      EXHF   =         0.00000000
  -V(xc)+E(xc)   XCENC  =        15.63894942
  PAW double counting   =      4237.26037330    -4226.92614232
  entropy T*S    EENTRO =        -0.00000000
  eigenvalues    EBANDS =      -103.84359431
  atomic energy  EATOM  =       294.30319316
  Solvation  Ediel_sol  =         0.00000000
  ---------------------------------------------------
  free energy    TOTEN  =       -18.48637755 eV

  energy without entropy =      -18.48637755  energy(sigma->0) =      -18.48637755


--------------------------------------------------------------------------------------------------------




--------------------------------------- Iteration      1(  17)  ---------------------------------------


    POTLOK:  cpu time    0.0190: real time    0.0296
    SETDIJ:  cpu time    0.0020: real time    0.0017
    EDDIAG:  cpu time    0.6169: real time    0.6195
  RMM-DIIS:  cpu time    2.2367: real time    2.2431
    ORTHCH:  cpu time    0.0310: real time    0.0309
       DOS:  cpu time    0.0010: real time    0.0005
    CHARGE:  cpu time    0.1650: real time    0.1654
    MIXING:  cpu time    0.0010: real time    0.0009
    --------------------------------------------
      LOOP:  cpu time    3.0725: real time    3.0915

 eigenvalue-minimisations  :  2017
 total energy-change (2. order) : 0.1383791E-02  (-0.5751378E-04)
 number of electron       8.0000000 magnetization 
 augmentation part       -0.0204091 magnetization 

 Broyden mixing:
  rms(total) = 0.61611E-02    rms(broyden)= 0.61610E-02
  rms(prec ) = 0.76225E-02
  weight for this iteration     100.00

 eigenvalues of (default mixing * dielectric matrix)
  average eigenvalue GAMMA=   2.1174
  3.7755  1.0327  2.3625  1.8313  1.5848

 Free energy of the ion-electron system (eV)
  ---------------------------------------------------
  alpha Z        PSCENC =         1.38148821
  Ewald energy   TEWEN  =      2248.75687031
  -Hartree energ DENC   =     -2487.42684699
  -exchange      EXHF   =         0.00000000
  -V(xc)+E(xc)   XCENC  =        15.66620312
  PAW double counting   =      4178.61863266    -4168.28603751
  entropy T*S    EENTRO =        -0.00000000
  eigenvalues    EBANDS =      -101.49849673
  atomic energy  EATOM  =       294.30319316
  Solvation  Ediel_sol  =         0.00000000
  ---------------------------------------------------
  free energy    TOTEN  =       -18.48499376 eV

  energy without entropy =      -18.48499376  energy(sigma->0) =      -18.48499376


--------------------------------------------------------------------------------------------------------




--------------------------------------- Iteration      1(  18)  ---------------------------------------


    POTLOK:  cpu time    0.0180: real time    0.0320
    SETDIJ:  cpu time    0.0010: real time    0.0017
    EDDIAG:  cpu time    0.6159: real time    0.6162
  RMM-DIIS:  cpu time    2.2697: real time    2.2802
    ORTHCH:  cpu time    0.0310: real time    0.0309
       DOS:  cpu time    0.0000: real time    0.0005
    CHARGE:  cpu time    0.1660: real time    0.1656
    MIXING:  cpu time    0.0010: real time    0.0019
    --------------------------------------------
      LOOP:  cpu time    3.1025: real time    3.1290

 eigenvalue-minimisations  :  2016
 total energy-change (2. order) : 0.6704048E-04  (-0.1712350E-04)
 number of electron       8.0000000 magnetization 
 augmentation part       -0.0203938 magnetization 

 Broyden mixing:
  rms(total) = 0.59662E-02    rms(broyden)= 0.59661E-02
  rms(prec ) = 0.65286E-02
  weight for this iteration     100.00

 eigenvalues of (default mixing * dielectric matrix)
  average eigenvalue GAMMA=   2.5686
  5.9270  2.9266  2.3852  2.1965  0.9881  0.9881

 Free energy of the ion-electron system (eV)
  ---------------------------------------------------
  alpha Z        PSCENC =         1.38148821
  Ewald energy   TEWEN  =      2248.75687031
  -Hartree energ DENC   =     -2488.71096253
  -exchange      EXHF   =         0.00000000
  -V(xc)+E(xc)   XCENC  =        15.67162391
  PAW double counting   =      4222.29560990    -4211.95837398
  entropy T*S    EENTRO =        -0.00000000
  eigenvalues    EBANDS =      -100.22437571
  atomic energy  EATOM  =       294.30319316
  Solvation  Ediel_sol  =         0.00000000
  ---------------------------------------------------
  free energy    TOTEN  =       -18.48492672 eV

  energy without entropy =      -18.48492672  energy(sigma->0) =      -18.48492672


--------------------------------------------------------------------------------------------------------




--------------------------------------- Iteration      1(  19)  ---------------------------------------


    POTLOK:  cpu time    0.0180: real time    0.0275
    SETDIJ:  cpu time    0.0020: real time    0.0017
    EDDIAG:  cpu time    0.6149: real time    0.6169
  RMM-DIIS:  cpu time    2.2407: real time    2.2460
    ORTHCH:  cpu time    0.0300: real time    0.0305
       DOS:  cpu time    0.0010: real time    0.0005
    CHARGE:  cpu time    0.1650: real time    0.1656
    MIXING:  cpu time    0.0010: real time    0.0009
    --------------------------------------------
      LOOP:  cpu time    3.0725: real time    3.0895

 eigenvalue-minimisations  :  2016
 total energy-change (2. order) :-0.4732435E-03  (-0.1494811E-04)
 number of electron       8.0000000 magnetization 
 augmentation part       -0.0204333 magnetization 

 Broyden mixing:
  rms(total) = 0.16258E-02    rms(broyden)= 0.16256E-02
  rms(prec ) = 0.18987E-02
  weight for this iteration     100.00

 eigenvalues of (default mixing * dielectric matrix)
  average eigenvalue GAMMA=   2.3900
  6.0804  2.9653  2.3127  2.1317  1.3857  0.9978  0.8561

 Free energy of the ion-electron system (eV)
  ---------------------------------------------------
  alpha Z        PSCENC =         1.38148821
  Ewald energy   TEWEN  =      2248.75687031
  -Hartree energ DENC   =     -2489.97226658
  -exchange      EXHF   =         0.00000000
  -V(xc)+E(xc)   XCENC  =        15.67903773
  PAW double counting   =      4191.33558573    -4181.00070125
  entropy T*S    EENTRO =        -0.00000000
  eigenvalues    EBANDS =       -98.96860728
  atomic energy  EATOM  =       294.30319316
  Solvation  Ediel_sol  =         0.00000000
  ---------------------------------------------------
  free energy    TOTEN  =       -18.48539997 eV

  energy without entropy =      -18.48539997  energy(sigma->0) =      -18.48539997


--------------------------------------------------------------------------------------------------------




--------------------------------------- Iteration      1(  20)  ---------------------------------------


    POTLOK:  cpu time    0.0180: real time    0.0264
    SETDIJ:  cpu time    0.0010: real time    0.0017
    EDDIAG:  cpu time    0.6159: real time    0.6171
  RMM-DIIS:  cpu time    2.2547: real time    2.2601
    ORTHCH:  cpu time    0.0300: real time    0.0306
       DOS:  cpu time    0.0010: real time    0.0005
    CHARGE:  cpu time    0.1650: real time    0.1657
    MIXING:  cpu time    0.0010: real time    0.0010
    --------------------------------------------
      LOOP:  cpu time    3.0865: real time    3.1031

 eigenvalue-minimisations  :  2022
 total energy-change (2. order) :-0.2857402E-03  (-0.5797042E-06)
 number of electron       8.0000000 magnetization 
 augmentation part       -0.0204337 magnetization 

 Broyden mixing:
  rms(total) = 0.20455E-02    rms(broyden)= 0.20455E-02
  rms(prec ) = 0.21774E-02
  weight for this iteration     100.00

 eigenvalues of (default mixing * dielectric matrix)
  average eigenvalue GAMMA=   2.7613
  7.6836  4.1680  2.7034  2.2959  2.2959  0.9893  0.9893  0.9649

 Free energy of the ion-electron system (eV)
  ---------------------------------------------------
  alpha Z        PSCENC =         1.38148821
  Ewald energy   TEWEN  =      2248.75687031
  -Hartree energ DENC   =     -2490.09101954
  -exchange      EXHF   =         0.00000000
  -V(xc)+E(xc)   XCENC  =        15.67868101
  PAW double counting   =      4186.38793431    -4176.05312792
  entropy T*S    EENTRO =        -0.00000000
  eigenvalues    EBANDS =       -98.84970526
  atomic energy  EATOM  =       294.30319316
  Solvation  Ediel_sol  =         0.00000000
  ---------------------------------------------------
  free energy    TOTEN  =       -18.48568571 eV

  energy without entropy =      -18.48568571  energy(sigma->0) =      -18.48568571


--------------------------------------------------------------------------------------------------------




--------------------------------------- Iteration      1(  21)  ---------------------------------------


    POTLOK:  cpu time    0.0190: real time    0.0302
    SETDIJ:  cpu time    0.0010: real time    0.0017
    EDDIAG:  cpu time    0.6149: real time    0.6168
  RMM-DIIS:  cpu time    2.2587: real time    2.2644
    ORTHCH:  cpu time    0.0310: real time    0.0305
       DOS:  cpu time    0.0000: real time    0.0005
    CHARGE:  cpu time    0.1660: real time    0.1657
    MIXING:  cpu time    0.0010: real time    0.0010
    --------------------------------------------
      LOOP:  cpu time    3.0915: real time    3.1107

 eigenvalue-minimisations  :  2016
 total energy-change (2. order) :-0.5756249E-03  (-0.4726496E-05)
 number of electron       8.0000000 magnetization 
 augmentation part       -0.0204264 magnetization 

 Broyden mixing:
  rms(total) = 0.63528E-03    rms(broyden)= 0.63526E-03
  rms(prec ) = 0.67205E-03
  weight for this iteration     100.00

 eigenvalues of (default mixing * dielectric matrix)
  average eigenvalue GAMMA=   2.9340
  8.2803  4.9278  3.1950  2.6061  2.2251  2.2251  1.0016  0.9726  0.9726

 Free energy of the ion-electron system (eV)
  ---------------------------------------------------
  alpha Z        PSCENC =         1.38148821
  Ewald energy   TEWEN  =      2248.75687031
  -Hartree energ DENC   =     -2490.28598314
  -exchange      EXHF   =         0.00000000
  -V(xc)+E(xc)   XCENC  =        15.67681051
  PAW double counting   =      4199.85769164    -4189.52222548
  entropy T*S    EENTRO =        -0.00000000
  eigenvalues    EBANDS =       -98.65410654
  atomic energy  EATOM  =       294.30319316
  Solvation  Ediel_sol  =         0.00000000
  ---------------------------------------------------
  free energy    TOTEN  =       -18.48626133 eV

  energy without entropy =      -18.48626133  energy(sigma->0) =      -18.48626133


--------------------------------------------------------------------------------------------------------




--------------------------------------- Iteration      1(  22)  ---------------------------------------


    POTLOK:  cpu time    0.0180: real time    0.0314
    SETDIJ:  cpu time    0.0010: real time    0.0017
    EDDIAG:  cpu time    0.6229: real time    0.6238
  RMM-DIIS:  cpu time    2.2007: real time    2.2074
    ORTHCH:  cpu time    0.0310: real time    0.0305
       DOS:  cpu time    0.0000: real time    0.0005
    CHARGE:  cpu time    0.1660: real time    0.1657
    MIXING:  cpu time    0.0010: real time    0.0011
    --------------------------------------------
      LOOP:  cpu time    3.0405: real time    3.0621

 eigenvalue-minimisations  :  1962
 total energy-change (2. order) :-0.9207223E-04  (-0.2719312E-06)
 number of electron       8.0000000 magnetization 
 augmentation part       -0.0204251 magnetization 

 Broyden mixing:
  rms(total) = 0.31870E-03    rms(broyden)= 0.31870E-03
  rms(prec ) = 0.34099E-03
  weight for this iteration     100.00

 eigenvalues of (default mixing * dielectric matrix)
  average eigenvalue GAMMA=   2.8037
  8.4281  5.2830  3.2298  2.6337  2.2982  2.2982  0.9962  0.9810  0.9810  0.9074

 Free energy of the ion-electron system (eV)
  ---------------------------------------------------
  alpha Z        PSCENC =         1.38148821
  Ewald energy   TEWEN  =      2248.75687031
  -Hartree energ DENC   =     -2490.31258367
  -exchange      EXHF   =         0.00000000
  -V(xc)+E(xc)   XCENC  =        15.67660494
  PAW double counting   =      4196.80382813    -4186.46833353
  entropy T*S    EENTRO =        -0.00000000
  eigenvalues    EBANDS =       -98.62742096
  atomic energy  EATOM  =       294.30319316
  Solvation  Ediel_sol  =         0.00000000
  ---------------------------------------------------
  free energy    TOTEN  =       -18.48635340 eV

  energy without entropy =      -18.48635340  energy(sigma->0) =      -18.48635340


--------------------------------------------------------------------------------------------------------




--------------------------------------- Iteration      1(  23)  ---------------------------------------


    POTLOK:  cpu time    0.0180: real time    0.0264
    SETDIJ:  cpu time    0.0010: real time    0.0017
    EDDIAG:  cpu time    0.6149: real time    0.6161
  RMM-DIIS:  cpu time    2.2257: real time    2.2316
    ORTHCH:  cpu time    0.0300: real time    0.0305
       DOS:  cpu time    0.0010: real time    0.0005
    CHARGE:  cpu time    0.1640: real time    0.1655
    MIXING:  cpu time    0.0030: real time    0.0182
    --------------------------------------------
      LOOP:  cpu time    3.0575: real time    3.0904

 eigenvalue-minimisations  :  2016
 total energy-change (2. order) :-0.2331331E-04  (-0.6295856E-07)
 number of electron       8.0000000 magnetization 
 augmentation part       -0.0204268 magnetization 

 Broyden mixing:
  rms(total) = 0.81355E-04    rms(broyden)= 0.81350E-04
  rms(prec ) = 0.10152E-03
  weight for this iteration     100.00

 eigenvalues of (default mixing * dielectric matrix)
  average eigenvalue GAMMA=   2.9840
  8.7831  5.9009  4.1899  2.8947  2.5583  2.2781  2.2781  0.9924  0.9765  0.9857
  0.9857

 Free energy of the ion-electron system (eV)
  ---------------------------------------------------
  alpha Z        PSCENC =         1.38148821
  Ewald energy   TEWEN  =      2248.75687031
  -Hartree energ DENC   =     -2490.34760664
  -exchange      EXHF   =         0.00000000
  -V(xc)+E(xc)   XCENC  =        15.67702912
  PAW double counting   =      4195.53140306    -4185.19604411
  entropy T*S    EENTRO =        -0.00000000
  eigenvalues    EBANDS =       -98.59270982
  atomic energy  EATOM  =       294.30319316
  Solvation  Ediel_sol  =         0.00000000
  ---------------------------------------------------
  free energy    TOTEN  =       -18.48637672 eV

  energy without entropy =      -18.48637672  energy(sigma->0) =      -18.48637672


--------------------------------------------------------------------------------------------------------




--------------------------------------- Iteration      1(  24)  ---------------------------------------


    POTLOK:  cpu time    0.0170: real time    0.0316
    SETDIJ:  cpu time    0.0020: real time    0.0017
    EDDIAG:  cpu time    0.6149: real time    0.6157
  RMM-DIIS:  cpu time    2.1537: real time    2.1590
    ORTHCH:  cpu time    0.0300: real time    0.0307
       DOS:  cpu time    0.0010: real time    0.0005
    CHARGE:  cpu time    0.1650: real time    0.1653
    MIXING:  cpu time    0.0010: real time    0.0012
    --------------------------------------------
      LOOP:  cpu time    2.9845: real time    3.0058

 eigenvalue-minimisations  :  1889
 total energy-change (2. order) :-0.1408494E-04  (-0.1316888E-07)
 number of electron       8.0000000 magnetization 
 augmentation part       -0.0204272 magnetization 

 Broyden mixing:
  rms(total) = 0.55256E-04    rms(broyden)= 0.55255E-04
  rms(prec ) = 0.61716E-04
  weight for this iteration     100.00

 eigenvalues of (default mixing * dielectric matrix)
  average eigenvalue GAMMA=   2.9603
  8.8378  6.0686  4.1913  3.1512  2.6708  2.5164  2.1715  1.9599  0.9804  0.9804
  0.9977  0.9977

 Free energy of the ion-electron system (eV)
  ---------------------------------------------------
  alpha Z        PSCENC =         1.38148821
  Ewald energy   TEWEN  =      2248.75687031
  -Hartree energ DENC   =     -2490.36500038
  -exchange      EXHF   =         0.00000000
  -V(xc)+E(xc)   XCENC  =        15.67709079
  PAW double counting   =      4195.76661435    -4185.43128347
  entropy T*S    EENTRO =        -0.00000000
  eigenvalues    EBANDS =       -98.57536377
  atomic energy  EATOM  =       294.30319316
  Solvation  Ediel_sol  =         0.00000000
  ---------------------------------------------------
  free energy    TOTEN  =       -18.48639080 eV

  energy without entropy =      -18.48639080  energy(sigma->0) =      -18.48639080


--------------------------------------------------------------------------------------------------------




--------------------------------------- Iteration      1(  25)  ---------------------------------------


    POTLOK:  cpu time    0.0190: real time    0.0322
    SETDIJ:  cpu time    0.0010: real time    0.0017
    EDDIAG:  cpu time    0.6139: real time    0.6166
  RMM-DIIS:  cpu time    2.1767: real time    2.1814
    ORTHCH:  cpu time    0.0310: real time    0.0305
       DOS:  cpu time    0.0000: real time    0.0005
    CHARGE:  cpu time    0.1650: real time    0.1651
    MIXING:  cpu time    0.0020: real time    0.0012
    --------------------------------------------
      LOOP:  cpu time    3.0085: real time    3.0292

 eigenvalue-minimisations  :  1822
 total energy-change (2. order) :-0.2132635E-05  (-0.6116248E-09)
 number of electron       8.0000000 magnetization 
 augmentation part       -0.0204270 magnetization 

 Broyden mixing:
  rms(total) = 0.17192E-04    rms(broyden)= 0.17191E-04
  rms(prec ) = 0.25440E-04
  weight for this iteration     100.00

 eigenvalues of (default mixing * dielectric matrix)
  average eigenvalue GAMMA=   2.9860
  8.9131  6.5141  4.8822  3.6874  2.7734  2.4746  2.3126  2.3126  0.9794  0.9794
  1.0006  0.9943  0.9943

 Free energy of the ion-electron system (eV)
  ---------------------------------------------------
  alpha Z        PSCENC =         1.38148821
  Ewald energy   TEWEN  =      2248.75687031
  -Hartree energ DENC   =     -2490.36790668
  -exchange      EXHF   =         0.00000000
  -V(xc)+E(xc)   XCENC  =        15.67705263
  PAW double counting   =      4195.96561493    -4185.63026630
  entropy T*S    EENTRO =        -0.00000000
  eigenvalues    EBANDS =       -98.57243920
  atomic energy  EATOM  =       294.30319316
  Solvation  Ediel_sol  =         0.00000000
  ---------------------------------------------------
  free energy    TOTEN  =       -18.48639293 eV

  energy without entropy =      -18.48639293  energy(sigma->0) =      -18.48639293


--------------------------------------------------------------------------------------------------------




--------------------------------------- Iteration      1(  26)  ---------------------------------------


    POTLOK:  cpu time    0.0270: real time    0.0286
    SETDIJ:  cpu time    0.0020: real time    0.0017
    EDDIAG:  cpu time    0.6139: real time    0.6156
  RMM-DIIS:  cpu time    2.1507: real time    2.1569
    ORTHCH:  cpu time    0.0310: real time    0.0307
       DOS:  cpu time    0.0010: real time    0.0005
    CHARGE:  cpu time    0.1650: real time    0.1652
    MIXING:  cpu time    0.0010: real time    0.0013
    --------------------------------------------
      LOOP:  cpu time    2.9915: real time    3.0005

 eigenvalue-minimisations  :  1830
 total energy-change (2. order) :-0.2271237E-05  (-0.1321646E-08)
 number of electron       8.0000000 magnetization 
 augmentation part       -0.0204269 magnetization 

 Broyden mixing:
  rms(total) = 0.41431E-04    rms(broyden)= 0.41430E-04
  rms(prec ) = 0.42147E-04
  weight for this iteration     100.00

 eigenvalues of (default mixing * dielectric matrix)
  average eigenvalue GAMMA=   3.0781
  9.0118  7.1947  5.3682  4.1472  3.0915  2.6980  2.2595  2.2595  2.0880  0.9787
  0.9787  0.9841  1.0171  1.0171

 Free energy of the ion-electron system (eV)
  ---------------------------------------------------
  alpha Z        PSCENC =         1.38148821
  Ewald energy   TEWEN  =      2248.75687031
  -Hartree energ DENC   =     -2490.37158619
  -exchange      EXHF   =         0.00000000
  -V(xc)+E(xc)   XCENC  =        15.67701956
  PAW double counting   =      4196.20415659    -4185.86878800
  entropy T*S    EENTRO =        -0.00000000
  eigenvalues    EBANDS =       -98.56874885
  atomic energy  EATOM  =       294.30319316
  Solvation  Ediel_sol  =         0.00000000
  ---------------------------------------------------
  free energy    TOTEN  =       -18.48639520 eV

  energy without entropy =      -18.48639520  energy(sigma->0) =      -18.48639520


--------------------------------------------------------------------------------------------------------




--------------------------------------- Iteration      1(  27)  ---------------------------------------


    POTLOK:  cpu time    0.0180: real time    0.0311
    SETDIJ:  cpu time    0.0020: real time    0.0017
    EDDIAG:  cpu time    0.6149: real time    0.6170
  RMM-DIIS:  cpu time    2.1807: real time    2.1847
    ORTHCH:  cpu time    0.0300: real time    0.0306
       DOS:  cpu time    0.0010: real time    0.0005
    CHARGE:  cpu time    0.1650: real time    0.1651
    MIXING:  cpu time    0.0010: real time    0.0013
    --------------------------------------------
      LOOP:  cpu time    3.0125: real time    3.0321

 eigenvalue-minimisations  :  1815
 total energy-change (2. order) :-0.8596608E-06  (-0.4809271E-09)
 number of electron       8.0000000 magnetization 
 augmentation part       -0.0204270 magnetization 

 Broyden mixing:
  rms(total) = 0.36316E-04    rms(broyden)= 0.36316E-04
  rms(prec ) = 0.36512E-04
  weight for this iteration     100.00

 eigenvalues of (default mixing * dielectric matrix)
  average eigenvalue GAMMA=   3.1338
  9.1101  8.3094  5.7968  4.3630  3.4383  2.7921  2.5634  2.2992  2.2992  0.9785
  0.9785  0.9760  1.0040  1.0492  1.0492

 Free energy of the ion-electron system (eV)
  ---------------------------------------------------
  alpha Z        PSCENC =         1.38148821
  Ewald energy   TEWEN  =      2248.75687031
  -Hartree energ DENC   =     -2490.37369696
  -exchange      EXHF   =         0.00000000
  -V(xc)+E(xc)   XCENC  =        15.67705365
[...]
     17       7.7327      0.00000
     18       9.2027      0.00000
     19       9.3843      0.00000
     20       9.7502      0.00000
     21      11.4276      0.00000
     22      12.1019      0.00000
     23      13.0399      0.00000
     24      13.8756      0.00000

 k-point    30 :      -0.2083    0.2083    0.0000
  band No.  band energies     occupation 
      1     -21.7012      2.00000
      2      -9.5906      2.00000
      3      -9.5136      2.00000
      4      -7.7852      2.00000
      5       1.4960      0.00000
      6       2.2792      0.00000
      7       2.5173      0.00000
      8       2.8243      0.00000
      9       3.0338      0.00000
     10       3.6711      0.00000
     11       3.9739      0.00000
     12       4.9061      0.00000
     13       5.0726      0.00000
     14       5.2887      0.00000
     15       5.3177      0.00000
     16       6.5114      0.00000
     17       6.9402      0.00000
     18       8.4359      0.00000
     19       8.9520      0.00000
     20       8.9836      0.00000
     21      10.6945      0.00000
     22      11.2980      0.00000
     23      11.4531      0.00000
     24      13.2634      0.00000

 k-point    31 :       0.2917    0.2917    0.0000
  band No.  band energies     occupation 
      1     -17.0165      2.00000
      2     -14.8339      2.00000
      3     -13.1996      2.00000
      4      -4.4505      2.00000
      5      -1.8419      0.00000
      6       7.6152      0.00000
      7       8.1394      0.00000
      8       9.5273      0.00000
      9       9.5450      0.00000
     10       9.9123      0.00000
     11       9.9658      0.00000
     12       9.9721      0.00000
     13      10.1557      0.00000
     14      10.7950      0.00000
     15      10.9122      0.00000
     16      11.9972      0.00000
     17      12.1217      0.00000
     18      13.1707      0.00000
     19      13.2650      0.00000
     20      13.2772      0.00000
     21      13.4124      0.00000
     22      13.6821      0.00000
     23      13.7146      0.00000
     24      13.7927      0.00000

 k-point    32 :       0.3750    0.2917    0.0000
  band No.  band energies     occupation 
      1     -16.3390      2.00000
      2     -15.3879      2.00000
      3     -13.4960      2.00000
      4      -3.8184      2.00000
      5      -2.4750      0.00000
      6       7.5620      0.00000
      7       9.1554      0.00000
      8       9.8082      0.00000
      9      10.1999      0.00000
     10      10.6674      0.00000
     11      10.7912      0.00000
     12      11.1323      0.00000
     13      11.2412      0.00000
     14      11.8756      0.00000
     15      12.0387      0.00000
     16      12.1310      0.00000
     17      12.1561      0.00000
     18      12.4390      0.00000
     19      12.5122      0.00000
     20      12.9467      0.00000
     21      13.0665      0.00000
     22      13.1442      0.00000
     23      13.3140      0.00000
     24      13.4760      0.00000

 k-point    33 :       0.4583    0.2917    0.0000
  band No.  band energies     occupation 
      1     -17.7218      2.00000
      2     -14.3800      2.00000
      3     -12.6102      2.00000
      4      -5.1701      2.00000
      5      -1.1149      0.00000
      6       7.1075      0.00000
      7       7.4529      0.00000
      8       8.3797      0.00000
      9       8.5387      0.00000
     10       8.8623      0.00000
     11       9.0840      0.00000
     12       9.2053      0.00000
     13       9.7750      0.00000
     14       9.8451      0.00000
     15      10.1694      0.00000
     16      10.9796      0.00000
     17      11.0478      0.00000
     18      12.4756      0.00000
     19      12.6416      0.00000
     20      13.4321      0.00000
     21      13.7112      0.00000
     22      13.9273      0.00000
     23      14.2453      0.00000
     24      14.4329      0.00000

 k-point    34 :      -0.4583    0.2917    0.0000
  band No.  band energies     occupation 
      1     -18.9975      2.00000
      2     -13.6281      2.00000
      3     -10.9947      2.00000
      4      -6.5316      2.00000
      5       0.3258      0.00000
      6       5.2698      0.00000
      7       6.0547      0.00000
      8       6.4261      0.00000
      9       6.6949      0.00000
     10       6.9139      0.00000
     11       7.0563      0.00000
     12       7.5031      0.00000
     13       7.8601      0.00000
     14       8.6665      0.00000
     15       9.1333      0.00000
     16      10.0194      0.00000
     17      10.6462      0.00000
     18      10.8293      0.00000
     19      11.2551      0.00000
     20      12.6793      0.00000
     21      12.7643      0.00000
     22      14.0203      0.00000
     23      14.4535      0.00000
     24      14.7338      0.00000

 k-point    35 :      -0.3750    0.2917    0.0000
  band No.  band energies     occupation 
      1     -20.0130      2.00000
      2     -12.7540      2.00000
      3      -9.4683      2.00000
      4      -7.6550      2.00000
      5       1.6993      0.00000
      6       3.8319      0.00000
      7       4.6591      0.00000
      8       4.9312      0.00000
      9       5.2273      0.00000
     10       5.3224      0.00000
     11       5.4613      0.00000
     12       6.0640      0.00000
     13       6.3805      0.00000
     14       7.2909      0.00000
     15       7.6654      0.00000
     16       8.8429      0.00000
     17       9.3122      0.00000
     18      10.6924      0.00000
     19      11.2841      0.00000
     20      11.4746      0.00000
     21      12.6563      0.00000
     22      13.6661      0.00000
     23      14.0024      0.00000
     24      14.2561      0.00000

 k-point    36 :      -0.2917    0.2917    0.0000
  band No.  band energies     occupation 
      1     -20.7307      2.00000
      2     -11.7044      2.00000
      3      -8.6159      2.00000
      4      -8.4659      2.00000
      5       2.8320      0.00000
      6       2.9394      0.00000
      7       3.6816      0.00000
      8       3.8968      0.00000
      9       4.2060      0.00000
     10       4.4033      0.00000
     11       4.7841      0.00000
     12       5.0478      0.00000
     13       5.3591      0.00000
     14       6.2848      0.00000
     15       6.6454      0.00000
     16       7.8584      0.00000
     17       8.2971      0.00000
     18       9.7629      0.00000
     19      10.3047      0.00000
     20      11.7450      0.00000
     21      11.9720      0.00000
     22      12.5920      0.00000
     23      12.7252      0.00000
     24      15.3970      0.00000

 k-point    37 :       0.3750    0.3750    0.0000
  band No.  band energies     occupation 
      1     -16.5057      2.00000
      2     -15.6367      2.00000
      3     -12.9312      2.00000
      4      -4.1676      2.00000
      5      -2.1856      0.00000
      6       7.7799      0.00000
      7       9.0275      0.00000
      8       9.1768      0.00000
      9       9.5099      0.00000
     10      10.5525      0.00000
     11      10.8932      0.00000
     12      10.9115      0.00000
     13      10.9711      0.00000
     14      11.1830      0.00000
     15      11.3201      0.00000
     16      11.3778      0.00000
     17      11.4365      0.00000
     18      12.0144      0.00000
     19      12.0899      0.00000
     20      12.2341      0.00000
     21      12.2984      0.00000
     22      13.0756      0.00000
     23      13.3276      0.00000
     24      13.8619      0.00000

 k-point    38 :       0.4583    0.3750    0.0000
  band No.  band energies     occupation 
      1     -17.5303      2.00000
      2     -15.4827      2.00000
      3     -11.3697      2.00000
      4      -5.1889      2.00000
      5      -1.3608      0.00000
      6       6.8631      0.00000
      7       7.4569      0.00000
      8       7.9956      0.00000
      9       8.7250      0.00000
     10       8.9116      0.00000
     11       9.2125      0.00000
     12       9.4853      0.00000
     13       9.8407      0.00000
     14      10.1254      0.00000
     15      10.1464      0.00000
     16      11.0952      0.00000
     17      11.3675      0.00000
     18      11.4795      0.00000
     19      11.6009      0.00000
     20      11.9164      0.00000
     21      11.9766      0.00000
     22      12.6205      0.00000
     23      12.7087      0.00000
     24      13.0247      0.00000

 k-point    39 :      -0.4583    0.3750    0.0000
  band No.  band energies     occupation 
      1     -18.6157      2.00000
      2     -14.8281      2.00000
      3      -9.9562      2.00000
      4      -6.2231      2.00000
      5      -0.3993      0.00000
      6       5.0876      0.00000
      7       5.8450      0.00000
      8       6.6588      0.00000
      9       7.0015      0.00000
     10       7.2776      0.00000
     11       7.5026      0.00000
     12       8.0948      0.00000
     13       8.4255      0.00000
     14       9.2798      0.00000
     15       9.6981      0.00000
     16      10.6762      0.00000
     17      10.7784      0.00000
     18      11.3360      0.00000
     19      11.5730      0.00000
     20      12.5131      0.00000
     21      12.5574      0.00000
     22      12.8274      0.00000
     23      12.9458      0.00000
     24      13.6088      0.00000

 k-point    40 :      -0.3750    0.3750    0.0000
  band No.  band energies     occupation 
      1     -19.4614      2.00000
      2     -13.8857      2.00000
      3      -9.2313      2.00000
      4      -7.0770      2.00000
      5       0.6699      0.00000
      6       4.4111      0.00000
      7       4.6910      0.00000
      8       5.4553      0.00000
      9       5.7371      0.00000
     10       6.0299      0.00000
     11       6.2446      0.00000
     12       6.8646      0.00000
     13       7.1753      0.00000
     14       8.0879      0.00000
     15       8.4577      0.00000
     16       9.6325      0.00000
     17      10.1013      0.00000
     18      11.4555      0.00000
     19      11.9573      0.00000
     20      12.1106      0.00000
     21      12.9247      0.00000
     22      13.8178      0.00000
     23      14.0193      0.00000
     24      14.3591      0.00000

 k-point    41 :       0.4583    0.4583    0.0000
  band No.  band energies     occupation 
      1     -17.3490      2.00000
      2     -16.3302      2.00000
      3     -10.1224      2.00000
      4      -5.3626      2.00000
      5      -1.4974      0.00000
      6       5.0154      0.00000
      7       8.1304      0.00000
      8       8.2929      0.00000
      9       8.8239      0.00000
     10       9.1900      0.00000
     11       9.5198      0.00000
     12       9.5380      0.00000
     13       9.7483      0.00000
     14       9.8068      0.00000
     15      10.0003      0.00000
     16      10.0290      0.00000
     17      10.4596      0.00000
     18      10.6415      0.00000
     19      10.8931      0.00000
     20      10.9342      0.00000
     21      11.4807      0.00000
     22      11.8732      0.00000
     23      12.1296      0.00000
     24      12.1814      0.00000

 k-point    42 :      -0.4583    0.4583    0.0000
  band No.  band energies     occupation 
      1     -17.9671      2.00000
      2     -15.8612      2.00000
      3      -9.5541      2.00000
      4      -5.7673      2.00000
      5      -1.1397      0.00000
      6       4.3151      0.00000
      7       6.8197      0.00000
      8       7.6764      0.00000
      9       8.0359      0.00000
     10       8.3084      0.00000
     11       8.5313      0.00000
     12       9.1190      0.00000
     13       9.3727      0.00000
     14       9.4574      0.00000
     15      10.1606      0.00000
     16      10.4140      0.00000
     17      10.7141      0.00000
     18      10.7939      0.00000
     19      11.0345      0.00000
     20      11.2682      0.00000
     21      11.6916      0.00000
     22      11.9382      0.00000
     23      12.1507      0.00000
     24      12.3406      0.00000


--------------------------------------------------------------------------------------------------------


 soft charge-density along one line, spin component           1
         0         1         2         3         4         5         6         7         8         9
 total charge-density along one line
 
 pseudopotential strength for first ion, spin component:           1
 12.714  21.395  -0.000  -0.000  -0.000  -0.000  -0.000  -0.000
 21.395  36.002  -0.000  -0.000  -0.000  -0.000  -0.000  -0.000
 -0.000  -0.000  -3.173  -0.000   0.000  -5.688  -0.000   0.000
 -0.000  -0.000  -0.000  -3.175   0.000  -0.000  -5.690   0.000
 -0.000  -0.000   0.000   0.000  -3.173   0.000   0.000  -5.688
 -0.000  -0.000  -5.688  -0.000   0.000 -10.175  -0.000   0.000
 -0.000  -0.000  -0.000  -5.690   0.000  -0.000 -10.177   0.000
 -0.000  -0.000   0.000   0.000  -5.688   0.000   0.000 -10.175
 total augmentation occupancy for first ion, spin component:           1
  7.897  -2.773   0.000   0.000   0.000   0.000   0.000   0.000
 -2.773   1.011  -0.000   0.000   0.000   0.000   0.000   0.000
 -0.000   0.000   7.469   0.000   0.000  -2.552  -0.000   0.000
  0.000   0.000   0.000   3.346   0.000  -0.000  -0.908   0.000
  0.000   0.000   0.000   0.000   7.469   0.000   0.000  -2.552
 -0.000  -0.000  -2.552   0.000   0.000   0.886   0.000   0.000
  0.000   0.000   0.000  -0.908   0.000  -0.000   0.253   0.000
  0.000   0.000   0.000  -0.000  -2.552   0.000   0.000   0.886


------------------------ aborting loop because EDIFF is reached ----------------------------------------


    CHARGE:  cpu time    0.1630: real time    0.1647
    FORLOC:  cpu time    0.0010: real time    0.0037
    FORNL :  cpu time    0.0850: real time    0.0947
    STRESS:  cpu time    1.1678: real time    1.1800
    FORCOR:  cpu time    0.0130: real time    0.0206
    FORHAR:  cpu time    0.0030: real time    0.0049
    MIXING:  cpu time    0.0040: real time    0.0217
    OFIELD:  cpu time    0.0010: real time    0.0021

  DFT-D2 method for vdW energy calculation
  -------------------------------------------------------------------

  Parameters of vdW forcefield:
         C6(Jnm^6/mol)     R0(A)
   -----------------------------
   C        1.750          1.452

  IVDW =   1
  VDW_RADIUS =    50.000 A
  VDW_S6 =     0.750
  VDW_SR =     1.000
  VDW_D =    20.000
  LVDW_EWALD = F

  Number of pair interactions contributing to vdW energy:   10234
  Edisp (eV):   -0.10831
    FORVDW:  cpu time    0.0090: real time    0.0180

  FORCE on cell =-STRESS in cart. coord.  units (eV):
  Direction    XX          YY          ZZ          XY          YZ          ZX
  --------------------------------------------------------------------------------------
  Alpha Z     1.38149     1.38149     1.38149
  Ewald    2518.26661  2518.26269 -2787.77251    -0.00000     0.00000     0.00000
  Hartree  2479.12927  2479.12928 -2467.88446     0.00000    -0.00000    -0.00000
  E(xc)     -32.46942   -32.46941   -33.42623    -0.00000     0.00000    -0.00000
  Local   -5112.95013 -5112.94852  5125.72809    -0.00000    -0.00000    -0.00000
  n-local     8.20934     8.20941     6.79075     0.21968     0.00000     0.00000
  augment     0.14225     0.14224     0.11668     0.00000     0.00000    -0.00000
  Kinetic   138.56832   138.59982   155.01943    -1.32549    -0.00000    -0.00000
  Fock        0.00000     0.00000     0.00000     0.00000     0.00000     0.00000
  vdW        -0.00794    -0.00794    -0.00007    -0.00000     0.00000     0.00000
  -------------------------------------------------------------------------------------
  Total       0.28442     0.28442    -0.04683    -0.00000     0.00000    -0.00000
  in kB       2.87086     2.87087    -0.47273    -0.00000     0.00000    -0.00000
  external pressure =        1.76 kB  Pullay stress =        0.00 kB


 VOLUME and BASIS-vectors are now :
 -----------------------------------------------------------------------------
  energy-cutoff  :      875.00
  volume of cell :      158.73
      direct lattice vectors                 reciprocal lattice vectors
     1.230092889 -2.130588742  0.000000000     0.406473368 -0.234676918  0.000000000
     1.230092889  2.130588742  0.000000000     0.406473368  0.234676918  0.000000000
     0.000000000  0.000000000 30.282393743     0.000000000  0.000000000  0.033022489

  length of vectors
     2.460190420  2.460190420 30.282393743     0.469354722  0.469354722  0.033022489


 FORCES acting on ions
    electron-ion (+dipol)            ewald-force                    non-local-force                 convergence-correction
 -----------------------------------------------------------------------------------------------
   -.733E-07 0.131E-02 0.105E-06   0.632E-14 0.201E-02 0.000E+00   -.550E-17 0.107E-15 0.000E+00   0.579E-16 -.118E-09 -.661E-11
   -.305E-07 -.460E-03 0.131E-06   0.169E-15 -.201E-02 0.000E+00   -.130E-17 -.111E-15 0.000E+00   0.927E-16 0.768E-10 -.702E-11
 -----------------------------------------------------------------------------------------------
   -.104E-06 0.851E-03 0.236E-06   0.649E-14 -.520E-15 0.000E+00   -.680E-17 -.406E-17 0.000E+00   0.151E-15 -.415E-10 -.136E-10
 
 
 POSITION                                       TOTAL-FORCE (eV/Angst)
 -----------------------------------------------------------------------------------
      1.23009      2.13058     15.14120         0.000000      0.000000      0.000000
      1.23009     -0.71020     15.14120         0.000000     -0.000000      0.000000
 -----------------------------------------------------------------------------------
    total drift:                               -0.000000      0.000851      0.000000


--------------------------------------------------------------------------------------------------------



  FREE ENERGIE OF THE ION-ELECTRON SYSTEM (eV)
  ---------------------------------------------------
  free  energy   TOTEN  =       -18.59470815 eV

  energy  without entropy=      -18.59470815  energy(sigma->0) =      -18.59470815
 


--------------------------------------------------------------------------------------------------------


    POTLOK:  cpu time    0.0240: real time    0.0262


--------------------------------------------------------------------------------------------------------


 stress matrix after NEB project (eV)
      0.28442      0.00000     -0.00000
     -0.00000      0.28442     -0.00000
      0.00000      0.00000     -0.04683
  FORCES: max atom, RMS     0.000000    0.000000
  FORCE total and by dimension    0.000000    0.000000
  Stress total and by dimension    0.404948    0.284421


--------------------------------------------------------------------------------------------------------


  
 reached required accuracy - stopping structural energy minimisation
     LOOP+:  cpu time   80.6507: real time   81.6008
    4ORBIT:  cpu time    0.0000: real time    0.0000

 total amount of memory used by VASP MPI-rank0    71653. kBytes
=======================================================================

   base      :      30000. kBytes
   nonl-proj :      25655. kBytes
   fftplans  :       1561. kBytes
   grid      :       8077. kBytes
   one-center:          6. kBytes
   wavefun   :       6354. kBytes
 
  
  
 General timing and accounting informations for this job:
 ========================================================
  
                  Total CPU time used (sec):       82.788
                            User time (sec):       81.588
                          System time (sec):        1.201
                         Elapsed time (sec):       84.753
  
                   Maximum memory used (kb):      175508.
                   Average memory used (kb):           0.
  
                          Minor page faults:       125243
                          Major page faults:          325
                 Voluntary context switches:         9342
