unknown system                          
           1
     1.230093   -2.130589    0.000000
     1.230093    2.130589    0.000000
     0.000000    0.000000   30.282394
   C 
   2
Direct configuration=     1
   0.00000262  0.99999738  0.50000000
   0.66666738  0.33333262  0.50000000
