   4   4   0   0
  0.1384451E+02  0.3811646E-09  0.3811646E-09  0.3811646E-09  0.2000000E-15
  1.000000000000000E-004
  CAR 
 unknown system                          
     25.62955307     -0.07555273  301     13.49311849      1.00000000
     -0.076  0.0000E+00  0.0000E+00
      0.010  0.0000E+00  0.0000E+00
      0.096  0.0000E+00  0.0000E+00
      0.181  0.0000E+00  0.0000E+00
      0.267  0.0000E+00  0.0000E+00
      0.353  0.0000E+00  0.0000E+00
      0.439  0.0000E+00  0.0000E+00
      0.524  0.3071E-19  0.2632E-20
      0.610  0.2962E-15  0.2538E-16
      0.696  0.6824E-12  0.5849E-13
      0.781  0.3866E-09  0.3318E-10
      0.867  0.5716E-07  0.4931E-08
      0.953  0.2474E-05  0.2169E-06
      1.038  0.3697E-04  0.3385E-05
      1.124  0.2226E-03  0.2246E-04
      1.210  0.5970E-03  0.7361E-04
      1.295  0.8562E-03  0.1470E-03
      1.381  0.1172E-02  0.2474E-03
      1.467  0.1581E-02  0.3829E-03
      1.552  0.1367E-02  0.4999E-03
      1.638  0.1598E-02  0.6369E-03
      1.724  0.2187E-02  0.8243E-03
      1.809  0.2137E-02  0.1007E-02
      1.895  0.2235E-02  0.1199E-02
      1.981  0.2400E-02  0.1405E-02
      2.067  0.2036E-02  0.1579E-02
      2.152  0.2852E-02  0.1823E-02
      2.238  0.3350E-02  0.2110E-02
      2.324  0.3405E-02  0.2402E-02
      2.409  0.3054E-02  0.2664E-02
      2.495  0.2296E-02  0.2861E-02
      2.581  0.3433E-02  0.3155E-02
      2.666  0.4605E-02  0.3549E-02
      2.752  0.4356E-02  0.3923E-02
      2.838  0.3929E-02  0.4259E-02
      2.923  0.3890E-02  0.4593E-02
      3.009  0.4535E-02  0.4981E-02
      3.095  0.4931E-02  0.5404E-02
      3.180  0.4973E-02  0.5830E-02
      3.266  0.4796E-02  0.6241E-02
      3.352  0.6186E-02  0.6771E-02
      3.437  0.7427E-02  0.7407E-02
      3.523  0.6362E-02  0.7952E-02
      3.609  0.6084E-02  0.8473E-02
      3.695  0.6663E-02  0.9044E-02
      3.780  0.9600E-02  0.9867E-02
      3.866  0.1415E-01  0.1108E-01
      3.952  0.1696E-01  0.1253E-01
      4.037  0.1854E-01  0.1412E-01
      4.123  0.2423E-01  0.1620E-01
      4.209  0.2869E-01  0.1866E-01
      4.294  0.2945E-01  0.2118E-01
      4.380  0.3302E-01  0.2401E-01
      4.466  0.3603E-01  0.2710E-01
      4.551  0.4479E-01  0.3093E-01
      4.637  0.4926E-01  0.3515E-01
      4.723  0.5033E-01  0.3947E-01
      4.808  0.5944E-01  0.4456E-01
      4.894  0.6185E-01  0.4986E-01
      4.980  0.5728E-01  0.5477E-01
      5.065  0.5930E-01  0.5985E-01
      5.151  0.6012E-01  0.6500E-01
      5.237  0.5167E-01  0.6943E-01
      5.323  0.4986E-01  0.7370E-01
      5.408  0.5432E-01  0.7835E-01
      5.494  0.5172E-01  0.8278E-01
      5.580  0.4747E-01  0.8685E-01
      5.665  0.4794E-01  0.9096E-01
      5.751  0.4486E-01  0.9480E-01
      5.837  0.3513E-01  0.9781E-01
      5.922  0.3393E-01  0.1007E+00
      6.008  0.4015E-01  0.1042E+00
      6.094  0.4424E-01  0.1080E+00
      6.179  0.4494E-01  0.1118E+00
      6.265  0.4874E-01  0.1160E+00
      6.351  0.5521E-01  0.1207E+00
      6.436  0.5398E-01  0.1253E+00
      6.522  0.5428E-01  0.1300E+00
      6.608  0.5727E-01  0.1349E+00
      6.693  0.5168E-01  0.1393E+00
      6.779  0.4948E-01  0.1436E+00
      6.865  0.5636E-01  0.1484E+00
      6.951  0.5817E-01  0.1534E+00
      7.036  0.6039E-01  0.1585E+00
      7.122  0.5871E-01  0.1636E+00
      7.208  0.5495E-01  0.1683E+00
      7.293  0.5922E-01  0.1734E+00
      7.379  0.6663E-01  0.1791E+00
      7.465  0.7464E-01  0.1855E+00
      7.550  0.7894E-01  0.1922E+00
      7.636  0.8049E-01  0.1991E+00
      7.722  0.8714E-01  0.2066E+00
      7.807  0.9475E-01  0.2147E+00
      7.893  0.9078E-01  0.2225E+00
      7.979  0.7396E-01  0.2288E+00
      8.064  0.5920E-01  0.2339E+00
      8.150  0.5670E-01  0.2388E+00
      8.236  0.5166E-01  0.2432E+00
      8.321  0.4715E-01  0.2472E+00
      8.407  0.4756E-01  0.2513E+00
      8.493  0.4736E-01  0.2554E+00
      8.578  0.4545E-01  0.2593E+00
      8.664  0.4308E-01  0.2629E+00
      8.750  0.4546E-01  0.2668E+00
      8.836  0.4762E-01  0.2709E+00
      8.921  0.5168E-01  0.2753E+00
      9.007  0.5611E-01  0.2802E+00
      9.093  0.5625E-01  0.2850E+00
      9.178  0.5663E-01  0.2898E+00
      9.264  0.6104E-01  0.2951E+00
      9.350  0.6289E-01  0.3004E+00
      9.435  0.5867E-01  0.3055E+00
      9.521  0.5219E-01  0.3099E+00
      9.607  0.4784E-01  0.3140E+00
      9.692  0.5034E-01  0.3184E+00
      9.778  0.5072E-01  0.3227E+00
      9.864  0.4920E-01  0.3269E+00
      9.949  0.4423E-01  0.3307E+00
     10.035  0.3985E-01  0.3341E+00
     10.121  0.4066E-01  0.3376E+00
     10.206  0.4572E-01  0.3415E+00
     10.292  0.4657E-01  0.3455E+00
     10.378  0.4667E-01  0.3495E+00
     10.464  0.4609E-01  0.3535E+00
     10.549  0.3863E-01  0.3568E+00
     10.635  0.4123E-01  0.3603E+00
     10.721  0.5439E-01  0.3650E+00
     10.806  0.5613E-01  0.3698E+00
     10.892  0.5150E-01  0.3742E+00
     10.978  0.5481E-01  0.3789E+00
     11.063  0.7228E-01  0.3851E+00
     11.149  0.8730E-01  0.3926E+00
     11.235  0.7869E-01  0.3993E+00
     11.320  0.6499E-01  0.4049E+00
     11.406  0.5755E-01  0.4098E+00
     11.492  0.4934E-01  0.4140E+00
     11.577  0.3952E-01  0.4174E+00
     11.663  0.3722E-01  0.4206E+00
     11.749  0.2716E-01  0.4229E+00
     11.834  0.1161E-01  0.4239E+00
     11.920  0.4774E-02  0.4243E+00
     12.006  0.5719E-02  0.4248E+00
     12.092  0.7489E-02  0.4255E+00
     12.177  0.1300E-01  0.4266E+00
     12.263  0.1887E-01  0.4282E+00
     12.349  0.1406E-01  0.4294E+00
     12.434  0.7635E-02  0.4300E+00
     12.520  0.4736E-02  0.4305E+00
     12.606  0.4251E-02  0.4308E+00
     12.691  0.6795E-02  0.4314E+00
     12.777  0.1183E-01  0.4324E+00
     12.863  0.1427E-01  0.4336E+00
     12.948  0.1106E-01  0.4346E+00
     13.034  0.8974E-02  0.4354E+00
     13.120  0.7143E-02  0.4360E+00
     13.205  0.8688E-02  0.4367E+00
     13.291  0.1175E-01  0.4377E+00
     13.377  0.1284E-01  0.4388E+00
     13.462  0.1088E-01  0.4398E+00
     13.548  0.7466E-02  0.4404E+00
     13.634  0.7555E-02  0.4410E+00
     13.720  0.8153E-02  0.4417E+00
     13.805  0.7858E-02  0.4424E+00
     13.891  0.1049E-01  0.4433E+00
     13.977  0.1480E-01  0.4446E+00
     14.062  0.1113E-01  0.4455E+00
     14.148  0.7327E-02  0.4462E+00
     14.234  0.8871E-02  0.4469E+00
     14.319  0.9812E-02  0.4478E+00
     14.405  0.1009E-01  0.4486E+00
     14.491  0.9003E-02  0.4494E+00
     14.576  0.1003E-01  0.4503E+00
     14.662  0.1073E-01  0.4512E+00
     14.748  0.9831E-02  0.4520E+00
     14.833  0.9757E-02  0.4529E+00
     14.919  0.9720E-02  0.4537E+00
     15.005  0.9077E-02  0.4545E+00
     15.090  0.7426E-02  0.4551E+00
     15.176  0.7261E-02  0.4557E+00
     15.262  0.9241E-02  0.4565E+00
     15.348  0.9850E-02  0.4574E+00
     15.433  0.1177E-01  0.4584E+00
     15.519  0.1099E-01  0.4593E+00
     15.605  0.8340E-02  0.4600E+00
     15.690  0.7463E-02  0.4607E+00
     15.776  0.7834E-02  0.4613E+00
     15.862  0.7840E-02  0.4620E+00
     15.947  0.9079E-02  0.4628E+00
     16.033  0.1161E-01  0.4638E+00
     16.119  0.9680E-02  0.4646E+00
     16.204  0.5394E-02  0.4651E+00
     16.290  0.5511E-02  0.4655E+00
     16.376  0.6904E-02  0.4661E+00
     16.461  0.8171E-02  0.4668E+00
     16.547  0.1016E-01  0.4677E+00
     16.633  0.9537E-02  0.4685E+00
     16.718  0.7880E-02  0.4692E+00
     16.804  0.8290E-02  0.4699E+00
     16.890  0.7397E-02  0.4705E+00
     16.976  0.5340E-02  0.4710E+00
     17.061  0.6346E-02  0.4715E+00
     17.147  0.7441E-02  0.4722E+00
     17.233  0.7444E-02  0.4728E+00
     17.318  0.7070E-02  0.4734E+00
     17.404  0.7753E-02  0.4741E+00
     17.490  0.1020E-01  0.4750E+00
     17.575  0.1311E-01  0.4761E+00
     17.661  0.1595E-01  0.4775E+00
     17.747  0.1739E-01  0.4789E+00
     17.832  0.1636E-01  0.4803E+00
     17.918  0.1501E-01  0.4816E+00
     18.004  0.1404E-01  0.4828E+00
     18.089  0.1298E-01  0.4839E+00
     18.175  0.1095E-01  0.4849E+00
     18.261  0.9856E-02  0.4857E+00
     18.346  0.9616E-02  0.4865E+00
     18.432  0.8993E-02  0.4873E+00
     18.518  0.1073E-01  0.4882E+00
     18.603  0.1518E-01  0.4895E+00
     18.689  0.1332E-01  0.4907E+00
     18.775  0.8206E-02  0.4914E+00
     18.861  0.7796E-02  0.4921E+00
     18.946  0.1231E-01  0.4931E+00
     19.032  0.1379E-01  0.4943E+00
     19.118  0.8563E-02  0.4950E+00
     19.203  0.6659E-02  0.4956E+00
     19.289  0.1028E-01  0.4965E+00
     19.375  0.1469E-01  0.4977E+00
     19.460  0.1358E-01  0.4989E+00
     19.546  0.1246E-01  0.5000E+00
     19.632  0.1222E-01  0.5010E+00
     19.717  0.9028E-02  0.5018E+00
     19.803  0.7921E-02  0.5025E+00
     19.889  0.1063E-01  0.5034E+00
     19.974  0.1173E-01  0.5044E+00
     20.060  0.1219E-01  0.5054E+00
     20.146  0.1318E-01  0.5066E+00
     20.231  0.1193E-01  0.5076E+00
     20.317  0.1283E-01  0.5087E+00
     20.403  0.1540E-01  0.5100E+00
     20.489  0.1158E-01  0.5110E+00
     20.574  0.7675E-02  0.5116E+00
     20.660  0.8171E-02  0.5123E+00
     20.746  0.9508E-02  0.5132E+00
     20.831  0.9273E-02  0.5140E+00
     20.917  0.8304E-02  0.5147E+00
     21.003  0.8546E-02  0.5154E+00
     21.088  0.1037E-01  0.5163E+00
     21.174  0.1226E-01  0.5173E+00
     21.260  0.1213E-01  0.5184E+00
     21.345  0.1097E-01  0.5193E+00
     21.431  0.1048E-01  0.5202E+00
     21.517  0.8290E-02  0.5209E+00
     21.602  0.5784E-02  0.5214E+00
     21.688  0.4497E-02  0.5218E+00
     21.774  0.7006E-02  0.5224E+00
     21.859  0.1186E-01  0.5234E+00
     21.945  0.1346E-01  0.5246E+00
     22.031  0.1142E-01  0.5256E+00
     22.117  0.1094E-01  0.5265E+00
     22.202  0.1291E-01  0.5276E+00
     22.288  0.1099E-01  0.5285E+00
     22.374  0.6681E-02  0.5291E+00
     22.459  0.7444E-02  0.5297E+00
     22.545  0.1011E-01  0.5306E+00
     22.631  0.9491E-02  0.5314E+00
     22.716  0.6920E-02  0.5320E+00
     22.802  0.7735E-02  0.5327E+00
     22.888  0.1055E-01  0.5336E+00
     22.973  0.1179E-01  0.5346E+00
     23.059  0.1263E-01  0.5357E+00
     23.145  0.1094E-01  0.5366E+00
     23.230  0.6904E-02  0.5372E+00
     23.316  0.4753E-02  0.5376E+00
     23.402  0.3500E-02  0.5379E+00
     23.487  0.2139E-02  0.5381E+00
     23.573  0.7013E-03  0.5382E+00
     23.659  0.8128E-03  0.5382E+00
     23.745  0.1768E-02  0.5384E+00
     23.830  0.2437E-02  0.5386E+00
     23.916  0.3808E-02  0.5389E+00
     24.002  0.4638E-02  0.5393E+00
     24.087  0.3203E-02  0.5396E+00
     24.173  0.1275E-02  0.5397E+00
     24.259  0.2313E-03  0.5397E+00
     24.344  0.3166E-03  0.5397E+00
     24.430  0.1217E-02  0.5398E+00
     24.516  0.1336E-02  0.5400E+00
     24.601  0.4065E-03  0.5400E+00
     24.687  0.3360E-04  0.5400E+00
     24.773  0.7315E-06  0.5400E+00
     24.858  0.4084E-08  0.5400E+00
     24.944  0.5730E-11  0.5400E+00
     25.030  0.1993E-14  0.5400E+00
     25.115  0.1075E-18  0.5400E+00
     25.201  0.0000E+00  0.5400E+00
     25.287  0.0000E+00  0.5400E+00
     25.373  0.0000E+00  0.5400E+00
     25.458  0.0000E+00  0.5400E+00
     25.544  0.0000E+00  0.5400E+00
     25.630  0.0000E+00  0.5400E+00
