    4    4  100    1
  0.1384451E+02  0.3811646E-09  0.3811646E-09  0.3811646E-09  0.2000000E-15
  1.000000000000000E-004
  CAR 
 unknown system                          
     44   1688     27
 
  0.0000000E+00  0.0000000E+00  0.0000000E+00  0.2962963E-03
    1        1.092861   1.000000
    2        4.049721   1.000000
    3        4.049721   1.000000
    4        4.049721   1.000000
    5        4.485539   1.000000
    6        4.485539   1.000000
    7        4.485539   1.000000
    8        7.373303   1.000000
    9        7.373304   1.000000
   10        7.373304   1.000000
   11        9.551086   1.000000
   12        9.551087   1.000000
   13       11.221702   1.000000
   14       11.221702   1.000000
   15       11.221702   1.000000
   16       11.744648   1.000000
   17       11.744649   1.000000
   18       11.744649   1.000000
   19       11.744649   1.000000
   20       11.744649   1.000000
   21       11.744650   1.000000
   22       13.798264   0.000008
   23       13.798265   0.000008
   24       13.798266   0.000008
   25       21.097757   0.000000
   26       21.097759   0.000000
   27       21.097759   0.000000
 
  0.6666667E-01 -0.8615811E-25  0.2067952E-24  0.5925926E-03
    1        1.156321   1.000000
    2        4.076693   1.000000
    3        4.095512   1.000000
    4        4.095512   1.000000
    5        4.510912   1.000000
    6        4.525242   1.000000
    7        4.525242   1.000000
    8        7.332757   1.000000
    9        7.405518   1.000000
   10        7.405519   1.000000
   11        9.506223   1.000000
   12        9.567366   1.000000
   13       11.155502   1.000000
   14       11.155502   1.000000
   15       11.201043   1.000000
   16       11.363502   1.000000
   17       11.363502   1.000000
   18       11.664534   1.000000
   19       11.664534   1.000000
   20       11.744791   1.000000
   21       11.744791   1.000000
   22       13.440580   0.771262
   23       14.214355   0.000000
   24       14.214355   0.000000
   25       20.970726   0.000000
   26       20.970726   0.000000
   27       21.547310   0.000000
 
  0.1333333E+00  0.3447936E-25  0.0000000E+00  0.5925926E-03
    1        1.345021   1.000000
    2        4.153275   1.000000
    3        4.230000   1.000000
    4        4.230000   1.000000
    5        4.586454   1.000000
    6        4.644271   1.000000
    7        4.644271   1.000000
    8        7.214495   1.000000
    9        7.501716   1.000000
   10        7.501717   1.000000
   11        9.375688   1.000000
   12        9.615700   1.000000
   13       10.619482   1.000000
   14       10.619482   1.000000
   15       10.961774   1.000000
   16       10.961774   1.000000
   17       11.140365   1.000000
   18       11.437016   1.000000
   19       11.437016   1.000000
   20       11.745221   1.000000
   21       11.745221   1.000000
   22       12.567841   1.000000
   23       15.062073   0.000000
   24       15.062073   0.000000
   25       20.656066   0.000000
   26       20.656066   0.000000
   27       22.697472   0.000000
 
  0.2000000E+00 -0.2584739E-24  0.0000000E+00  0.5925926E-03
    1        1.653302   1.000000
    2        4.264980   1.000000
    3        4.443758   1.000000
    4        4.443758   1.000000
    5        4.710587   1.000000
    6        4.841839   1.000000
    7        4.841839   1.000000
    8        7.028381   1.000000
    9        7.660997   1.000000
   10        7.660998   1.000000
   11        9.171835   1.000000
   12        9.694597   1.000000
   13        9.815402   1.000000
   14        9.815402   1.000000
   15       10.656627   1.000000
   16       10.656627   1.000000
   17       11.043421   1.000000
   18       11.094535   1.000000
   19       11.094535   1.000000
   20       11.492054   1.000000
   21       11.745820   1.000000
   22       11.745820   1.000000
   23       16.034638   0.000000
   24       16.034638   0.000000
   25       20.275940   0.000000
   26       20.275940   0.000000
   27       23.420695   0.000000
 
  0.2666667E+00 -0.3446320E-24  0.8271806E-24  0.5925926E-03
    1        2.070113   1.000000
    2        4.382347   1.000000
    3        4.718523   1.000000
    4        4.718523   1.000000
    5        4.880356   1.000000
    6        5.117164   1.000000
    7        5.117164   1.000000
    8        6.788593   1.000000
    9        7.881606   1.000000
   10        7.881606   1.000000
   11        8.916489   1.000000
   12        9.028081   1.000000
   13        9.028081   1.000000
   14        9.801538   1.000000
   15       10.271507   1.000000
   16       10.271507   1.000000
   17       10.412514   1.000000
   18       10.676483   1.000000
   19       10.676483   1.000000
   20       10.915794   1.000000
   21       11.746548   1.000000
   22       11.746548   1.000000
   23       17.048705   0.000000
   24       17.048706   0.000000
   25       19.921254   0.000000
   26       19.921255   0.000000
   27       22.992898   0.000000
 
  0.3333333E+00  0.1895954E-24  0.8271806E-24  0.5925926E-03
    1        2.575831   1.000000
    2        4.453021   1.000000
    3        5.022075   1.000000
    4        5.022075   1.000000
    5        5.091768   1.000000
    6        5.468623   1.000000
    7        5.468623   1.000000
    8        6.511469   1.000000
    9        8.160712   1.000000
   10        8.160712   1.000000
   11        8.282545   1.000000
   12        8.282545   1.000000
   13        8.642802   1.000000
   14        9.458041   1.000000
   15        9.857697   1.000000
   16        9.857697   1.000000
   17        9.932970   1.000000
   18       10.219726   1.000000
   19       10.219726   1.000000
   20       10.764654   1.000000
   21       11.747222   1.000000
   22       11.747223   1.000000
   23       18.069602   0.000000
   24       18.069602   0.000000
   25       19.639556   0.000000
   26       19.639556   0.000000
   27       22.429175   0.000000
 
  0.4000000E+00 -0.5169478E-24  0.0000000E+00  0.5925926E-03
    1        3.135763   1.000000
    2        4.396996   1.000000
    3        5.300568   1.000000
    4        5.300569   1.000000
    5        5.339083   1.000000
    6        5.894406   1.000000
    7        5.894406   1.000000
    8        6.213599   1.000000
    9        7.590477   1.000000
   10        7.590477   1.000000
   11        8.400765   1.000000
   12        8.494610   1.000000
   13        8.494611   1.000000
   14        8.740742   1.000000
   15        9.490284   1.000000
   16        9.490285   1.000000
   17        9.753781   1.000000
   18        9.753782   1.000000
   19       10.084401   1.000000
   20       10.597950   1.000000
   21       11.747770   1.000000
   22       11.747771   1.000000
   23       19.072690   0.000000
   24       19.072690   0.000000
   25       19.449279   0.000000
   26       19.449279   0.000000
   27       21.736257   0.000000
 
  0.4666667E+00  0.1727960E-25  0.8271806E-24  0.5925926E-03
    1        3.688635   1.000000
    2        4.139668   1.000000
    3        5.475553   1.000000
    4        5.475553   1.000000
    5        5.615016   1.000000
    6        5.910294   1.000000
    7        6.392011   1.000000
    8        6.392011   1.000000
    9        6.958623   1.000000
   10        6.958623   1.000000
   11        8.266219   1.000000
   12        8.346289   1.000000
   13        8.877408   1.000000
   14        8.877409   1.000000
   15        9.265599   1.000000
   16        9.265599   1.000000
   17        9.300949   1.000000
   18        9.300950   1.000000
   19       10.250210   1.000000
   20       10.423806   1.000000
   21       11.748050   1.000000
   22       11.748050   1.000000
   23       19.354375   0.000000
   24       19.354375   0.000000
   25       20.034486   0.000000
   26       20.034488   0.000000
   27       20.930535   0.000000
 
 -0.9810470E-25  0.6666667E-01 -0.8271806E-24  0.5925926E-03
    1        1.156321   1.000000
    2        4.076694   1.000000
    3        4.095512   1.000000
    4        4.095512   1.000000
    5        4.510912   1.000000
    6        4.525242   1.000000
    7        4.525242   1.000000
    8        7.332758   1.000000
    9        7.405517   1.000000
   10        7.405518   1.000000
   11        9.506224   1.000000
   12        9.567365   1.000000
   13       11.155502   1.000000
   14       11.155502   1.000000
   15       11.201043   1.000000
   16       11.363502   1.000000
   17       11.363503   1.000000
   18       11.664533   1.000000
   19       11.664534   1.000000
   20       11.744790   1.000000
   21       11.744791   1.000000
   22       13.440582   0.771254
   23       14.214353   0.000000
   24       14.214355   0.000000
   25       20.970724   0.000000
   26       20.970726   0.000000
   27       21.547313   0.000000
 
  0.6666667E-01  0.6666667E-01 -0.2067952E-24  0.5925926E-03
    1        1.219309   1.000000
    2        4.122721   1.000000
    3        4.122721   1.000000
    4        4.137685   1.000000
    5        4.550320   1.000000
    6        4.550320   1.000000
    7        4.567456   1.000000
    8        7.313308   1.000000
    9        7.417352   1.000000
   10        7.435892   1.000000
   11        9.492811   1.000000
   12        9.554680   1.000000
   13       11.092401   1.000000
   14       11.094750   1.000000
   15       11.094750   1.000000
   16       11.112954   1.000000
   17       11.304365   1.000000
   18       11.304365   1.000000
   19       11.664561   1.000000
   20       11.664562   1.000000
   21       11.694158   1.000000
   22       13.872627   0.000000
   23       13.872629   0.000000
   24       14.550996   0.000000
   25       20.828578   0.000000
   26       21.408808   0.000000
   27       21.408810   0.000000
 
  0.1333333E+00  0.6666667E-01 -0.2067952E-24  0.5925926E-03
    1        1.406410   1.000000
    2        4.200008   1.000000
    3        4.257929   1.000000
    4        4.261702   1.000000
    5        4.624954   1.000000
    6        4.668385   1.000000
    7        4.693295   1.000000
    8        7.207740   1.000000
    9        7.503359   1.000000
   10        7.526459   1.000000
   11        9.377518   1.000000
   12        9.595466   1.000000
   13       10.466752   1.000000
   14       10.484803   1.000000
   15       10.860507   1.000000
   16       10.907132   1.000000
   17       10.991499   1.000000
   18       11.181979   1.000000
   19       11.436716   1.000000
   20       11.664602   1.000000
   21       11.666398   1.000000
   22       13.067153   1.000000
   23       14.711472   0.000000
   24       15.311967   0.000000
   25       20.477085   0.000000
   26       21.074660   0.000000
   27       22.506421   0.000000
 
  0.2000000E+00  0.6666667E-01 -0.4135903E-24  0.5925926E-03
    1        1.712102   1.000000
    2        4.312842   1.000000
    3        4.460242   1.000000
    4        4.473012   1.000000
    5        4.747534   1.000000
    6        4.864417   1.000000
    7        4.900118   1.000000
    8        7.027723   1.000000
    9        7.660223   1.000000
   10        7.674573   1.000000
   11        9.182577   1.000000
   12        9.675910   1.000000
   13        9.679602   1.000000
   14        9.738781   1.000000
   15       10.415995   1.000000
   16       10.613889   1.000000
   17       10.686941   1.000000
   18       11.031850   1.000000
   19       11.093805   1.000000
   20       11.659473   1.000000
   21       11.664619   1.000000
   22       12.151808   1.000000
   23       15.641781   0.000000
   24       16.235695   0.000000
   25       20.052598   0.000000
   26       20.689607   0.000000
   27       23.185190   0.000000
 
  0.2666667E+00  0.6666667E-01 -0.4135903E-24  0.5925926E-03
    1        2.125505   1.000000
    2        4.431631   1.000000
    3        4.720324   1.000000
    4        4.749864   1.000000
    5        4.915221   1.000000
    6        5.137389   1.000000
    7        5.181072   1.000000
    8        6.793300   1.000000
    9        7.872637   1.000000
   10        7.879968   1.000000
   11        8.902079   1.000000
   12        8.943889   1.000000
   13        8.984037   1.000000
   14        9.791576   1.000000
   15        9.795712   1.000000
   16       10.241826   1.000000
   17       10.308369   1.000000
   18       10.675360   1.000000
   19       10.801324   1.000000
   20       11.390243   1.000000
   21       11.658095   1.000000
   22       11.664484   1.000000
   23       16.573330   0.000000
   24       17.221603   0.000000
   25       19.652272   0.000000
   26       20.365426   0.000000
   27       22.829496   0.000000
 
  0.3333333E+00  0.6666667E-01  0.0000000E+00  0.5925926E-03
    1        2.627289   1.000000
    2        4.503291   1.000000
    3        5.019082   1.000000
    4        5.056365   1.000000
    5        5.123825   1.000000
    6        5.485704   1.000000
    7        5.524717   1.000000
    8        6.521553   1.000000
    9        8.089342   1.000000
   10        8.158805   1.000000
   11        8.173179   1.000000
   12        8.258901   1.000000
   13        8.723598   1.000000
   14        9.092828   1.000000
   15        9.840924   1.000000
   16        9.898599   1.000000
   17        9.939301   1.000000
   18       10.218216   1.000000
   19       10.386916   1.000000
   20       10.950509   1.000000
   21       11.658631   1.000000
   22       11.664130   1.000000
   23       17.438850   0.000000
   24       18.225315   0.000000
   25       19.320308   0.000000
   26       20.186163   0.000000
   27       22.368654   0.000000
 
  0.4000000E+00  0.6666667E-01  0.4135903E-24  0.5925926E-03
    1        3.183595   1.000000
    2        4.446603   1.000000
    3        5.309479   1.000000
    4        5.338102   1.000000
    5        5.367777   1.000000
    6        5.907247   1.000000
    7        5.920726   1.000000
    8        6.228884   1.000000
    9        7.502595   1.000000
   10        7.580622   1.000000
   11        8.177517   1.000000
   12        8.492570   1.000000
   13        8.505445   1.000000
   14        8.713499   1.000000
   15        9.486663   1.000000
   16        9.528497   1.000000
   17        9.752025   1.000000
   18        9.885889   1.000000
   19       10.105704   1.000000
   20       10.699116   1.000000
   21       11.659882   1.000000
   22       11.663492   1.000000
   23       18.140236   0.000000
   24       19.061147   0.000000
   25       19.217736   0.000000
   26       20.244006   0.000000
   27       21.810283   0.000000
 
  0.4666667E+00  0.6666667E-01  0.0000000E+00  0.5925926E-03
    1        3.734640   1.000000
    2        4.186840   1.000000
    3        5.503809   1.000000
    4        5.513491   1.000000
    5        5.639721   1.000000
    6        5.930487   1.000000
    7        6.374147   1.000000
    8        6.399347   1.000000
    9        6.900402   1.000000
   10        6.958665   1.000000
   11        8.113285   1.000000
   12        8.175811   1.000000
   13        8.875370   1.000000
   14        9.005442   1.000000
   15        9.276965   1.000000
   16        9.292796   1.000000
   17        9.299008   1.000000
   18        9.415604   1.000000
   19       10.289964   1.000000
   20       10.487678   1.000000
   21       11.661254   1.000000
   22       11.662508   1.000000
   23       18.586111   0.000000
   24       18.844183   0.000000
   25       20.173258   0.000000
   26       20.609467   0.000000
   27       21.066363   0.000000
 
 -0.4666667E+00  0.6666667E-01  0.0000000E+00  0.5925926E-03
    1        3.734640   1.000000
    2        4.186840   1.000000
    3        5.503809   1.000000
    4        5.513491   1.000000
    5        5.639721   1.000000
    6        5.930487   1.000000
    7        6.374147   1.000000
    8        6.399347   1.000000
    9        6.900402   1.000000
   10        6.958665   1.000000
   11        8.113285   1.000000
   12        8.175811   1.000000
   13        8.875370   1.000000
   14        9.005442   1.000000
   15        9.276965   1.000000
   16        9.292796   1.000000
   17        9.299008   1.000000
   18        9.415604   1.000000
   19       10.289964   1.000000
   20       10.487678   1.000000
   21       11.661254   1.000000
   22       11.662508   1.000000
   23       18.586112   0.000000
   24       18.844182   0.000000
   25       20.173258   0.000000
   26       20.609472   0.000000
   27       21.066574   0.000000
 
 -0.4000000E+00  0.6666667E-01 -0.1654361E-23  0.5925926E-03
    1        3.183595   1.000000
    2        4.446603   1.000000
    3        5.309479   1.000000
    4        5.338102   1.000000
    5        5.367777   1.000000
    6        5.907247   1.000000
    7        5.920726   1.000000
    8        6.228884   1.000000
    9        7.502595   1.000000
   10        7.580622   1.000000
   11        8.177517   1.000000
   12        8.492570   1.000000
   13        8.505445   1.000000
   14        8.713499   1.000000
   15        9.486663   1.000000
   16        9.528497   1.000000
   17        9.752025   1.000000
   18        9.885889   1.000000
   19       10.105704   1.000000
   20       10.699116   1.000000
   21       11.659882   1.000000
   22       11.663492   1.000000
   23       18.140236   0.000000
   24       19.061147   0.000000
   25       19.217736   0.000000
   26       20.244006   0.000000
   27       21.808675   0.000000
 
 -0.3333333E+00  0.6666667E-01 -0.3308722E-23  0.5925926E-03
    1        2.627289   1.000000
    2        4.503291   1.000000
    3        5.019082   1.000000
    4        5.056365   1.000000
    5        5.123825   1.000000
    6        5.485704   1.000000
    7        5.524717   1.000000
    8        6.521553   1.000000
    9        8.089341   1.000000
   10        8.158806   1.000000
   11        8.173179   1.000000
   12        8.258901   1.000000
   13        8.723598   1.000000
   14        9.092828   1.000000
   15        9.840924   1.000000
   16        9.898599   1.000000
   17        9.939301   1.000000
   18       10.218216   1.000000
   19       10.386916   1.000000
   20       10.950509   1.000000
   21       11.658631   1.000000
   22       11.664130   1.000000
   23       17.438850   0.000000
   24       18.225315   0.000000
   25       19.320308   0.000000
   26       20.186163   0.000000
   27       22.369848   0.000000
 
 -0.2666667E+00  0.6666667E-01  0.0000000E+00  0.5925926E-03
    1        2.125505   1.000000
    2        4.431631   1.000000
    3        4.720324   1.000000
    4        4.749864   1.000000
    5        4.915221   1.000000
    6        5.137389   1.000000
    7        5.181072   1.000000
    8        6.793299   1.000000
    9        7.872637   1.000000
   10        7.879968   1.000000
   11        8.902079   1.000000
   12        8.943889   1.000000
   13        8.984037   1.000000
   14        9.791576   1.000000
   15        9.795712   1.000000
   16       10.241826   1.000000
   17       10.308369   1.000000
   18       10.675360   1.000000
   19       10.801324   1.000000
   20       11.390243   1.000000
   21       11.658095   1.000000
   22       11.664484   1.000000
   23       16.573330   0.000000
   24       17.221603   0.000000
   25       19.652272   0.000000
   26       20.365426   0.000000
   27       22.828864   0.000000
 
 -0.2000000E+00  0.6666667E-01  0.0000000E+00  0.5925926E-03
    1        1.712102   1.000000
    2        4.312842   1.000000
    3        4.460242   1.000000
    4        4.473012   1.000000
    5        4.747534   1.000000
    6        4.864417   1.000000
    7        4.900118   1.000000
    8        7.027723   1.000000
    9        7.660224   1.000000
   10        7.674573   1.000000
   11        9.182577   1.000000
   12        9.675910   1.000000
   13        9.679602   1.000000
   14        9.738781   1.000000
   15       10.415995   1.000000
   16       10.613889   1.000000
   17       10.686941   1.000000
   18       11.031850   1.000000
   19       11.093805   1.000000
   20       11.659473   1.000000
   21       11.664619   1.000000
   22       12.151809   1.000000
   23       15.641781   0.000000
   24       16.235695   0.000000
   25       20.052598   0.000000
   26       20.689607   0.000000
   27       23.184720   0.000000
 
 -0.1333333E+00  0.6666667E-01 -0.1654361E-23  0.5925926E-03
    1        1.406410   1.000000
    2        4.200008   1.000000
    3        4.257929   1.000000
    4        4.261702   1.000000
    5        4.624954   1.000000
    6        4.668385   1.000000
    7        4.693295   1.000000
    8        7.207740   1.000000
    9        7.503359   1.000000
   10        7.526459   1.000000
   11        9.377518   1.000000
   12        9.595466   1.000000
   13       10.466752   1.000000
   14       10.484804   1.000000
   15       10.860507   1.000000
   16       10.907132   1.000000
   17       10.991499   1.000000
   18       11.181979   1.000000
   19       11.436716   1.000000
   20       11.664602   1.000000
   21       11.666398   1.000000
   22       13.067153   1.000000
   23       14.711473   0.000000
   24       15.311967   0.000000
   25       20.477085   0.000000
   26       21.074660   0.000000
   27       22.506406   0.000000
 
 -0.6666667E-01  0.6666667E-01 -0.8271806E-24  0.5925926E-03
    1        1.219309   1.000000
    2        4.122721   1.000000
    3        4.122721   1.000000
    4        4.137685   1.000000
    5        4.550320   1.000000
    6        4.550320   1.000000
    7        4.567456   1.000000
    8        7.313307   1.000000
    9        7.417352   1.000000
   10        7.435892   1.000000
   11        9.492811   1.000000
   12        9.554680   1.000000
   13       11.092401   1.000000
   14       11.094750   1.000000
   15       11.094750   1.000000
   16       11.112954   1.000000
   17       11.304365   1.000000
   18       11.304365   1.000000
   19       11.664561   1.000000
   20       11.664562   1.000000
   21       11.694158   1.000000
   22       13.872627   0.000000
   23       13.872629   0.000000
   24       14.550996   0.000000
   25       20.828578   0.000000
   26       21.408808   0.000000
   27       21.408810   0.000000
 
  0.1058621E-25  0.1333333E+00 -0.1654361E-23  0.5925926E-03
    1        1.345021   1.000000
    2        4.153275   1.000000
    3        4.230000   1.000000
    4        4.230000   1.000000
    5        4.586454   1.000000
    6        4.644271   1.000000
    7        4.644271   1.000000
    8        7.214496   1.000000
    9        7.501715   1.000000
   10        7.501717   1.000000
   11        9.375689   1.000000
   12        9.615699   1.000000
   13       10.619482   1.000000
   14       10.619482   1.000000
   15       10.961774   1.000000
   16       10.961774   1.000000
   17       11.140364   1.000000
   18       11.437015   1.000000
   19       11.437016   1.000000
   20       11.745220   1.000000
   21       11.745221   1.000000
   22       12.567843   1.000000
   23       15.062072   0.000000
   24       15.062074   0.000000
   25       20.656064   0.000000
   26       20.656065   0.000000
   27       22.697458   0.000000
 
  0.6666667E-01  0.1333333E+00 -0.4135903E-24  0.5925926E-03
    1        1.406410   1.000000
    2        4.200008   1.000000
    3        4.257929   1.000000
    4        4.261702   1.000000
    5        4.624954   1.000000
    6        4.668385   1.000000
    7        4.693295   1.000000
    8        7.207741   1.000000
    9        7.503358   1.000000
   10        7.526459   1.000000
   11        9.377519   1.000000
   12        9.595465   1.000000
   13       10.466752   1.000000
   14       10.484804   1.000000
   15       10.860507   1.000000
   16       10.907133   1.000000
   17       10.991499   1.000000
   18       11.181979   1.000000
   19       11.436716   1.000000
   20       11.664601   1.000000
   21       11.666397   1.000000
   22       13.067154   1.000000
   23       14.711471   0.000000
   24       15.311968   0.000000
   25       20.477085   0.000000
   26       21.074658   0.000000
   27       22.506412   0.000000
 
  0.1333333E+00  0.1333333E+00 -0.1240771E-23  0.5925926E-03
    1        1.588878   1.000000
    2        4.337433   1.000000
    3        4.337433   1.000000
    4        4.357909   1.000000
    5        4.740241   1.000000
    6        4.740241   1.000000
    7        4.836241   1.000000
    8        7.150319   1.000000
    9        7.548087   1.000000
   10        7.599306   1.000000
   11        9.333358   1.000000
   12        9.588498   1.000000
   13       10.084771   1.000000
   14       10.112593   1.000000
   15       10.112593   1.000000
   16       10.745339   1.000000
   17       10.984044   1.000000
   18       10.984045   1.000000
   19       11.435793   1.000000
   20       11.435794   1.000000
   21       11.545007   1.000000
   22       13.905251   0.000000
   23       13.905251   0.000000
   24       15.941383   0.000000
   25       20.038728   0.000000
   26       22.076268   0.000000
   27       22.076269   0.000000
 
  0.2000000E+00  0.1333333E+00 -0.6203855E-24  0.5925926E-03
    1        1.886825   1.000000
    2        4.453844   1.000000
    3        4.519933   1.000000
    4        4.556524   1.000000
    5        4.858181   1.000000
    6        4.931493   1.000000
    7        5.061205   1.000000
    8        7.007342   1.000000
    9        7.678600   1.000000
   10        7.714739   1.000000
   11        9.185226   1.000000
   12        9.332587   1.000000
   13        9.501788   1.000000
   14        9.631858   1.000000
   15        9.666922   1.000000
   16       10.485377   1.000000
   17       10.709163   1.000000
   18       10.884602   1.000000
   19       11.091690   1.000000
   20       11.434277   1.000000
   21       11.474046   1.000000
   22       12.990675   1.000000
   23       14.778655   0.000000
   24       16.771060   0.000000
   25       19.513893   0.000000
   26       21.609065   0.000000
   27       22.896861   0.000000
 
  0.2666667E+00  0.1333333E+00  0.2067952E-24  0.5925926E-03
    1        2.289857   1.000000
    2        4.577110   1.000000
    3        4.745953   1.000000
    4        4.839740   1.000000
    5        5.019294   1.000000
    6        5.197500   1.000000
    7        5.349505   1.000000
    8        6.798002   1.000000
    9        7.855131   1.000000
   10        7.886451   1.000000
   11        8.587196   1.000000
   12        8.846444   1.000000
   13        8.990191   1.000000
   14        9.071059   1.000000
   15        9.806700   1.000000
   16       10.150241   1.000000
   17       10.358292   1.000000
   18       10.672167   1.000000
   19       10.680350   1.000000
   20       11.432166   1.000000
   21       11.441251   1.000000
   22       12.165146   1.000000
   23       15.620263   0.000000
   24       17.695939   0.000000
   25       19.016499   0.000000
   26       21.228167   0.000000
   27       22.599736   0.000000
 
  0.3333333E+00  0.1333333E+00 -0.2584939E-23  0.5925926E-03
    1        2.779709   1.000000
    2        4.651879   1.000000
    3        5.026738   1.000000
    4        5.155601   1.000000
    5        5.219416   1.000000
    6        5.536225   1.000000
    7        5.673944   1.000000
    8        6.546446   1.000000
    9        7.896080   1.000000
   10        7.965010   1.000000
   11        8.159596   1.000000
   12        8.184545   1.000000
   13        8.507827   1.000000
   14        8.847191   1.000000
   15        9.785724   1.000000
   16        9.968759   1.000000
   17        9.988347   1.000000
   18       10.214211   1.000000
   19       10.360866   1.000000
   20       11.427229   1.000000
   21       11.429555   1.000000
   22       11.523987   1.000000
   23       16.381459   0.000000
   24       18.590261   0.000000
   25       18.660080   0.000000
   26       21.006678   0.000000
   27       22.258005   0.000000
 
  0.4000000E+00  0.1333333E+00 -0.1033976E-23  0.5925926E-03
    1        3.324711   1.000000
    2        4.592652   1.000000
    3        5.333531   1.000000
    4        5.448408   1.000000
    5        5.452953   1.000000
    6        5.945036   1.000000
    7        6.002352   1.000000
    8        6.271603   1.000000
    9        7.274745   1.000000
   10        7.548932   1.000000
   11        7.947410   1.000000
   12        8.063314   1.000000
   13        8.490416   1.000000
   14        8.897704   1.000000
   15        9.467600   1.000000
   16        9.602561   1.000000
   17        9.747610   1.000000
   18        9.951333   1.000000
   19       10.203934   1.000000
   20       11.069606   1.000000
   21       11.422340   1.000000
   22       11.426642   1.000000
   23       17.017756   0.000000
   24       18.229027   0.000000
   25       19.627253   0.000000
   26       20.985415   0.000000
   27       21.876142   0.000000
 
  0.4666667E+00  0.1333333E+00 -0.2067952E-23  0.5925926E-03
    1        3.869602   1.000000
    2        4.325007   1.000000
    3        5.580906   1.000000
    4        5.625461   1.000000
    5        5.712580   1.000000
    6        5.989197   1.000000
    7        6.333998   1.000000
    8        6.420352   1.000000
    9        6.745426   1.000000
   10        6.957308   1.000000
   11        7.846327   1.000000
   12        7.849939   1.000000
   13        8.871715   1.000000
   14        9.154756   1.000000
   15        9.294667   1.000000
   16        9.296538   1.000000
   17        9.348251   1.000000
   18        9.526816   1.000000
   19       10.450179   1.000000
   20       10.731179   1.000000
   21       11.422010   1.000000
   22       11.423887   1.000000
   23       17.510397   0.000000
   24       17.891296   0.000000
   25       20.568001   0.000000
   26       21.164852   0.000000
   27       21.455536   0.000000
 
 -0.4666667E+00  0.1333333E+00 -0.1654361E-23  0.5925926E-03
    1        3.869602   1.000000
    2        4.325007   1.000000
    3        5.580906   1.000000
    4        5.625461   1.000000
    5        5.712580   1.000000