       N       E                     dE             d eps       ncg     rms          rms(c)
DAV:   1     0.299170302264E+03    0.29917E+03   -0.23310E+04 92124   0.157E+03
DAV:   2    -0.565965121576E+01   -0.30483E+03   -0.29820E+03102447   0.356E+02
DAV:   3    -0.109098206776E+02   -0.52502E+01   -0.52229E+01103239   0.502E+01
DAV:   4    -0.109352641296E+02   -0.25443E-01   -0.25440E-01105381   0.354E+00
DAV:   5    -0.109354719789E+02   -0.20785E-03   -0.20785E-03108009   0.333E-01    0.363E+01
RMM:   6    -0.100846103972E+02    0.85086E+00   -0.14779E+00 91152   0.847E+00    0.216E+01
RMM:   7    -0.994191690946E+01    0.14269E+00   -0.63644E-01 91152   0.545E+00    0.358E+00
RMM:   8    -0.991963958562E+01    0.22277E-01   -0.68184E-02 91152   0.184E+00    0.597E-01
RMM:   9    -0.991959811341E+01    0.41472E-04   -0.12898E-04 91152   0.798E-02    0.750E-02
RMM:  10    -0.991960068736E+01   -0.25740E-05   -0.17718E-05 91152   0.330E-02    0.519E-02
RMM:  11    -0.991960463946E+01   -0.39521E-05   -0.39179E-06 66033   0.143E-02    0.141E-03
RMM:  12    -0.991960466387E+01   -0.24412E-07   -0.48941E-08 30737   0.149E-03
   1 F= -.99196047E+01 E0= -.99177157E+01  d E =-.991960E+01
