<?xml version="1.0" encoding="ISO-8859-1"?>
<modeling>
 <generator>
  <i name="program" type="string">vasp </i>
  <i name="version" type="string">5.4.4.18Apr17-6-g9f103f2a35  </i>
  <i name="subversion" type="string">(build Jan 14 2019 14:48:31) complex            parallel </i>
  <i name="platform" type="string">LinuxIFC </i>
  <i name="date" type="string">2019 09 29 </i>
  <i name="time" type="string">20:40:11 </i>
 </generator>
 <incar>
  <i type="int" name="ISTART">     0</i>
  <i type="string" name="PREC">accurate</i>
  <i type="string" name="ALGO"> Fast</i>
  <i type="int" name="ICHARG">     2</i>
  <i type="int" name="NELMIN">     4</i>
  <i type="int" name="IBRION">     2</i>
  <i name="EDIFF">      0.00000100</i>
  <i name="EDIFFG">     -0.02000000</i>
  <i type="int" name="NSW">   100</i>
  <i type="int" name="ISIF">     2</i>
  <i type="int" name="ISYM">     0</i>
  <i name="ENCUT">    500.00000000</i>
  <i name="POTIM">      0.20000000</i>
  <i type="int" name="ISMEAR">     0</i>
  <i name="SIGMA">      0.10000000</i>
  <i type="logical" name="LWAVE"> F  </i>
  <i type="logical" name="LCHARG"> F  </i>
  <v type="int" name="KPOINT_BSE">    -1     0     0     0</v>
 </incar>
 <structure name="primitive_cell" >
  <crystal>
   <varray name="basis" >
    <v>       3.81164605      -0.00000003      -0.00000006 </v>
    <v>      -0.00000003       3.81164568       0.00000013 </v>
    <v>      -0.00000006       0.00000013       3.81164574 </v>
   </varray>
   <i name="volume">     55.37804469 </i>
   <varray name="rec_basis" >
    <v>       0.26235385       0.00000000       0.00000000 </v>
    <v>       0.00000000       0.26235387      -0.00000001 </v>
    <v>       0.00000000      -0.00000001       0.26235387 </v>
   </varray>
  </crystal>
  <varray name="positions" >
   <v>      -0.00000000       0.00000000       0.00000000 </v>
   <v>       0.00000000       0.50000000      -0.50000000 </v>
   <v>      -0.50000000      -0.00000000       0.50000000 </v>
   <v>       0.50000000      -0.50000000      -0.00000000 </v>
  </varray>
 </structure>
 <varray name="primitive_index" >
  <v type="int" >        1 </v>
  <v type="int" >        2 </v>
  <v type="int" >        3 </v>
  <v type="int" >        4 </v>
 </varray>
 <kpoints>
  <generation param="Gamma">
   <v type="int" name="divisions">      15       15       15 </v>
   <v name="usershift">      0.00000000       0.00000000       0.00000000 </v>
   <v name="genvec1">      0.06666667      -0.00000000      -0.00000000 </v>
   <v name="genvec2">      0.00000000       0.06666667      -0.00000000 </v>
   <v name="genvec3">      0.00000000       0.00000000       0.06666667 </v>
   <v name="shift">      0.00000000       0.00000000       0.00000000 </v>
  </generation>
  <varray name="kpointlist" >
   <v>       0.00000000       0.00000000       0.00000000 </v>
   <v>       0.06666667      -0.00000000       0.00000000 </v>
   <v>       0.13333333       0.00000000       0.00000000 </v>
   <v>       0.20000000      -0.00000000       0.00000000 </v>
   <v>       0.26666667      -0.00000000       0.00000000 </v>
   <v>       0.33333333       0.00000000       0.00000000 </v>
   <v>       0.40000000      -0.00000000       0.00000000 </v>
   <v>       0.46666667       0.00000000       0.00000000 </v>
   <v>      -0.00000000       0.06666667      -0.00000000 </v>
   <v>       0.06666667       0.06666667      -0.00000000 </v>
   <v>       0.13333333       0.06666667      -0.00000000 </v>
   <v>       0.20000000       0.06666667      -0.00000000 </v>
   <v>       0.26666667       0.06666667      -0.00000000 </v>
   <v>       0.33333333       0.06666667       0.00000000 </v>
   <v>       0.40000000       0.06666667       0.00000000 </v>
   <v>       0.46666667       0.06666667       0.00000000 </v>
   <v>      -0.46666667       0.06666667       0.00000000 </v>
   <v>      -0.40000000       0.06666667      -0.00000000 </v>
   <v>      -0.33333333       0.06666667      -0.00000000 </v>
   <v>      -0.26666667       0.06666667       0.00000000 </v>
   <v>      -0.20000000       0.06666667       0.00000000 </v>
   <v>      -0.13333333       0.06666667      -0.00000000 </v>
   <v>      -0.06666667       0.06666667      -0.00000000 </v>
   <v>       0.00000000       0.13333333      -0.00000000 </v>
   <v>       0.06666667       0.13333333      -0.00000000 </v>
   <v>       0.13333333       0.13333333      -0.00000000 </v>
   <v>       0.20000000       0.13333333      -0.00000000 </v>
   <v>       0.26666667       0.13333333       0.00000000 </v>
   <v>       0.33333333       0.13333333      -0.00000000 </v>
   <v>       0.40000000       0.13333333      -0.00000000 </v>
   <v>       0.46666667       0.13333333      -0.00000000 </v>
   <v>      -0.46666667       0.13333333      -0.00000000 </v>
   <v>      -0.40000000       0.13333333      -0.00000000 </v>
   <v>      -0.33333333       0.13333333      -0.00000000 </v>
   <v>      -0.26666667       0.13333333      -0.00000000 </v>
   <v>      -0.20000000       0.13333333      -0.00000000 </v>
   <v>      -0.13333333       0.13333333      -0.00000000 </v>
   <v>      -0.06666667       0.13333333      -0.00000000 </v>
   <v>      -0.00000000       0.20000000      -0.00000000 </v>
   <v>       0.06666667       0.20000000      -0.00000000 </v>
   <v>       0.13333333       0.20000000      -0.00000000 </v>
   <v>       0.20000000       0.20000000      -0.00000000 </v>
   <v>       0.26666667       0.20000000      -0.00000000 </v>
   <v>       0.33333333       0.20000000       0.00000000 </v>
   <v>       0.40000000       0.20000000      -0.00000000 </v>
   <v>       0.46666667       0.20000000      -0.00000000 </v>
   <v>      -0.46666667       0.20000000      -0.00000000 </v>
   <v>      -0.40000000       0.20000000      -0.00000000 </v>
   <v>      -0.33333333       0.20000000      -0.00000000 </v>
   <v>      -0.26666667       0.20000000      -0.00000000 </v>
   <v>      -0.20000000       0.20000000      -0.00000000 </v>
   <v>      -0.13333333       0.20000000      -0.00000000 </v>
   <v>      -0.06666667       0.20000000      -0.00000000 </v>
   <v>       0.00000000       0.26666667      -0.00000000 </v>
   <v>       0.06666667       0.26666667      -0.00000000 </v>
   <v>       0.13333333       0.26666667      -0.00000000 </v>
   <v>       0.20000000       0.26666667      -0.00000000 </v>
   <v>       0.26666667       0.26666667      -0.00000000 </v>
   <v>       0.33333333       0.26666667       0.00000000 </v>
   <v>       0.40000000       0.26666667      -0.00000000 </v>
   <v>       0.46666667       0.26666667      -0.00000000 </v>
   <v>      -0.46666667       0.26666667       0.00000000 </v>
   <v>      -0.40000000       0.26666667      -0.00000000 </v>
   <v>      -0.33333333       0.26666667      -0.00000000 </v>
   <v>      -0.26666667       0.26666667      -0.00000000 </v>
   <v>      -0.20000000       0.26666667      -0.00000000 </v>
   <v>      -0.13333333       0.26666667      -0.00000000 </v>
   <v>      -0.06666667       0.26666667       0.00000000 </v>
   <v>      -0.00000000       0.33333333      -0.00000000 </v>
   <v>       0.06666667       0.33333333      -0.00000000 </v>
   <v>       0.13333333       0.33333333       0.00000000 </v>
   <v>       0.20000000       0.33333333       0.00000000 </v>
   <v>       0.26666667       0.33333333      -0.00000000 </v>
   <v>       0.33333333       0.33333333      -0.00000000 </v>
   <v>       0.40000000       0.33333333      -0.00000000 </v>
   <v>       0.46666667       0.33333333      -0.00000000 </v>
   <v>      -0.46666667       0.33333333       0.00000000 </v>
   <v>      -0.40000000       0.33333333      -0.00000000 </v>
   <v>      -0.33333333       0.33333333      -0.00000000 </v>
   <v>      -0.26666667       0.33333333       0.00000000 </v>
   <v>      -0.20000000       0.33333333      -0.00000000 </v>
   <v>      -0.13333333       0.33333333      -0.00000000 </v>
   <v>      -0.06666667       0.33333333      -0.00000000 </v>
   <v>      -0.00000000       0.40000000      -0.00000000 </v>
   <v>       0.06666667       0.40000000      -0.00000000 </v>
   <v>       0.13333333       0.40000000      -0.00000000 </v>
   <v>       0.20000000       0.40000000      -0.00000000 </v>
   <v>       0.26666667       0.40000000      -0.00000000 </v>
   <v>       0.33333333       0.40000000       0.00000000 </v>
   <v>       0.40000000       0.40000000      -0.00000000 </v>
   <v>       0.46666667       0.40000000      -0.00000000 </v>
   <v>      -0.46666667       0.40000000      -0.00000000 </v>
   <v>      -0.40000000       0.40000000      -0.00000000 </v>
   <v>      -0.33333333       0.40000000      -0.00000000 </v>
   <v>      -0.26666667       0.40000000      -0.00000000 </v>
   <v>      -0.20000000       0.40000000      -0.00000000 </v>
   <v>      -0.13333333       0.40000000      -0.00000000 </v>
   <v>      -0.06666667       0.40000000      -0.00000000 </v>
   <v>      -0.00000000       0.46666667      -0.00000000 </v>
   <v>       0.06666667       0.46666667      -0.00000000 </v>
   <v>       0.13333333       0.46666667      -0.00000000 </v>
   <v>       0.20000000       0.46666667      -0.00000000 </v>
   <v>       0.26666667       0.46666667      -0.00000000 </v>
   <v>       0.33333333       0.46666667      -0.00000000 </v>
   <v>       0.40000000       0.46666667      -0.00000000 </v>
   <v>       0.46666667       0.46666667      -0.00000000 </v>
   <v>      -0.46666667       0.46666667      -0.00000000 </v>
   <v>      -0.40000000       0.46666667      -0.00000000 </v>
   <v>      -0.33333333       0.46666667      -0.00000000 </v>
   <v>      -0.26666667       0.46666667       0.00000000 </v>
   <v>      -0.20000000       0.46666667      -0.00000000 </v>
   <v>      -0.13333333       0.46666667       0.00000000 </v>
   <v>      -0.06666667       0.46666667      -0.00000000 </v>
   <v>      -0.00000000      -0.00000000       0.06666667 </v>
   <v>       0.06666667      -0.00000000       0.06666667 </v>
   <v>       0.13333333      -0.00000000       0.06666667 </v>
   <v>       0.20000000      -0.00000000       0.06666667 </v>
   <v>       0.26666667      -0.00000000       0.06666667 </v>
   <v>       0.33333333      -0.00000000       0.06666667 </v>
   <v>       0.40000000      -0.00000000       0.06666667 </v>
   <v>       0.46666667      -0.00000000       0.06666667 </v>
   <v>      -0.46666667       0.00000000       0.06666667 </v>
   <v>      -0.40000000      -0.00000000       0.06666667 </v>
   <v>      -0.33333333      -0.00000000       0.06666667 </v>
   <v>      -0.26666667      -0.00000000       0.06666667 </v>
   <v>      -0.20000000       0.00000000       0.06666667 </v>
   <v>      -0.13333333      -0.00000000       0.06666667 </v>
   <v>      -0.06666667       0.00000000       0.06666667 </v>
   <v>      -0.00000000       0.06666667       0.06666667 </v>
   <v>       0.06666667       0.06666667       0.06666667 </v>
   <v>       0.13333333       0.06666667       0.06666667 </v>
   <v>       0.20000000       0.06666667       0.06666667 </v>
   <v>       0.26666667       0.06666667       0.06666667 </v>
   <v>       0.33333333       0.06666667       0.06666667 </v>
   <v>       0.40000000       0.06666667       0.06666667 </v>
   <v>       0.46666667       0.06666667       0.06666667 </v>
   <v>      -0.46666667       0.06666667       0.06666667 </v>
   <v>      -0.40000000       0.06666667       0.06666667 </v>
   <v>      -0.33333333       0.06666667       0.06666667 </v>
   <v>      -0.26666667       0.06666667       0.06666667 </v>
   <v>      -0.20000000       0.06666667       0.06666667 </v>
   <v>      -0.13333333       0.06666667       0.06666667 </v>
   <v>      -0.06666667       0.06666667       0.06666667 </v>
   <v>       0.00000000       0.13333333       0.06666667 </v>
   <v>       0.06666667       0.13333333       0.06666667 </v>
   <v>       0.13333333       0.13333333       0.06666667 </v>
   <v>       0.20000000       0.13333333       0.06666667 </v>
   <v>       0.26666667       0.13333333       0.06666667 </v>
   <v>       0.33333333       0.13333333       0.06666667 </v>
   <v>       0.40000000       0.13333333       0.06666667 </v>
   <v>       0.46666667       0.13333333       0.06666667 </v>
   <v>      -0.46666667       0.13333333       0.06666667 </v>
   <v>      -0.40000000       0.13333333       0.06666667 </v>
   <v>      -0.33333333       0.13333333       0.06666667 </v>
   <v>      -0.26666667       0.13333333       0.06666667 </v>
   <v>      -0.20000000       0.13333333       0.06666667 </v>
   <v>      -0.13333333       0.13333333       0.06666667 </v>
   <v>      -0.06666667       0.13333333       0.06666667 </v>
   <v>      -0.00000000       0.20000000       0.06666667 </v>
   <v>       0.06666667       0.20000000       0.06666667 </v>
   <v>       0.13333333       0.20000000       0.06666667 </v>
   <v>       0.20000000       0.20000000       0.06666667 </v>
   <v>       0.26666667       0.20000000       0.06666667 </v>
   <v>       0.33333333       0.20000000       0.06666667 </v>
   <v>       0.40000000       0.20000000       0.06666667 </v>
   <v>       0.46666667       0.20000000       0.06666667 </v>
   <v>      -0.46666667       0.20000000       0.06666667 </v>
   <v>      -0.40000000       0.20000000       0.06666667 </v>
   <v>      -0.33333333       0.20000000       0.06666667 </v>
   <v>      -0.26666667       0.20000000       0.06666667 </v>
   <v>      -0.20000000       0.20000000       0.06666667 </v>
   <v>      -0.13333333       0.20000000       0.06666667 </v>
   <v>      -0.06666667       0.20000000       0.06666667 </v>
   <v>      -0.00000000       0.26666667       0.06666667 </v>
   <v>       0.06666667       0.26666667       0.06666667 </v>
   <v>       0.13333333       0.26666667       0.06666667 </v>
   <v>       0.20000000       0.26666667       0.06666667 </v>
   <v>       0.26666667       0.26666667       0.06666667 </v>
   <v>       0.33333333       0.26666667       0.06666667 </v>
   <v>       0.40000000       0.26666667       0.06666667 </v>
   <v>       0.46666667       0.26666667       0.06666667 </v>
   <v>      -0.46666667       0.26666667       0.06666667 </v>
   <v>      -0.40000000       0.26666667       0.06666667 </v>
   <v>      -0.33333333       0.26666667       0.06666667 </v>
   <v>      -0.26666667       0.26666667       0.06666667 </v>
   <v>      -0.20000000       0.26666667       0.06666667 </v>
   <v>      -0.13333333       0.26666667       0.06666667 </v>
   <v>      -0.06666667       0.26666667       0.06666667 </v>
   <v>      -0.00000000       0.33333333       0.06666667 </v>
   <v>       0.06666667       0.33333333       0.06666667 </v>
   <v>       0.13333333       0.33333333       0.06666667 </v>
   <v>       0.20000000       0.33333333       0.06666667 </v>
   <v>       0.26666667       0.33333333       0.06666667 </v>
   <v>       0.33333333       0.33333333       0.06666667 </v>
   <v>       0.40000000       0.33333333       0.06666667 </v>
   <v>       0.46666667       0.33333333       0.06666667 </v>
   <v>      -0.46666667       0.33333333       0.06666667 </v>
   <v>      -0.40000000       0.33333333       0.06666667 </v>
   <v>      -0.33333333       0.33333333       0.06666667 </v>
   <v>      -0.26666667       0.33333333       0.06666667 </v>
   <v>      -0.20000000       0.33333333       0.06666667 </v>
   <v>      -0.13333333       0.33333333       0.06666667 </v>
   <v>      -0.06666667       0.33333333       0.06666667 </v>
   <v>       0.00000000       0.40000000       0.06666667 </v>
   <v>       0.06666667       0.40000000       0.06666667 </v>
   <v>       0.13333333       0.40000000       0.06666667 </v>
   <v>       0.20000000       0.40000000       0.06666667 </v>
   <v>       0.26666667       0.40000000       0.06666667 </v>
   <v>       0.33333333       0.40000000       0.06666667 </v>
   <v>       0.40000000       0.40000000       0.06666667 </v>
   <v>       0.46666667       0.40000000       0.06666667 </v>
   <v>      -0.46666667       0.40000000       0.06666667 </v>
   <v>      -0.40000000       0.40000000       0.06666667 </v>
   <v>      -0.33333333       0.40000000       0.06666667 </v>
   <v>      -0.26666667       0.40000000       0.06666667 </v>
   <v>      -0.20000000       0.40000000       0.06666667 </v>
   <v>      -0.13333333       0.40000000       0.06666667 </v>
   <v>      -0.06666667       0.40000000       0.06666667 </v>
   <v>      -0.00000000       0.46666667       0.06666667 </v>
   <v>       0.06666667       0.46666667       0.06666667 </v>
   <v>       0.13333333       0.46666667       0.06666667 </v>
   <v>       0.20000000       0.46666667       0.06666667 </v>
   <v>       0.26666667       0.46666667       0.06666667 </v>
   <v>       0.33333333       0.46666667       0.06666667 </v>
   <v>       0.40000000       0.46666667       0.06666667 </v>
   <v>       0.46666667       0.46666667       0.06666667 </v>
   <v>      -0.46666667       0.46666667       0.06666667 </v>
   <v>      -0.40000000       0.46666667       0.06666667 </v>
   <v>      -0.33333333       0.46666667       0.06666667 </v>
   <v>      -0.26666667       0.46666667       0.06666667 </v>
   <v>      -0.20000000       0.46666667       0.06666667 </v>
   <v>      -0.13333333       0.46666667       0.06666667 </v>
   <v>      -0.06666667       0.46666667       0.06666667 </v>
   <v>       0.00000000      -0.46666667       0.06666667 </v>
   <v>       0.06666667      -0.46666667       0.06666667 </v>
   <v>       0.13333333      -0.46666667       0.06666667 </v>
   <v>       0.20000000      -0.46666667       0.06666667 </v>
   <v>       0.26666667      -0.46666667       0.06666667 </v>
   <v>       0.33333333      -0.46666667       0.06666667 </v>
   <v>       0.40000000      -0.46666667       0.06666667 </v>
   <v>       0.46666667      -0.46666667       0.06666667 </v>
   <v>      -0.46666667      -0.46666667       0.06666667 </v>
   <v>      -0.40000000      -0.46666667       0.06666667 </v>
   <v>      -0.33333333      -0.46666667       0.06666667 </v>
   <v>      -0.26666667      -0.46666667       0.06666667 </v>
   <v>      -0.20000000      -0.46666667       0.06666667 </v>
   <v>      -0.13333333      -0.46666667       0.06666667 </v>
   <v>      -0.06666667      -0.46666667       0.06666667 </v>
   <v>       0.00000000      -0.40000000       0.06666667 </v>
   <v>       0.06666667      -0.40000000       0.06666667 </v>
   <v>       0.13333333      -0.40000000       0.06666667 </v>
   <v>       0.20000000      -0.40000000       0.06666667 </v>
   <v>       0.26666667      -0.40000000       0.06666667 </v>
   <v>       0.33333333      -0.40000000       0.06666667 </v>
   <v>       0.40000000      -0.40000000       0.06666667 </v>
   <v>       0.46666667      -0.40000000       0.06666667 </v>
   <v>      -0.46666667      -0.40000000       0.06666667 </v>
   <v>      -0.40000000      -0.40000000       0.06666667 </v>
   <v>      -0.33333333      -0.40000000       0.06666667 </v>
   <v>      -0.26666667      -0.40000000       0.06666667 </v>
   <v>      -0.20000000      -0.40000000       0.06666667 </v>
   <v>      -0.13333333      -0.40000000       0.06666667 </v>
   <v>      -0.06666667      -0.40000000       0.06666667 </v>
   <v>       0.00000000      -0.33333333       0.06666667 </v>
   <v>       0.06666667      -0.33333333       0.06666667 </v>
   <v>       0.13333333      -0.33333333       0.06666667 </v>
   <v>       0.20000000      -0.33333333       0.06666667 </v>
   <v>       0.26666667      -0.33333333       0.06666667 </v>
   <v>       0.33333333      -0.33333333       0.06666667 </v>
   <v>       0.40000000      -0.33333333       0.06666667 </v>
   <v>       0.46666667      -0.33333333       0.06666667 </v>
   <v>      -0.46666667      -0.33333333       0.06666667 </v>
   <v>      -0.40000000      -0.33333333       0.06666667 </v>
   <v>      -0.33333333      -0.33333333       0.06666667 </v>
   <v>      -0.26666667      -0.33333333       0.06666667 </v>
   <v>      -0.20000000      -0.33333333       0.06666667 </v>
   <v>      -0.13333333      -0.33333333       0.06666667 </v>
   <v>      -0.06666667      -0.33333333       0.06666667 </v>
   <v>       0.00000000      -0.26666667       0.06666667 </v>
   <v>       0.06666667      -0.26666667       0.06666667 </v>
   <v>       0.13333333      -0.26666667       0.06666667 </v>
   <v>       0.20000000      -0.26666667       0.06666667 </v>
   <v>       0.26666667      -0.26666667       0.06666667 </v>
   <v>       0.33333333      -0.26666667       0.06666667 </v>
   <v>       0.40000000      -0.26666667       0.06666667 </v>
   <v>       0.46666667      -0.26666667       0.06666667 </v>
   <v>      -0.46666667      -0.26666667       0.06666667 </v>
   <v>      -0.40000000      -0.26666667       0.06666667 </v>
   <v>      -0.33333333      -0.26666667       0.06666667 </v>
   <v>      -0.26666667      -0.26666667       0.06666667 </v>
   <v>      -0.20000000      -0.26666667       0.06666667 </v>
   <v>      -0.13333333      -0.26666667       0.06666667 </v>
   <v>      -0.06666667      -0.26666667       0.06666667 </v>
   <v>       0.00000000      -0.20000000       0.06666667 </v>
   <v>       0.06666667      -0.20000000       0.06666667 </v>
   <v>       0.13333333      -0.20000000       0.06666667 </v>
   <v>       0.20000000      -0.20000000       0.06666667 </v>
   <v>       0.26666667      -0.20000000       0.06666667 </v>
   <v>       0.33333333      -0.20000000       0.06666667 </v>
   <v>       0.40000000      -0.20000000       0.06666667 </v>
   <v>       0.46666667      -0.20000000       0.06666667 </v>
   <v>      -0.46666667      -0.20000000       0.06666667 </v>
   <v>      -0.40000000      -0.20000000       0.06666667 </v>
   <v>      -0.33333333      -0.20000000       0.06666667 </v>
   <v>      -0.26666667      -0.20000000       0.06666667 </v>
   <v>      -0.20000000      -0.20000000       0.06666667 </v>
   <v>      -0.13333333      -0.20000000       0.06666667 </v>
   <v>      -0.06666667      -0.20000000       0.06666667 </v>
   <v>      -0.00000000      -0.13333333       0.06666667 </v>
   <v>       0.06666667      -0.13333333       0.06666667 </v>
   <v>       0.13333333      -0.13333333       0.06666667 </v>
   <v>       0.20000000      -0.13333333       0.06666667 </v>
   <v>       0.26666667      -0.13333333       0.06666667 </v>
   <v>       0.33333333      -0.13333333       0.06666667 </v>
   <v>       0.40000000      -0.13333333       0.06666667 </v>
   <v>       0.46666667      -0.13333333       0.06666667 </v>
   <v>      -0.46666667      -0.13333333       0.06666667 </v>
   <v>      -0.40000000      -0.13333333       0.06666667 </v>
   <v>      -0.33333333      -0.13333333       0.06666667 </v>
   <v>      -0.26666667      -0.13333333       0.06666667 </v>
   <v>      -0.20000000      -0.13333333       0.06666667 </v>
   <v>      -0.13333333      -0.13333333       0.06666667 </v>
   <v>      -0.06666667      -0.13333333       0.06666667 </v>
   <v>       0.00000000      -0.06666667       0.06666667 </v>
   <v>       0.06666667      -0.06666667       0.06666667 </v>
   <v>       0.13333333      -0.06666667       0.06666667 </v>
   <v>       0.20000000      -0.06666667       0.06666667 </v>
   <v>       0.26666667      -0.06666667       0.06666667 </v>
   <v>       0.33333333      -0.06666667       0.06666667 </v>
   <v>       0.40000000      -0.06666667       0.06666667 </v>
   <v>       0.46666667      -0.06666667       0.06666667 </v>
   <v>      -0.46666667      -0.06666667       0.06666667 </v>
   <v>      -0.40000000      -0.06666667       0.06666667 </v>
   <v>      -0.33333333      -0.06666667       0.06666667 </v>
   <v>      -0.26666667      -0.06666667       0.06666667 </v>
   <v>      -0.20000000      -0.06666667       0.06666667 </v>
   <v>      -0.13333333      -0.06666667       0.06666667 </v>
   <v>      -0.06666667      -0.06666667       0.06666667 </v>
   <v>       0.00000000      -0.00000000       0.13333333 </v>
   <v>       0.06666667      -0.00000000       0.13333333 </v>
   <v>       0.13333333      -0.00000000       0.13333333 </v>
   <v>       0.20000000      -0.00000000       0.13333333 </v>
   <v>       0.26666667       0.00000000       0.13333333 </v>
   <v>       0.33333333      -0.00000000       0.13333333 </v>
   <v>       0.40000000      -0.00000000       0.13333333 </v>
   <v>       0.46666667      -0.00000000       0.13333333 </v>
   <v>      -0.46666667       0.00000000       0.13333333 </v>
   <v>      -0.40000000      -0.00000000       0.13333333 </v>
   <v>      -0.33333333       0.00000000       0.13333333 </v>
   <v>      -0.26666667      -0.00000000       0.13333333 </v>
   <v>      -0.20000000      -0.00000000       0.13333333 </v>
   <v>      -0.13333333       0.00000000       0.13333333 </v>
   <v>      -0.06666667      -0.00000000       0.13333333 </v>
   <v>       0.00000000       0.06666667       0.13333333 </v>
   <v>       0.06666667       0.06666667       0.13333333 </v>
   <v>       0.13333333       0.06666667       0.13333333 </v>
   <v>       0.20000000       0.06666667       0.13333333 </v>
   <v>       0.26666667       0.06666667       0.13333333 </v>
   <v>       0.33333333       0.06666667       0.13333333 </v>
   <v>       0.40000000       0.06666667       0.13333333 </v>
   <v>       0.46666667       0.06666667       0.13333333 </v>
   <v>      -0.46666667       0.06666667       0.13333333 </v>
   <v>      -0.40000000       0.06666667       0.13333333 </v>
   <v>      -0.33333333       0.06666667       0.13333333 </v>
   <v>      -0.26666667       0.06666667       0.13333333 </v>
   <v>      -0.20000000       0.06666667       0.13333333 </v>
   <v>      -0.13333333       0.06666667       0.13333333 </v>
   <v>      -0.06666667       0.06666667       0.13333333 </v>
   <v>       0.00000000       0.13333333       0.13333333 </v>
   <v>       0.06666667       0.13333333       0.13333333 </v>
   <v>       0.13333333       0.13333333       0.13333333 </v>
   <v>       0.20000000       0.13333333       0.13333333 </v>
   <v>       0.26666667       0.13333333       0.13333333 </v>
   <v>       0.33333333       0.13333333       0.13333333 </v>
   <v>       0.40000000       0.13333333       0.13333333 </v>
   <v>       0.46666667       0.13333333       0.13333333 </v>
   <v>      -0.46666667       0.13333333       0.13333333 </v>
   <v>      -0.40000000       0.13333333       0.13333333 </v>
   <v>      -0.33333333       0.13333333       0.13333333 </v>
   <v>      -0.26666667       0.13333333       0.13333333 </v>
   <v>      -0.20000000       0.13333333       0.13333333 </v>
   <v>      -0.13333333       0.13333333       0.13333333 </v>
   <v>      -0.06666667       0.13333333       0.13333333 </v>
   <v>       0.00000000       0.20000000       0.13333333 </v>
   <v>       0.06666667       0.20000000       0.13333333 </v>
   <v>       0.13333333       0.20000000       0.13333333 </v>
   <v>       0.20000000       0.20000000       0.13333333 </v>
   <v>       0.26666667       0.20000000       0.13333333 </v>
   <v>       0.33333333       0.20000000       0.13333333 </v>
   <v>       0.40000000       0.20000000       0.13333333 </v>
   <v>       0.46666667       0.20000000       0.13333333 </v>
   <v>      -0.46666667       0.20000000       0.13333333 </v>
   <v>      -0.40000000       0.20000000       0.13333333 </v>
   <v>      -0.33333333       0.20000000       0.13333333 </v>
   <v>      -0.26666667       0.20000000       0.13333333 </v>
   <v>      -0.20000000       0.20000000       0.13333333 </v>
   <v>      -0.13333333       0.20000000       0.13333333 </v>
   <v>      -0.06666667       0.20000000       0.13333333 </v>
   <v>      -0.00000000       0.26666667       0.13333333 </v>
   <v>       0.06666667       0.26666667       0.13333333 </v>
   <v>       0.13333333       0.26666667       0.13333333 </v>
   <v>       0.20000000       0.26666667       0.13333333 </v>
   <v>       0.26666667       0.26666667       0.13333333 </v>
   <v>       0.33333333       0.26666667       0.13333333 </v>
   <v>       0.40000000       0.26666667       0.13333333 </v>
   <v>       0.46666667       0.26666667       0.13333333 </v>
   <v>      -0.46666667       0.26666667       0.13333333 </v>
   <v>      -0.40000000       0.26666667       0.13333333 </v>
   <v>      -0.33333333       0.26666667       0.13333333 </v>
   <v>      -0.26666667       0.26666667       0.13333333 </v>
   <v>      -0.20000000       0.26666667       0.13333333 </v>
   <v>      -0.13333333       0.26666667       0.13333333 </v>
   <v>      -0.06666667       0.26666667       0.13333333 </v>
   <v>      -0.00000000       0.33333333       0.13333333 </v>
   <v>       0.06666667       0.33333333       0.13333333 </v>
   <v>       0.13333333       0.33333333       0.13333333 </v>
   <v>       0.20000000       0.33333333       0.13333333 </v>
   <v>       0.26666667       0.33333333       0.13333333 </v>
   <v>       0.33333333       0.33333333       0.13333333 </v>
   <v>       0.40000000       0.33333333       0.13333333 </v>
   <v>       0.46666667       0.33333333       0.13333333 </v>
   <v>      -0.46666667       0.33333333       0.13333333 </v>
   <v>      -0.40000000       0.33333333       0.13333333 </v>
   <v>      -0.33333333       0.33333333       0.13333333 </v>
   <v>      -0.26666667       0.33333333       0.13333333 </v>
   <v>      -0.20000000       0.33333333       0.13333333 </v>
   <v>      -0.13333333       0.33333333       0.13333333 </v>
   <v>      -0.06666667       0.33333333       0.13333333 </v>
   <v>       0.00000000       0.40000000       0.13333333 </v>
   <v>       0.06666667       0.40000000       0.13333333 </v>
   <v>       0.13333333       0.40000000       0.13333333 </v>
   <v>       0.20000000       0.40000000       0.13333333 </v>
   <v>       0.26666667       0.40000000       0.13333333 </v>
   <v>       0.33333333       0.40000000       0.13333333 </v>
   <v>       0.40000000       0.40000000       0.13333333 </v>
   <v>       0.46666667       0.40000000       0.13333333 </v>
   <v>      -0.46666667       0.40000000       0.13333333 </v>
   <v>      -0.40000000       0.40000000       0.13333333 </v>
   <v>      -0.33333333       0.40000000       0.13333333 </v>
   <v>      -0.26666667       0.40000000       0.13333333 </v>
   <v>      -0.20000000       0.40000000       0.13333333 </v>
   <v>      -0.13333333       0.40000000       0.13333333 </v>
   <v>      -0.06666667       0.40000000       0.13333333 </v>
   <v>      -0.00000000       0.46666667       0.13333333 </v>
   <v>       0.06666667       0.46666667       0.13333333 </v>
   <v>       0.13333333       0.46666667       0.13333333 </v>
   <v>       0.20000000       0.46666667       0.13333333 </v>
   <v>       0.26666667       0.46666667       0.13333333 </v>
   <v>       0.33333333       0.46666667       0.13333333 </v>
   <v>       0.40000000       0.46666667       0.13333333 </v>
   <v>       0.46666667       0.46666667       0.13333333 </v>
   <v>      -0.46666667       0.46666667       0.13333333 </v>
   <v>      -0.40000000       0.46666667       0.13333333 </v>
   <v>      -0.33333333       0.46666667       0.13333333 </v>
   <v>      -0.26666667       0.46666667       0.13333333 </v>
   <v>      -0.20000000       0.46666667       0.13333333 </v>
   <v>      -0.13333333       0.46666667       0.13333333 </v>
   <v>      -0.06666667       0.46666667       0.13333333 </v>
   <v>      -0.00000000      -0.46666667       0.13333333 </v>
   <v>       0.06666667      -0.46666667       0.13333333 </v>
   <v>       0.13333333      -0.46666667       0.13333333 </v>
   <v>       0.20000000      -0.46666667       0.13333333 </v>
   <v>       0.26666667      -0.46666667       0.13333333 </v>
   <v>       0.33333333      -0.46666667       0.13333333 </v>
   <v>       0.40000000      -0.46666667       0.13333333 </v>
   <v>       0.46666667      -0.46666667       0.13333333 </v>
   <v>      -0.46666667      -0.46666667       0.13333333 </v>
   <v>      -0.40000000      -0.46666667       0.13333333 </v>
   <v>      -0.33333333      -0.46666667       0.13333333 </v>
   <v>      -0.26666667      -0.46666667       0.13333333 </v>
   <v>      -0.20000000      -0.46666667       0.13333333 </v>
   <v>      -0.13333333      -0.46666667       0.13333333 </v>
   <v>      -0.06666667      -0.46666667       0.13333333 </v>
   <v>       0.00000000      -0.40000000       0.13333333 </v>
   <v>       0.06666667      -0.40000000       0.13333333 </v>
   <v>       0.13333333      -0.40000000       0.13333333 </v>
   <v>       0.20000000      -0.40000000       0.13333333 </v>
   <v>       0.26666667      -0.40000000       0.13333333 </v>
   <v>       0.33333333      -0.40000000       0.13333333 </v>
   <v>       0.40000000      -0.40000000       0.13333333 </v>
   <v>       0.46666667      -0.40000000       0.13333333 </v>
   <v>      -0.46666667      -0.40000000       0.13333333 </v>
   <v>      -0.40000000      -0.40000000       0.13333333 </v>
   <v>      -0.33333333      -0.40000000       0.13333333 </v>
   <v>      -0.26666667      -0.40000000       0.13333333 </v>
   <v>      -0.20000000      -0.40000000       0.13333333 </v>
   <v>      -0.13333333      -0.40000000       0.13333333 </v>
   <v>      -0.06666667      -0.40000000       0.13333333 </v>
   <v>       0.00000000      -0.33333333       0.13333333 </v>
   <v>       0.06666667      -0.33333333       0.13333333 </v>
   <v>       0.13333333      -0.33333333       0.13333333 </v>
   <v>       0.20000000      -0.33333333       0.13333333 </v>
   <v>       0.26666667      -0.33333333       0.13333333 </v>
   <v>       0.33333333      -0.33333333       0.13333333 </v>
   <v>       0.40000000      -0.33333333       0.13333333 </v>
   <v>       0.46666667      -0.33333333       0.13333333 </v>
   <v>      -0.46666667      -0.33333333       0.13333333 </v>
   <v>      -0.40000000      -0.33333333       0.13333333 </v>
   <v>      -0.33333333      -0.33333333       0.13333333 </v>
   <v>      -0.26666667      -0.33333333       0.13333333 </v>
   <v>      -0.20000000      -0.33333333       0.13333333 </v>
   <v>      -0.13333333      -0.33333333       0.13333333 </v>
   <v>      -0.06666667      -0.33333333       0.13333333 </v>
   <v>       0.00000000      -0.26666667       0.13333333 </v>
   <v>       0.06666667      -0.26666667       0.13333333 </v>
   <v>       0.13333333      -0.26666667       0.13333333 </v>
   <v>       0.20000000      -0.26666667       0.13333333 </v>
   <v>       0.26666667      -0.26666667       0.13333333 </v>
   <v>       0.33333333      -0.26666667       0.13333333 </v>
   <v>       0.40000000      -0.26666667       0.13333333 </v>
   <v>       0.46666667      -0.26666667       0.13333333 </v>
   <v>      -0.46666667      -0.26666667       0.13333333 </v>
   <v>      -0.40000000      -0.26666667       0.13333333 </v>
   <v>      -0.33333333      -0.26666667       0.13333333 </v>
   <v>      -0.26666667      -0.26666667       0.13333333 </v>
   <v>      -0.20000000      -0.26666667       0.13333333 </v>
   <v>      -0.13333333      -0.26666667       0.13333333 </v>
   <v>      -0.06666667      -0.26666667       0.13333333 </v>
   <v>      -0.00000000      -0.20000000       0.13333333 </v>
   <v>       0.06666667      -0.20000000       0.13333333 </v>
   <v>       0.13333333      -0.20000000       0.13333333 </v>
   <v>       0.20000000      -0.20000000       0.13333333 </v>
   <v>       0.26666667      -0.20000000       0.13333333 </v>
   <v>       0.33333333      -0.20000000       0.13333333 </v>
   <v>       0.40000000      -0.20000000       0.13333333 </v>
   <v>       0.46666667      -0.20000000       0.13333333 </v>
   <v>      -0.46666667      -0.20000000       0.13333333 </v>
   <v>      -0.40000000      -0.20000000       0.13333333 </v>
   <v>      -0.33333333      -0.20000000       0.13333333 </v>
   <v>      -0.26666667      -0.20000000       0.13333333 </v>
   <v>      -0.20000000      -0.20000000       0.13333333 </v>
   <v>      -0.13333333      -0.20000000       0.13333333 </v>
   <v>      -0.06666667      -0.20000000       0.13333333 </v>
   <v>       0.00000000      -0.13333333       0.13333333 </v>
   <v>       0.06666667      -0.13333333       0.13333333 </v>
   <v>       0.13333333      -0.13333333       0.13333333 </v>
   <v>       0.20000000      -0.13333333       0.13333333 </v>
   <v>       0.26666667      -0.13333333       0.13333333 </v>
   <v>       0.33333333      -0.13333333       0.13333333 </v>
   <v>       0.40000000      -0.13333333       0.13333333 </v>
   <v>       0.46666667      -0.13333333       0.13333333 </v>
   <v>      -0.46666667      -0.13333333       0.13333333 </v>
   <v>      -0.40000000      -0.13333333       0.13333333 </v>
   <v>      -0.33333333      -0.13333333       0.13333333 </v>
   <v>      -0.26666667      -0.13333333       0.13333333 </v>
   <v>      -0.20000000      -0.13333333       0.13333333 </v>
   <v>      -0.13333333      -0.13333333       0.13333333 </v>
   <v>      -0.06666667      -0.13333333       0.13333333 </v>
   <v>       0.00000000      -0.06666667       0.13333333 </v>
   <v>       0.06666667      -0.06666667       0.13333333 </v>
   <v>       0.13333333      -0.06666667       0.13333333 </v>
   <v>       0.20000000      -0.06666667       0.13333333 </v>
   <v>       0.26666667      -0.06666667       0.13333333 </v>
   <v>       0.33333333      -0.06666667       0.13333333 </v>
   <v>       0.40000000      -0.06666667       0.13333333 </v>
   <v>       0.46666667      -0.06666667       0.13333333 </v>
   <v>      -0.46666667      -0.06666667       0.13333333 </v>
   <v>      -0.40000000      -0.06666667       0.13333333 </v>
   <v>      -0.33333333      -0.06666667       0.13333333 </v>
   <v>      -0.26666667      -0.06666667       0.13333333 </v>
   <v>      -0.20000000      -0.06666667       0.13333333 </v>
   <v>      -0.13333333      -0.06666667       0.13333333 </v>
   <v>      -0.06666667      -0.06666667       0.13333333 </v>
   <v>       0.00000000      -0.00000000       0.20000000 </v>
   <v>       0.06666667      -0.00000000       0.20000000 </v>
   <v>       0.13333333      -0.00000000       0.20000000 </v>
   <v>       0.20000000      -0.00000000       0.20000000 </v>
   <v>       0.26666667      -0.00000000       0.20000000 </v>
   <v>       0.33333333       0.00000000       0.20000000 </v>
   <v>       0.40000000      -0.00000000       0.20000000 </v>
   <v>       0.46666667      -0.00000000       0.20000000 </v>
   <v>      -0.46666667      -0.00000000       0.20000000 </v>
   <v>      -0.40000000      -0.00000000       0.20000000 </v>
   <v>      -0.33333333      -0.00000000       0.20000000 </v>
   <v>      -0.26666667      -0.00000000       0.20000000 </v>
   <v>      -0.20000000      -0.00000000       0.20000000 </v>
   <v>      -0.13333333      -0.00000000       0.20000000 </v>
   <v>      -0.06666667      -0.00000000       0.20000000 </v>
   <v>       0.00000000       0.06666667       0.20000000 </v>
   <v>       0.06666667       0.06666667       0.20000000 </v>
   <v>       0.13333333       0.06666667       0.20000000 </v>
   <v>       0.20000000       0.06666667       0.20000000 </v>
   <v>       0.26666667       0.06666667       0.20000000 </v>
   <v>       0.33333333       0.06666667       0.20000000 </v>
   <v>       0.40000000       0.06666667       0.20000000 </v>
   <v>       0.46666667       0.06666667       0.20000000 </v>
   <v>      -0.46666667       0.06666667       0.20000000 </v>
   <v>      -0.40000000       0.06666667       0.20000000 </v>
   <v>      -0.33333333       0.06666667       0.20000000 </v>
   <v>      -0.26666667       0.06666667       0.20000000 </v>
   <v>      -0.20000000       0.06666667       0.20000000 </v>
   <v>      -0.13333333       0.06666667       0.20000000 </v>
   <v>      -0.06666667       0.06666667       0.20000000 </v>
   <v>       0.00000000       0.13333333       0.20000000 </v>
   <v>       0.06666667       0.13333333       0.20000000 </v>
   <v>       0.13333333       0.13333333       0.20000000 </v>
   <v>       0.20000000       0.13333333       0.20000000 </v>
   <v>       0.26666667       0.13333333       0.20000000 </v>
   <v>       0.33333333       0.13333333       0.20000000 </v>
   <v>       0.40000000       0.13333333       0.20000000 </v>
   <v>       0.46666667       0.13333333       0.20000000 </v>
   <v>      -0.46666667       0.13333333       0.20000000 </v>
   <v>      -0.40000000       0.13333333       0.20000000 </v>
   <v>      -0.33333333       0.13333333       0.20000000 </v>
   <v>      -0.26666667       0.13333333       0.20000000 </v>
   <v>      -0.20000000       0.13333333       0.20000000 </v>
   <v>      -0.13333333       0.13333333       0.20000000 </v>
   <v>      -0.06666667       0.13333333       0.20000000 </v>
   <v>       0.00000000       0.20000000       0.20000000 </v>
   <v>       0.06666667       0.20000000       0.20000000 </v>
   <v>       0.13333333       0.20000000       0.20000000 </v>
   <v>       0.20000000       0.20000000       0.20000000 </v>
   <v>       0.26666667       0.20000000       0.20000000 </v>
   <v>       0.33333333       0.20000000       0.20000000 </v>
   <v>       0.40000000       0.20000000       0.20000000 </v>
   <v>       0.46666667       0.20000000       0.20000000 </v>
   <v>      -0.46666667       0.20000000       0.20000000 </v>
   <v>      -0.40000000       0.20000000       0.20000000 </v>
   <v>      -0.33333333       0.20000000       0.20000000 </v>
   <v>      -0.26666667       0.20000000       0.20000000 </v>
   <v>      -0.20000000       0.20000000       0.20000000 </v>
   <v>      -0.13333333       0.20000000       0.20000000 </v>
   <v>      -0.06666667       0.20000000       0.20000000 </v>
   <v>      -0.00000000       0.26666667       0.20000000 </v>
   <v>       0.06666667       0.26666667       0.20000000 </v>
   <v>       0.13333333       0.26666667       0.20000000 </v>
   <v>       0.20000000       0.26666667       0.20000000 </v>
   <v>       0.26666667       0.26666667       0.20000000 </v>
   <v>       0.33333333       0.26666667       0.20000000 </v>
   <v>       0.40000000       0.26666667       0.20000000 </v>
   <v>       0.46666667       0.26666667       0.20000000 </v>
   <v>      -0.46666667       0.26666667       0.20000000 </v>
   <v>      -0.40000000       0.26666667       0.20000000 </v>
   <v>      -0.33333333       0.26666667       0.20000000 </v>
   <v>      -0.26666667       0.26666667       0.20000000 </v>
   <v>      -0.20000000       0.26666667       0.20000000 </v>
   <v>      -0.13333333       0.26666667       0.20000000 </v>
   <v>      -0.06666667       0.26666667       0.20000000 </v>
   <v>       0.00000000       0.33333333       0.20000000 </v>
   <v>       0.06666667       0.33333333       0.20000000 </v>
   <v>       0.13333333       0.33333333       0.20000000 </v>
   <v>       0.20000000       0.33333333       0.20000000 </v>
   <v>       0.26666667       0.33333333       0.20000000 </v>
   <v>       0.33333333       0.33333333       0.20000000 </v>
   <v>       0.40000000       0.33333333       0.20000000 </v>
   <v>       0.46666667       0.33333333       0.20000000 </v>
   <v>      -0.46666667       0.33333333       0.20000000 </v>
   <v>      -0.40000000       0.33333333       0.20000000 </v>
   <v>      -0.33333333       0.33333333       0.20000000 </v>
   <v>      -0.26666667       0.33333333       0.20000000 </v>
   <v>      -0.20000000       0.33333333       0.20000000 </v>
   <v>      -0.13333333       0.33333333       0.20000000 </v>
   <v>      -0.06666667       0.33333333       0.20000000 </v>
   <v>      -0.00000000       0.40000000       0.20000000 </v>
   <v>       0.06666667       0.40000000       0.20000000 </v>
   <v>       0.13333333       0.40000000       0.20000000 </v>
   <v>       0.20000000       0.40000000       0.20000000 </v>
   <v>       0.26666667       0.40000000       0.20000000 </v>
   <v>       0.33333333       0.40000000       0.20000000 </v>
   <v>       0.40000000       0.40000000       0.20000000 </v>
   <v>       0.46666667       0.40000000       0.20000000 </v>
   <v>      -0.46666667       0.40000000       0.20000000 </v>
   <v>      -0.40000000       0.40000000       0.20000000 </v>
   <v>      -0.33333333       0.40000000       0.20000000 </v>
   <v>      -0.26666667       0.40000000       0.20000000 </v>
   <v>      -0.20000000       0.40000000       0.20000000 </v>
   <v>      -0.13333333       0.40000000       0.20000000 </v>
   <v>      -0.06666667       0.40000000       0.20000000 </v>
   <v>       0.00000000       0.46666667       0.20000000 </v>
   <v>       0.06666667       0.46666667       0.20000000 </v>
   <v>       0.13333333       0.46666667       0.20000000 </v>
   <v>       0.20000000       0.46666667       0.20000000 </v>
   <v>       0.26666667       0.46666667       0.20000000 </v>
   <v>       0.33333333       0.46666667       0.20000000 </v>
   <v>       0.40000000       0.46666667       0.20000000 </v>
   <v>       0.46666667       0.46666667       0.20000000 </v>
   <v>      -0.46666667       0.46666667       0.20000000 </v>
   <v>      -0.40000000       0.46666667       0.20000000 </v>
   <v>      -0.33333333       0.46666667       0.20000000 </v>
   <v>      -0.26666667       0.46666667       0.20000000 </v>
   <v>      -0.20000000       0.46666667       0.20000000 </v>
   <v>      -0.13333333       0.46666667       0.20000000 </v>
   <v>      -0.06666667       0.46666667       0.20000000 </v>
   <v>       0.00000000      -0.46666667       0.20000000 </v>
   <v>       0.06666667      -0.46666667       0.20000000 </v>
   <v>       0.13333333      -0.46666667       0.20000000 </v>
   <v>       0.20000000      -0.46666667       0.20000000 </v>
   <v>       0.26666667      -0.46666667       0.20000000 </v>
   <v>       0.33333333      -0.46666667       0.20000000 </v>
   <v>       0.40000000      -0.46666667       0.20000000 </v>
   <v>       0.46666667      -0.46666667       0.20000000 </v>
   <v>      -0.46666667      -0.46666667       0.20000000 </v>
   <v>      -0.40000000      -0.46666667       0.20000000 </v>
   <v>      -0.33333333      -0.46666667       0.20000000 </v>
   <v>      -0.26666667      -0.46666667       0.20000000 </v>
   <v>      -0.20000000      -0.46666667       0.20000000 </v>
   <v>      -0.13333333      -0.46666667       0.20000000 </v>
   <v>      -0.06666667      -0.46666667       0.20000000 </v>
   <v>       0.00000000      -0.40000000       0.20000000 </v>
   <v>       0.06666667      -0.40000000       0.20000000 </v>
   <v>       0.13333333      -0.40000000       0.20000000 </v>
   <v>       0.20000000      -0.40000000       0.20000000 </v>
   <v>       0.26666667      -0.40000000       0.20000000 </v>
   <v>       0.33333333      -0.40000000       0.20000000 </v>
   <v>       0.40000000      -0.40000000       0.20000000 </v>
   <v>       0.46666667      -0.40000000       0.20000000 </v>
   <v>      -0.46666667      -0.40000000       0.20000000 </v>
   <v>      -0.40000000      -0.40000000       0.20000000 </v>
   <v>      -0.33333333      -0.40000000       0.20000000 </v>
   <v>      -0.26666667      -0.40000000       0.20000000 </v>
   <v>      -0.20000000      -0.40000000       0.20000000 </v>
   <v>      -0.13333333      -0.40000000       0.20000000 </v>
   <v>      -0.06666667      -0.40000000       0.20000000 </v>
   <v>       0.00000000      -0.33333333       0.20000000 </v>
   <v>       0.06666667      -0.33333333       0.20000000 </v>
   <v>       0.13333333      -0.33333333       0.20000000 </v>
   <v>       0.20000000      -0.33333333       0.20000000 </v>
   <v>       0.26666667      -0.33333333       0.20000000 </v>
   <v>       0.33333333      -0.33333333       0.20000000 </v>
   <v>       0.40000000      -0.33333333       0.20000000 </v>
   <v>       0.46666667      -0.33333333       0.20000000 </v>
   <v>      -0.46666667      -0.33333333       0.20000000 </v>
   <v>      -0.40000000      -0.33333333       0.20000000 </v>
   <v>      -0.33333333      -0.33333333       0.20000000 </v>
   <v>      -0.26666667      -0.33333333       0.20000000 </v>
   <v>      -0.20000000      -0.33333333       0.20000000 </v>
   <v>      -0.13333333      -0.33333333       0.20000000 </v>
   <v>      -0.06666667      -0.33333333       0.20000000 </v>
   <v>       0.00000000      -0.26666667       0.20000000 </v>
   <v>       0.06666667      -0.26666667       0.20000000 </v>
   <v>       0.13333333      -0.26666667       0.20000000 </v>
   <v>       0.20000000      -0.26666667       0.20000000 </v>
   <v>       0.26666667      -0.26666667       0.20000000 </v>
   <v>       0.33333333      -0.26666667       0.20000000 </v>
   <v>       0.40000000      -0.26666667       0.20000000 </v>
   <v>       0.46666667      -0.26666667       0.20000000 </v>
   <v>      -0.46666667      -0.26666667       0.20000000 </v>
   <v>      -0.40000000      -0.26666667       0.20000000 </v>
   <v>      -0.33333333      -0.26666667       0.20000000 </v>
   <v>      -0.26666667      -0.26666667       0.20000000 </v>
   <v>      -0.20000000      -0.26666667       0.20000000 </v>
   <v>      -0.13333333      -0.26666667       0.20000000 </v>
   <v>      -0.06666667      -0.26666667       0.20000000 </v>
   <v>      -0.00000000      -0.20000000       0.20000000 </v>
   <v>       0.06666667      -0.20000000       0.20000000 </v>
   <v>       0.13333333      -0.20000000       0.20000000 </v>
   <v>       0.20000000      -0.20000000       0.20000000 </v>
   <v>       0.26666667      -0.20000000       0.20000000 </v>
   <v>       0.33333333      -0.20000000       0.20000000 </v>
   <v>       0.40000000      -0.20000000       0.20000000 </v>
   <v>       0.46666667      -0.20000000       0.20000000 </v>
   <v>      -0.46666667      -0.20000000       0.20000000 </v>
   <v>      -0.40000000      -0.20000000       0.20000000 </v>
   <v>      -0.33333333      -0.20000000       0.20000000 </v>
   <v>      -0.26666667      -0.20000000       0.20000000 </v>
   <v>      -0.20000000      -0.20000000       0.20000000 </v>
   <v>      -0.13333333      -0.20000000       0.20000000 </v>
   <v>      -0.06666667      -0.20000000       0.20000000 </v>
   <v>       0.00000000      -0.13333333       0.20000000 </v>
   <v>       0.06666667      -0.13333333       0.20000000 </v>
   <v>       0.13333333      -0.13333333       0.20000000 </v>
   <v>       0.20000000      -0.13333333       0.20000000 </v>
   <v>       0.26666667      -0.13333333       0.20000000 </v>
   <v>       0.33333333      -0.13333333       0.20000000 </v>
   <v>       0.40000000      -0.13333333       0.20000000 </v>
   <v>       0.46666667      -0.13333333       0.20000000 </v>
   <v>      -0.46666667      -0.13333333       0.20000000 </v>
   <v>      -0.40000000      -0.13333333       0.20000000 </v>
   <v>      -0.33333333      -0.13333333       0.20000000 </v>
   <v>      -0.26666667      -0.13333333       0.20000000 </v>
   <v>      -0.20000000      -0.13333333       0.20000000 </v>
   <v>      -0.13333333      -0.13333333       0.20000000 </v>
   <v>      -0.06666667      -0.13333333       0.20000000 </v>
   <v>       0.00000000      -0.06666667       0.20000000 </v>
   <v>       0.06666667      -0.06666667       0.20000000 </v>
   <v>       0.13333333      -0.06666667       0.20000000 </v>
   <v>       0.20000000      -0.06666667       0.20000000 </v>
   <v>       0.26666667      -0.06666667       0.20000000 </v>
   <v>       0.33333333      -0.06666667       0.20000000 </v>
   <v>       0.40000000      -0.06666667       0.20000000 </v>
   <v>       0.46666667      -0.06666667       0.20000000 </v>
   <v>      -0.46666667      -0.06666667       0.20000000 </v>
   <v>      -0.40000000      -0.06666667       0.20000000 </v>
   <v>      -0.33333333      -0.06666667       0.20000000 </v>
   <v>      -0.26666667      -0.06666667       0.20000000 </v>
   <v>      -0.20000000      -0.06666667       0.20000000 </v>
   <v>      -0.13333333      -0.06666667       0.20000000 </v>
   <v>      -0.06666667      -0.06666667       0.20000000 </v>
   <v>       0.00000000      -0.00000000       0.26666667 </v>
   <v>       0.06666667      -0.00000000       0.26666667 </v>
   <v>       0.13333333      -0.00000000       0.26666667 </v>
   <v>       0.20000000       0.00000000       0.26666667 </v>
   <v>       0.26666667      -0.00000000       0.26666667 </v>
   <v>       0.33333333       0.00000000       0.26666667 </v>
   <v>       0.40000000      -0.00000000       0.26666667 </v>
   <v>       0.46666667      -0.00000000       0.26666667 </v>
   <v>      -0.46666667      -0.00000000       0.26666667 </v>
   <v>      -0.40000000      -0.00000000       0.26666667 </v>
   <v>      -0.33333333      -0.00000000       0.26666667 </v>
   <v>      -0.26666667       0.00000000       0.26666667 </v>
   <v>      -0.20000000      -0.00000000       0.26666667 </v>
   <v>      -0.13333333      -0.00000000       0.26666667 </v>
   <v>      -0.06666667      -0.00000000       0.26666667 </v>
   <v>       0.00000000       0.06666667       0.26666667 </v>
   <v>       0.06666667       0.06666667       0.26666667 </v>
   <v>       0.13333333       0.06666667       0.26666667 </v>
   <v>       0.20000000       0.06666667       0.26666667 </v>
   <v>       0.26666667       0.06666667       0.26666667 </v>
   <v>       0.33333333       0.06666667       0.26666667 </v>
   <v>       0.40000000       0.06666667       0.26666667 </v>
   <v>       0.46666667       0.06666667       0.26666667 </v>
   <v>      -0.46666667       0.06666667       0.26666667 </v>
   <v>      -0.40000000       0.06666667       0.26666667 </v>
   <v>      -0.33333333       0.06666667       0.26666667 </v>
   <v>      -0.26666667       0.06666667       0.26666667 </v>
   <v>      -0.20000000       0.06666667       0.26666667 </v>
   <v>      -0.13333333       0.06666667       0.26666667 </v>
   <v>      -0.06666667       0.06666667       0.26666667 </v>
   <v>       0.00000000       0.13333333       0.26666667 </v>
   <v>       0.06666667       0.13333333       0.26666667 </v>
   <v>       0.13333333       0.13333333       0.26666667 </v>
   <v>       0.20000000       0.13333333       0.26666667 </v>
   <v>       0.26666667       0.13333333       0.26666667 </v>
   <v>       0.33333333       0.13333333       0.26666667 </v>
   <v>       0.40000000       0.13333333       0.26666667 </v>
   <v>       0.46666667       0.13333333       0.26666667 </v>
   <v>      -0.46666667       0.13333333       0.26666667 </v>
   <v>      -0.40000000       0.13333333       0.26666667 </v>
   <v>      -0.33333333       0.13333333       0.26666667 </v>
   <v>      -0.26666667       0.13333333       0.26666667 </v>
   <v>      -0.20000000       0.13333333       0.26666667 </v>
   <v>      -0.13333333       0.13333333       0.26666667 </v>
   <v>      -0.06666667       0.13333333       0.26666667 </v>
   <v>       0.00000000       0.20000000       0.26666667 </v>
   <v>       0.06666667       0.20000000       0.26666667 </v>
   <v>       0.13333333       0.20000000       0.26666667 </v>
   <v>       0.20000000       0.20000000       0.26666667 </v>
   <v>       0.26666667       0.20000000       0.26666667 </v>
   <v>       0.33333333       0.20000000       0.26666667 </v>
   <v>       0.40000000       0.20000000       0.26666667 </v>
   <v>       0.46666667       0.20000000       0.26666667 </v>
   <v>      -0.46666667       0.20000000       0.26666667 </v>
   <v>      -0.40000000       0.20000000       0.26666667 </v>
   <v>      -0.33333333       0.20000000       0.26666667 </v>
   <v>      -0.26666667       0.20000000       0.26666667 </v>
   <v>      -0.20000000       0.20000000       0.26666667 </v>
   <v>      -0.13333333       0.20000000       0.26666667 </v>
   <v>      -0.06666667       0.20000000       0.26666667 </v>
   <v>       0.00000000       0.26666667       0.26666667 </v>
   <v>       0.06666667       0.26666667       0.26666667 </v>
   <v>       0.13333333       0.26666667       0.26666667 </v>
   <v>       0.20000000       0.26666667       0.26666667 </v>
   <v>       0.26666667       0.26666667       0.26666667 </v>
   <v>       0.33333333       0.26666667       0.26666667 </v>
   <v>       0.40000000       0.26666667       0.26666667 </v>
   <v>       0.46666667       0.26666667       0.26666667 </v>
   <v>      -0.46666667       0.26666667       0.26666667 </v>
   <v>      -0.40000000       0.26666667       0.26666667 </v>
   <v>      -0.33333333       0.26666667       0.26666667 </v>
   <v>      -0.26666667       0.26666667       0.26666667 </v>
   <v>      -0.20000000       0.26666667       0.26666667 </v>
   <v>      -0.13333333       0.26666667       0.26666667 </v>
   <v>      -0.06666667       0.26666667       0.26666667 </v>
   <v>       0.00000000       0.33333333       0.26666667 </v>
   <v>       0.06666667       0.33333333       0.26666667 </v>
   <v>       0.13333333       0.33333333       0.26666667 </v>
   <v>       0.20000000       0.33333333       0.26666667 </v>
   <v>       0.26666667       0.33333333       0.26666667 </v>
   <v>       0.33333333       0.33333333       0.26666667 </v>
   <v>       0.40000000       0.33333333       0.26666667 </v>
   <v>       0.46666667       0.33333333       0.26666667 </v>
   <v>      -0.46666667       0.33333333       0.26666667 </v>
   <v>      -0.40000000       0.33333333       0.26666667 </v>
   <v>      -0.33333333       0.33333333       0.26666667 </v>
   <v>      -0.26666667       0.33333333       0.26666667 </v>
   <v>      -0.20000000       0.33333333       0.26666667 </v>
   <v>      -0.13333333       0.33333333       0.26666667 </v>
   <v>      -0.06666667       0.33333333       0.26666667 </v>
   <v>       0.00000000       0.40000000       0.26666667 </v>
   <v>       0.06666667       0.40000000       0.26666667 </v>
   <v>       0.13333333       0.40000000       0.26666667 </v>
   <v>       0.20000000       0.40000000       0.26666667 </v>
   <v>       0.26666667       0.40000000       0.26666667 </v>
   <v>       0.33333333       0.40000000       0.26666667 </v>
   <v>       0.40000000       0.40000000       0.26666667 </v>
   <v>       0.46666667       0.40000000       0.26666667 </v>
   <v>      -0.46666667       0.40000000       0.26666667 </v>
   <v>      -0.40000000       0.40000000       0.26666667 </v>
   <v>      -0.33333333       0.40000000       0.26666667 </v>
   <v>      -0.26666667       0.40000000       0.26666667 </v>
   <v>      -0.20000000       0.40000000       0.26666667 </v>
   <v>      -0.13333333       0.40000000       0.26666667 </v>
   <v>      -0.06666667       0.40000000       0.26666667 </v>
   <v>      -0.00000000       0.46666667       0.26666667 </v>
   <v>       0.06666667       0.46666667       0.26666667 </v>
   <v>       0.13333333       0.46666667       0.26666667 </v>
   <v>       0.20000000       0.46666667       0.26666667 </v>
   <v>       0.26666667       0.46666667       0.26666667 </v>
   <v>       0.33333333       0.46666667       0.26666667 </v>
   <v>       0.40000000       0.46666667       0.26666667 </v>
   <v>       0.46666667       0.46666667       0.26666667 </v>
   <v>      -0.46666667       0.46666667       0.26666667 </v>
   <v>      -0.40000000       0.46666667       0.26666667 </v>
   <v>      -0.33333333       0.46666667       0.26666667 </v>
   <v>      -0.26666667       0.46666667       0.26666667 </v>
   <v>      -0.20000000       0.46666667       0.26666667 </v>
   <v>      -0.13333333       0.46666667       0.26666667 </v>
   <v>      -0.06666667       0.46666667       0.26666667 </v>
   <v>       0.00000000      -0.46666667       0.26666667 </v>
   <v>       0.06666667      -0.46666667       0.26666667 </v>
   <v>       0.13333333      -0.46666667       0.26666667 </v>
   <v>       0.20000000      -0.46666667       0.26666667 </v>
   <v>       0.26666667      -0.46666667       0.26666667 </v>
   <v>       0.33333333      -0.46666667       0.26666667 </v>
   <v>       0.40000000      -0.46666667       0.26666667 </v>
   <v>       0.46666667      -0.46666667       0.26666667 </v>
   <v>      -0.46666667      -0.46666667       0.26666667 </v>
   <v>      -0.40000000      -0.46666667       0.26666667 </v>
   <v>      -0.33333333      -0.46666667       0.26666667 </v>
   <v>      -0.26666667      -0.46666667       0.26666667 </v>
   <v>      -0.20000000      -0.46666667       0.26666667 </v>
   <v>      -0.13333333      -0.46666667       0.26666667 </v>
   <v>      -0.06666667      -0.46666667       0.26666667 </v>
   <v>       0.00000000      -0.40000000       0.26666667 </v>
   <v>       0.06666667      -0.40000000       0.26666667 </v>
   <v>       0.13333333      -0.40000000       0.26666667 </v>
   <v>       0.20000000      -0.40000000       0.26666667 </v>
   <v>       0.26666667      -0.40000000       0.26666667 </v>
   <v>       0.33333333      -0.40000000       0.26666667 </v>
   <v>       0.40000000      -0.40000000       0.26666667 </v>
   <v>       0.46666667      -0.40000000       0.26666667 </v>
   <v>      -0.46666667      -0.40000000       0.26666667 </v>
   <v>      -0.40000000      -0.40000000       0.26666667 </v>
   <v>      -0.33333333      -0.40000000       0.26666667 </v>
   <v>      -0.26666667      -0.40000000       0.26666667 </v>
   <v>      -0.20000000      -0.40000000       0.26666667 </v>
   <v>      -0.13333333      -0.40000000       0.26666667 </v>
   <v>      -0.06666667      -0.40000000       0.26666667 </v>
   <v>       0.00000000      -0.33333333       0.26666667 </v>
   <v>       0.06666667      -0.33333333       0.26666667 </v>
   <v>       0.13333333      -0.33333333       0.26666667 </v>
   <v>       0.20000000      -0.33333333       0.26666667 </v>
   <v>       0.26666667      -0.33333333       0.26666667 </v>
   <v>       0.33333333      -0.33333333       0.26666667 </v>
   <v>       0.40000000      -0.33333333       0.26666667 </v>
   <v>       0.46666667      -0.33333333       0.26666667 </v>
   <v>      -0.46666667      -0.33333333       0.26666667 </v>
   <v>      -0.40000000      -0.33333333       0.26666667 </v>
   <v>      -0.33333333      -0.33333333       0.26666667 </v>
   <v>      -0.26666667      -0.33333333       0.26666667 </v>
   <v>      -0.20000000      -0.33333333       0.26666667 </v>
   <v>      -0.13333333      -0.33333333       0.26666667 </v>
   <v>      -0.06666667      -0.33333333       0.26666667 </v>
   <v>       0.00000000      -0.26666667       0.26666667 </v>
   <v>       0.06666667      -0.26666667       0.26666667 </v>
   <v>       0.13333333      -0.26666667       0.26666667 </v>
   <v>       0.20000000      -0.26666667       0.26666667 </v>
   <v>       0.26666667      -0.26666667       0.26666667 </v>
   <v>       0.33333333      -0.26666667       0.26666667 </v>
   <v>       0.40000000      -0.26666667       0.26666667 </v>
   <v>       0.46666667      -0.26666667       0.26666667 </v>
   <v>      -0.46666667      -0.26666667       0.26666667 </v>
   <v>      -0.40000000      -0.26666667       0.26666667 </v>
   <v>      -0.33333333      -0.26666667       0.26666667 </v>
   <v>      -0.26666667      -0.26666667       0.26666667 </v>
   <v>      -0.20000000      -0.26666667       0.26666667 </v>
   <v>      -0.13333333      -0.26666667       0.26666667 </v>
   <v>      -0.06666667      -0.26666667       0.26666667 </v>
   <v>       0.00000000      -0.20000000       0.26666667 </v>
   <v>       0.06666667      -0.20000000       0.26666667 </v>
   <v>       0.13333333      -0.20000000       0.26666667 </v>
   <v>       0.20000000      -0.20000000       0.26666667 </v>
   <v>       0.26666667      -0.20000000       0.26666667 </v>
   <v>       0.33333333      -0.20000000       0.26666667 </v>
   <v>       0.40000000      -0.20000000       0.26666667 </v>
   <v>       0.46666667      -0.20000000       0.26666667 </v>
   <v>      -0.46666667      -0.20000000       0.26666667 </v>
   <v>      -0.40000000      -0.20000000       0.26666667 </v>
   <v>      -0.33333333      -0.20000000       0.26666667 </v>
   <v>      -0.26666667      -0.20000000       0.26666667 </v>
   <v>      -0.20000000      -0.20000000       0.26666667 </v>
   <v>      -0.13333333      -0.20000000       0.26666667 </v>
   <v>      -0.06666667      -0.20000000       0.26666667 </v>
   <v>       0.00000000      -0.13333333       0.26666667 </v>
   <v>       0.06666667      -0.13333333       0.26666667 </v>
   <v>       0.13333333      -0.13333333       0.26666667 </v>
   <v>       0.20000000      -0.13333333       0.26666667 </v>
   <v>       0.26666667      -0.13333333       0.26666667 </v>
   <v>       0.33333333      -0.13333333       0.26666667 </v>
   <v>       0.40000000      -0.13333333       0.26666667 </v>
   <v>       0.46666667      -0.13333333       0.26666667 </v>
   <v>      -0.46666667      -0.13333333       0.26666667 </v>
   <v>      -0.40000000      -0.13333333       0.26666667 </v>
   <v>      -0.33333333      -0.13333333       0.26666667 </v>
   <v>      -0.26666667      -0.13333333       0.26666667 </v>
   <v>      -0.20000000      -0.13333333       0.26666667 </v>
   <v>      -0.13333333      -0.13333333       0.26666667 </v>
   <v>      -0.06666667      -0.13333333       0.26666667 </v>
   <v>       0.00000000      -0.06666667       0.26666667 </v>
   <v>       0.06666667      -0.06666667       0.26666667 </v>
   <v>       0.13333333      -0.06666667       0.26666667 </v>
   <v>       0.20000000      -0.06666667       0.26666667 </v>
   <v>       0.26666667      -0.06666667       0.26666667 </v>
   <v>       0.33333333      -0.06666667       0.26666667 </v>
   <v>       0.40000000      -0.06666667       0.26666667 </v>
   <v>       0.46666667      -0.06666667       0.26666667 </v>
   <v>      -0.46666667      -0.06666667       0.26666667 </v>
   <v>      -0.40000000      -0.06666667       0.26666667 </v>
   <v>      -0.33333333      -0.06666667       0.26666667 </v>
   <v>      -0.26666667      -0.06666667       0.26666667 </v>
   <v>      -0.20000000      -0.06666667       0.26666667 </v>
   <v>      -0.13333333      -0.06666667       0.26666667 </v>
   <v>      -0.06666667      -0.06666667       0.26666667 </v>
   <v>       0.00000000      -0.00000000       0.33333333 </v>
   <v>       0.06666667      -0.00000000       0.33333333 </v>
   <v>       0.13333333      -0.00000000       0.33333333 </v>
   <v>       0.20000000      -0.00000000       0.33333333 </v>
   <v>       0.26666667      -0.00000000       0.33333333 </v>
   <v>       0.33333333      -0.00000000       0.33333333 </v>
   <v>       0.40000000       0.00000000       0.33333333 </v>
   <v>       0.46666667      -0.00000000       0.33333333 </v>
   <v>      -0.46666667       0.00000000       0.33333333 </v>
   <v>      -0.40000000      -0.00000000       0.33333333 </v>
   <v>      -0.33333333      -0.00000000       0.33333333 </v>
   <v>      -0.26666667      -0.00000000       0.33333333 </v>
   <v>      -0.20000000      -0.00000000       0.33333333 </v>
   <v>      -0.13333333      -0.00000000       0.33333333 </v>
   <v>      -0.06666667      -0.00000000       0.33333333 </v>
   <v>       0.00000000       0.06666667       0.33333333 </v>
   <v>       0.06666667       0.06666667       0.33333333 </v>
   <v>       0.13333333       0.06666667       0.33333333 </v>
   <v>       0.20000000       0.06666667       0.33333333 </v>
   <v>       0.26666667       0.06666667       0.33333333 </v>
   <v>       0.33333333       0.06666667       0.33333333 </v>
   <v>       0.40000000       0.06666667       0.33333333 </v>
   <v>       0.46666667       0.06666667       0.33333333 </v>
   <v>      -0.46666667       0.06666667       0.33333333 </v>
   <v>      -0.40000000       0.06666667       0.33333333 </v>
   <v>      -0.33333333       0.06666667       0.33333333 </v>
   <v>      -0.26666667       0.06666667       0.33333333 </v>
   <v>      -0.20000000       0.06666667       0.33333333 </v>
   <v>      -0.13333333       0.06666667       0.33333333 </v>
   <v>      -0.06666667       0.06666667       0.33333333 </v>
   <v>       0.00000000       0.13333333       0.33333333 </v>
   <v>       0.06666667       0.13333333       0.33333333 </v>
   <v>       0.13333333       0.13333333       0.33333333 </v>
   <v>       0.20000000       0.13333333       0.33333333 </v>
   <v>       0.26666667       0.13333333       0.33333333 </v>
   <v>       0.33333333       0.13333333       0.33333333 </v>
   <v>       0.40000000       0.13333333       0.33333333 </v>
   <v>       0.46666667       0.13333333       0.33333333 </v>
   <v>      -0.46666667       0.13333333       0.33333333 </v>
   <v>      -0.40000000       0.13333333       0.33333333 </v>
   <v>      -0.33333333       0.13333333       0.33333333 </v>
   <v>      -0.26666667       0.13333333       0.33333333 </v>
   <v>      -0.20000000       0.13333333       0.33333333 </v>
   <v>      -0.13333333       0.13333333       0.33333333 </v>
   <v>      -0.06666667       0.13333333       0.33333333 </v>
   <v>       0.00000000       0.20000000       0.33333333 </v>
   <v>       0.06666667       0.20000000       0.33333333 </v>
   <v>       0.13333333       0.20000000       0.33333333 </v>
   <v>       0.20000000       0.20000000       0.33333333 </v>
   <v>       0.26666667       0.20000000       0.33333333 </v>
   <v>       0.33333333       0.20000000       0.33333333 </v>
   <v>       0.40000000       0.20000000       0.33333333 </v>
   <v>       0.46666667       0.20000000       0.33333333 </v>
   <v>      -0.46666667       0.20000000       0.33333333 </v>
   <v>      -0.40000000       0.20000000       0.33333333 </v>
   <v>      -0.33333333       0.20000000       0.33333333 </v>
   <v>      -0.26666667       0.20000000       0.33333333 </v>
   <v>      -0.20000000       0.20000000       0.33333333 </v>
   <v>      -0.13333333       0.20000000       0.33333333 </v>
   <v>      -0.06666667       0.20000000       0.33333333 </v>
   <v>       0.00000000       0.26666667       0.33333333 </v>
   <v>       0.06666667       0.26666667       0.33333333 </v>
   <v>       0.13333333       0.26666667       0.33333333 </v>
   <v>       0.20000000       0.26666667       0.33333333 </v>
   <v>       0.26666667       0.26666667       0.33333333 </v>
   <v>       0.33333333       0.26666667       0.33333333 </v>
   <v>       0.40000000       0.26666667       0.33333333 </v>
   <v>       0.46666667       0.26666667       0.33333333 </v>
   <v>      -0.46666667       0.26666667       0.33333333 </v>
   <v>      -0.40000000       0.26666667       0.33333333 </v>
   <v>      -0.33333333       0.26666667       0.33333333 </v>
   <v>      -0.26666667       0.26666667       0.33333333 </v>
   <v>      -0.20000000       0.26666667       0.33333333 </v>
   <v>      -0.13333333       0.26666667       0.33333333 </v>
   <v>      -0.06666667       0.26666667       0.33333333 </v>
   <v>       0.00000000       0.33333333       0.33333333 </v>
   <v>       0.06666667       0.33333333       0.33333333 </v>
   <v>       0.13333333       0.33333333       0.33333333 </v>
   <v>       0.20000000       0.33333333       0.33333333 </v>
   <v>       0.26666667       0.33333333       0.33333333 </v>
   <v>       0.33333333       0.33333333       0.33333333 </v>
   <v>       0.40000000       0.33333333       0.33333333 </v>
   <v>       0.46666667       0.33333333       0.33333333 </v>
   <v>      -0.46666667       0.33333333       0.33333333 </v>
   <v>      -0.40000000       0.33333333       0.33333333 </v>
   <v>      -0.33333333       0.33333333       0.33333333 </v>
   <v>      -0.26666667       0.33333333       0.33333333 </v>
   <v>      -0.20000000       0.33333333       0.33333333 </v>
   <v>      -0.13333333       0.33333333       0.33333333 </v>
   <v>      -0.06666667       0.33333333       0.33333333 </v>
   <v>       0.00000000       0.40000000       0.33333333 </v>
   <v>       0.06666667       0.40000000       0.33333333 </v>
   <v>       0.13333333       0.40000000       0.33333333 </v>
   <v>       0.20000000       0.40000000       0.33333333 </v>
   <v>       0.26666667       0.40000000       0.33333333 </v>
   <v>       0.33333333       0.40000000       0.33333333 </v>
   <v>       0.40000000       0.40000000       0.33333333 </v>
   <v>       0.46666667       0.40000000       0.33333333 </v>
   <v>      -0.46666667       0.40000000       0.33333333 </v>
   <v>      -0.40000000       0.40000000       0.33333333 </v>
   <v>      -0.33333333       0.40000000       0.33333333 </v>
   <v>      -0.26666667       0.40000000       0.33333333 </v>
   <v>      -0.20000000       0.40000000       0.33333333 </v>
   <v>      -0.13333333       0.40000000       0.33333333 </v>
   <v>      -0.06666667       0.40000000       0.33333333 </v>
   <v>      -0.00000000       0.46666667       0.33333333 </v>
   <v>       0.06666667       0.46666667       0.33333333 </v>
   <v>       0.13333333       0.46666667       0.33333333 </v>
   <v>       0.20000000       0.46666667       0.33333333 </v>
   <v>       0.26666667       0.46666667       0.33333333 </v>
   <v>       0.33333333       0.46666667       0.33333333 </v>
   <v>       0.40000000       0.46666667       0.33333333 </v>
   <v>       0.46666667       0.46666667       0.33333333 </v>
   <v>      -0.46666667       0.46666667       0.33333333 </v>
   <v>      -0.40000000       0.46666667       0.33333333 </v>
   <v>      -0.33333333       0.46666667       0.33333333 </v>
   <v>      -0.26666667       0.46666667       0.33333333 </v>
   <v>      -0.20000000       0.46666667       0.33333333 </v>
   <v>      -0.13333333       0.46666667       0.33333333 </v>
   <v>      -0.06666667       0.46666667       0.33333333 </v>
   <v>       0.00000000      -0.46666667       0.33333333 </v>
   <v>       0.06666667      -0.46666667       0.33333333 </v>
   <v>       0.13333333      -0.46666667       0.33333333 </v>
   <v>       0.20000000      -0.46666667       0.33333333 </v>
   <v>       0.26666667      -0.46666667       0.33333333 </v>
   <v>       0.33333333      -0.46666667       0.33333333 </v>
   <v>       0.40000000      -0.46666667       0.33333333 </v>
   <v>       0.46666667      -0.46666667       0.33333333 </v>
   <v>      -0.46666667      -0.46666667       0.33333333 </v>
   <v>      -0.40000000      -0.46666667       0.33333333 </v>
   <v>      -0.33333333      -0.46666667       0.33333333 </v>
   <v>      -0.26666667      -0.46666667       0.33333333 </v>
   <v>      -0.20000000      -0.46666667       0.33333333 </v>
   <v>      -0.13333333      -0.46666667       0.33333333 </v>
   <v>      -0.06666667      -0.46666667       0.33333333 </v>
   <v>       0.00000000      -0.40000000       0.33333333 </v>
   <v>       0.06666667      -0.40000000       0.33333333 </v>
   <v>       0.13333333      -0.40000000       0.33333333 </v>
   <v>       0.20000000      -0.40000000       0.33333333 </v>
   <v>       0.26666667      -0.40000000       0.33333333 </v>
   <v>       0.33333333      -0.40000000       0.33333333 </v>
   <v>       0.40000000      -0.40000000       0.33333333 </v>
   <v>       0.46666667      -0.40000000       0.33333333 </v>
   <v>      -0.46666667      -0.40000000       0.33333333 </v>
   <v>      -0.40000000      -0.40000000       0.33333333 </v>
   <v>      -0.33333333      -0.40000000       0.33333333 </v>
   <v>      -0.26666667      -0.40000000       0.33333333 </v>
   <v>      -0.20000000      -0.40000000       0.33333333 </v>
   <v>      -0.13333333      -0.40000000       0.33333333 </v>
   <v>      -0.06666667      -0.40000000       0.33333333 </v>
   <v>       0.00000000      -0.33333333       0.33333333 </v>
   <v>       0.06666667      -0.33333333       0.33333333 </v>
   <v>       0.13333333      -0.33333333       0.33333333 </v>
   <v>       0.20000000      -0.33333333       0.33333333 </v>
   <v>       0.26666667      -0.33333333       0.33333333 </v>
   <v>       0.33333333      -0.33333333       0.33333333 </v>
   <v>       0.40000000      -0.33333333       0.33333333 </v>
   <v>       0.46666667      -0.33333333       0.33333333 </v>
   <v>      -0.46666667      -0.33333333       0.33333333 </v>
   <v>      -0.40000000      -0.33333333       0.33333333 </v>
   <v>      -0.33333333      -0.33333333       0.33333333 </v>
   <v>      -0.26666667      -0.33333333       0.33333333 </v>
   <v>      -0.20000000      -0.33333333       0.33333333 </v>
   <v>      -0.13333333      -0.33333333       0.33333333 </v>
   <v>      -0.06666667      -0.33333333       0.33333333 </v>
   <v>      -0.00000000      -0.26666667       0.33333333 </v>
   <v>       0.06666667      -0.26666667       0.33333333 </v>
   <v>       0.13333333      -0.26666667       0.33333333 </v>
   <v>       0.20000000      -0.26666667       0.33333333 </v>
   <v>       0.26666667      -0.26666667       0.33333333 </v>
   <v>       0.33333333      -0.26666667       0.33333333 </v>
   <v>       0.40000000      -0.26666667       0.33333333 </v>
   <v>       0.46666667      -0.26666667       0.33333333 </v>
   <v>      -0.46666667      -0.26666667       0.33333333 </v>
   <v>      -0.40000000      -0.26666667       0.33333333 </v>
   <v>      -0.33333333      -0.26666667       0.33333333 </v>
   <v>      -0.26666667      -0.26666667       0.33333333 </v>
   <v>      -0.20000000      -0.26666667       0.33333333 </v>
   <v>      -0.13333333      -0.26666667       0.33333333 </v>
   <v>      -0.06666667      -0.26666667       0.33333333 </v>
   <v>      -0.00000000      -0.20000000       0.33333333 </v>
   <v>       0.06666667      -0.20000000       0.33333333 </v>
   <v>       0.13333333      -0.20000000       0.33333333 </v>
   <v>       0.20000000      -0.20000000       0.33333333 </v>
   <v>       0.26666667      -0.20000000       0.33333333 </v>
   <v>       0.33333333      -0.20000000       0.33333333 </v>
   <v>       0.40000000      -0.20000000       0.33333333 </v>
   <v>       0.46666667      -0.20000000       0.33333333 </v>
   <v>      -0.46666667      -0.20000000       0.33333333 </v>
   <v>      -0.40000000      -0.20000000       0.33333333 </v>
   <v>      -0.33333333      -0.20000000       0.33333333 </v>
   <v>      -0.26666667      -0.20000000       0.33333333 </v>
   <v>      -0.20000000      -0.20000000       0.33333333 </v>
   <v>      -0.13333333      -0.20000000       0.33333333 </v>
   <v>      -0.06666667      -0.20000000       0.33333333 </v>
   <v>      -0.00000000      -0.13333333       0.33333333 </v>
   <v>       0.06666667      -0.13333333       0.33333333 </v>
   <v>       0.13333333      -0.13333333       0.33333333 </v>
   <v>       0.20000000      -0.13333333       0.33333333 </v>
   <v>       0.26666667      -0.13333333       0.33333333 </v>
   <v>       0.33333333      -0.13333333       0.33333333 </v>
   <v>       0.40000000      -0.13333333       0.33333333 </v>
   <v>       0.46666667      -0.13333333       0.33333333 </v>
   <v>      -0.46666667      -0.13333333       0.33333333 </v>
   <v>      -0.40000000      -0.13333333       0.33333333 </v>
   <v>      -0.33333333      -0.13333333       0.33333333 </v>
   <v>      -0.26666667      -0.13333333       0.33333333 </v>
   <v>      -0.20000000      -0.13333333       0.33333333 </v>
   <v>      -0.13333333      -0.13333333       0.33333333 </v>
   <v>      -0.06666667      -0.13333333       0.33333333 </v>
   <v>       0.00000000      -0.06666667       0.33333333 </v>
   <v>       0.06666667      -0.06666667       0.33333333 </v>
[...]
       <r>    6.2916    1.0000 </r>
       <r>    6.8115    1.0000 </r>
       <r>    7.0911    1.0000 </r>
       <r>    7.2390    1.0000 </r>
       <r>    7.4261    1.0000 </r>
       <r>    8.5930    1.0000 </r>
       <r>    8.8912    1.0000 </r>
       <r>    9.1314    1.0000 </r>
       <r>    9.2200    1.0000 </r>
       <r>    9.3658    1.0000 </r>
       <r>    9.7597    1.0000 </r>
       <r>   10.7349    1.0000 </r>
       <r>   10.7494    1.0000 </r>
       <r>   11.1920    1.0000 </r>
       <r>   11.6639    1.0000 </r>
       <r>   15.5826    0.0000 </r>
       <r>   16.0760    0.0000 </r>
       <r>   20.3717    0.0000 </r>
       <r>   20.8044    0.0000 </r>
       <r>   23.3811    0.0000 </r>
      </set>
      <set comment="kpoint 1686">
       <r>    4.0876    1.0000 </r>
       <r>    4.5313    1.0000 </r>
       <r>    5.6971    1.0000 </r>
       <r>    5.8283    1.0000 </r>
       <r>    5.9049    1.0000 </r>
       <r>    6.1423    1.0000 </r>
       <r>    6.1825    1.0000 </r>
       <r>    6.2153    1.0000 </r>
       <r>    6.8162    1.0000 </r>
       <r>    7.0446    1.0000 </r>
       <r>    7.4959    1.0000 </r>
       <r>    7.5936    1.0000 </r>
       <r>    8.6490    1.0000 </r>
       <r>    8.9745    1.0000 </r>
       <r>    9.2447    1.0000 </r>
       <r>    9.3163    1.0000 </r>
       <r>    9.4352    1.0000 </r>
       <r>    9.8570    1.0000 </r>
       <r>   10.7499    1.0000 </r>
       <r>   11.0774    1.0000 </r>
       <r>   11.0793    1.0000 </r>
       <r>   11.1334    1.0000 </r>
       <r>   16.5577    0.0000 </r>
       <r>   17.0043    0.0000 </r>
       <r>   19.9164    0.0000 </r>
       <r>   20.3315    0.0000 </r>
       <r>   22.9469    0.0000 </r>
      </set>
      <set comment="kpoint 1687">
       <r>    3.8973    1.0000 </r>
       <r>    4.3472    1.0000 </r>
       <r>    5.6152    1.0000 </r>
       <r>    5.6515    1.0000 </r>
       <r>    5.7581    1.0000 </r>
       <r>    6.0270    1.0000 </r>
       <r>    6.2739    1.0000 </r>
       <r>    6.3024    1.0000 </r>
       <r>    6.8623    1.0000 </r>
       <r>    6.9858    1.0000 </r>
       <r>    7.7908    1.0000 </r>
       <r>    7.8066    1.0000 </r>
       <r>    8.7011    1.0000 </r>
       <r>    9.0498    1.0000 </r>
       <r>    9.2894    1.0000 </r>
       <r>    9.3259    1.0000 </r>
       <r>    9.3898    1.0000 </r>
       <r>    9.8545    1.0000 </r>
       <r>   10.4443    1.0000 </r>
       <r>   10.7155    1.0000 </r>
       <r>   11.3742    1.0000 </r>
       <r>   11.3756    1.0000 </r>
       <r>   17.6021    0.0000 </r>
       <r>   17.9495    0.0000 </r>
       <r>   19.6207    0.0000 </r>
       <r>   19.9708    0.0000 </r>
       <r>   22.4949    0.0000 </r>
      </set>
      <set comment="kpoint 1688">
       <r>    3.7762    1.0000 </r>
       <r>    4.2280    1.0000 </r>
       <r>    5.5412    1.0000 </r>
       <r>    5.5412    1.0000 </r>
       <r>    5.6694    1.0000 </r>
       <r>    5.9550    1.0000 </r>
       <r>    6.3592    1.0000 </r>
       <r>    6.3593    1.0000 </r>
       <r>    6.9277    1.0000 </r>
       <r>    6.9277    1.0000 </r>
       <r>    8.0159    1.0000 </r>
       <r>    8.0581    1.0000 </r>
       <r>    8.7744    1.0000 </r>
       <r>    9.1529    1.0000 </r>
       <r>    9.1913    1.0000 </r>
       <r>    9.2951    1.0000 </r>
       <r>    9.2951    1.0000 </r>
       <r>    9.6515    1.0000 </r>
       <r>   10.3159    1.0000 </r>
       <r>   10.5231    1.0000 </r>
       <r>   11.5851    1.0000 </r>
       <r>   11.5851    1.0000 </r>
       <r>   18.5171    0.0000 </r>
       <r>   18.5171    0.0000 </r>
       <r>   19.8882    0.0000 </r>
       <r>   19.8882    0.0000 </r>
       <r>   21.8101    0.0000 </r>
      </set>
     </set>
    </set>
   </array>
  </eigenvalues>
  <separator name="orbital magnetization" >
   <v name="MAGDIPOLOUT">      0.00000000      0.00000000      0.00000000</v>
  </separator>
  <dos>
   <i name="efermi">     13.49311849 </i>
   <total>
    <array>
     <dimension dim="1">gridpoints</dimension>
     <dimension dim="2">spin</dimension>
     <field>energy</field>
     <field>total</field>
     <field>integrated</field>
     <set>
      <set comment="spin 1">
       <r>    -0.0756     0.0000     0.0000 </r>
       <r>     0.0101     0.0000     0.0000 </r>
       <r>     0.0958     0.0000     0.0000 </r>
       <r>     0.1815     0.0000     0.0000 </r>
       <r>     0.2672     0.0000     0.0000 </r>
       <r>     0.3529     0.0000     0.0000 </r>
       <r>     0.4385     0.0000     0.0000 </r>
       <r>     0.5242     0.0000     0.0000 </r>
       <r>     0.6099     0.0000     0.0000 </r>
       <r>     0.6956     0.0000     0.0000 </r>
       <r>     0.7813     0.0000     0.0000 </r>
       <r>     0.8670     0.0000     0.0000 </r>
       <r>     0.9527     0.0002     0.0000 </r>
       <r>     1.0383     0.0037     0.0003 </r>
       <r>     1.1240     0.0223     0.0022 </r>
       <r>     1.2097     0.0597     0.0074 </r>
       <r>     1.2954     0.0856     0.0147 </r>
       <r>     1.3811     0.1172     0.0247 </r>
       <r>     1.4668     0.1581     0.0383 </r>
       <r>     1.5524     0.1367     0.0500 </r>
       <r>     1.6381     0.1598     0.0637 </r>
       <r>     1.7238     0.2187     0.0824 </r>
       <r>     1.8095     0.2137     0.1007 </r>
       <r>     1.8952     0.2235     0.1199 </r>
       <r>     1.9809     0.2400     0.1405 </r>
       <r>     2.0665     0.2036     0.1579 </r>
       <r>     2.1522     0.2852     0.1823 </r>
       <r>     2.2379     0.3350     0.2110 </r>
       <r>     2.3236     0.3405     0.2402 </r>
       <r>     2.4093     0.3054     0.2664 </r>
       <r>     2.4950     0.2296     0.2861 </r>
       <r>     2.5806     0.3433     0.3155 </r>
       <r>     2.6663     0.4605     0.3549 </r>
       <r>     2.7520     0.4356     0.3923 </r>
       <r>     2.8377     0.3929     0.4259 </r>
       <r>     2.9234     0.3890     0.4593 </r>
       <r>     3.0091     0.4535     0.4981 </r>
       <r>     3.0947     0.4931     0.5404 </r>
       <r>     3.1804     0.4973     0.5830 </r>
       <r>     3.2661     0.4796     0.6241 </r>
       <r>     3.3518     0.6186     0.6771 </r>
       <r>     3.4375     0.7427     0.7407 </r>
       <r>     3.5232     0.6362     0.7952 </r>
       <r>     3.6088     0.6084     0.8473 </r>
       <r>     3.6945     0.6663     0.9044 </r>
       <r>     3.7802     0.9600     0.9867 </r>
       <r>     3.8659     1.4146     1.1079 </r>
       <r>     3.9516     1.6963     1.2533 </r>
       <r>     4.0373     1.8536     1.4121 </r>
       <r>     4.1229     2.4228     1.6197 </r>
       <r>     4.2086     2.8695     1.8655 </r>
       <r>     4.2943     2.9449     2.1179 </r>
       <r>     4.3800     3.3020     2.4008 </r>
       <r>     4.4657     3.6034     2.7095 </r>
       <r>     4.5514     4.4790     3.0933 </r>
       <r>     4.6371     4.9256     3.5154 </r>
       <r>     4.7227     5.0331     3.9466 </r>
       <r>     4.8084     5.9438     4.4559 </r>
       <r>     4.8941     6.1846     4.9858 </r>
       <r>     4.9798     5.7283     5.4766 </r>
       <r>     5.0655     5.9296     5.9847 </r>
       <r>     5.1512     6.0124     6.4999 </r>
       <r>     5.2368     5.1672     6.9426 </r>
       <r>     5.3225     4.9863     7.3699 </r>
       <r>     5.4082     5.4320     7.8353 </r>
       <r>     5.4939     5.1721     8.2785 </r>
       <r>     5.5796     4.7472     8.6852 </r>
       <r>     5.6653     4.7938     9.0960 </r>
       <r>     5.7509     4.4858     9.4803 </r>
       <r>     5.8366     3.5132     9.7814 </r>
       <r>     5.9223     3.3934    10.0721 </r>
       <r>     6.0080     4.0146    10.4161 </r>
       <r>     6.0937     4.4236    10.7951 </r>
       <r>     6.1794     4.4938    11.1802 </r>
       <r>     6.2650     4.8740    11.5978 </r>
       <r>     6.3507     5.5213    12.0709 </r>
       <r>     6.4364     5.3981    12.5334 </r>
       <r>     6.5221     5.4284    12.9986 </r>
       <r>     6.6078     5.7273    13.4893 </r>
       <r>     6.6935     5.1677    13.9321 </r>
       <r>     6.7791     4.9476    14.3560 </r>
       <r>     6.8648     5.6363    14.8389 </r>
       <r>     6.9505     5.8168    15.3373 </r>
       <r>     7.0362     6.0394    15.8548 </r>
       <r>     7.1219     5.8715    16.3579 </r>
       <r>     7.2076     5.4950    16.8287 </r>
       <r>     7.2932     5.9225    17.3362 </r>
       <r>     7.3789     6.6630    17.9071 </r>
       <r>     7.4646     7.4640    18.5467 </r>
       <r>     7.5503     7.8937    19.2230 </r>
       <r>     7.6360     8.0494    19.9127 </r>
       <r>     7.7217     8.7141    20.6594 </r>
       <r>     7.8073     9.4748    21.4712 </r>
       <r>     7.8930     9.0777    22.2490 </r>
       <r>     7.9787     7.3958    22.8827 </r>
       <r>     8.0644     5.9196    23.3899 </r>
       <r>     8.1501     5.6695    23.8757 </r>
       <r>     8.2358     5.1655    24.3183 </r>
       <r>     8.3214     4.7150    24.7223 </r>
       <r>     8.4071     4.7560    25.1298 </r>
       <r>     8.4928     4.7356    25.5356 </r>
       <r>     8.5785     4.5448    25.9250 </r>
       <r>     8.6642     4.3080    26.2941 </r>
       <r>     8.7499     4.5460    26.6837 </r>
       <r>     8.8356     4.7618    27.0917 </r>
       <r>     8.9212     5.1676    27.5344 </r>
       <r>     9.0069     5.6109    28.0152 </r>
       <r>     9.0926     5.6249    28.4972 </r>
       <r>     9.1783     5.6627    28.9824 </r>
       <r>     9.2640     6.1036    29.5053 </r>
       <r>     9.3497     6.2887    30.0442 </r>
       <r>     9.4353     5.8672    30.5469 </r>
       <r>     9.5210     5.2186    30.9941 </r>
       <r>     9.6067     4.7839    31.4040 </r>
       <r>     9.6924     5.0337    31.8353 </r>
       <r>     9.7781     5.0718    32.2698 </r>
       <r>     9.8638     4.9198    32.6914 </r>
       <r>     9.9494     4.4234    33.0704 </r>
       <r>    10.0351     3.9849    33.4119 </r>
       <r>    10.1208     4.0665    33.7603 </r>
       <r>    10.2065     4.5717    34.1520 </r>
       <r>    10.2922     4.6567    34.5510 </r>
       <r>    10.3779     4.6669    34.9509 </r>
       <r>    10.4635     4.6086    35.3458 </r>
       <r>    10.5492     3.8632    35.6768 </r>
       <r>    10.6349     4.1229    36.0301 </r>
       <r>    10.7206     5.4385    36.4960 </r>
       <r>    10.8063     5.6128    36.9770 </r>
       <r>    10.8920     5.1496    37.4182 </r>
       <r>    10.9776     5.4806    37.8878 </r>
       <r>    11.0633     7.2277    38.5071 </r>
       <r>    11.1490     8.7303    39.2551 </r>
       <r>    11.2347     7.8686    39.9294 </r>
       <r>    11.3204     6.4994    40.4863 </r>
       <r>    11.4061     5.7551    40.9794 </r>
       <r>    11.4917     4.9337    41.4021 </r>
       <r>    11.5774     3.9522    41.7407 </r>
       <r>    11.6631     3.7224    42.0597 </r>
       <r>    11.7488     2.7157    42.2924 </r>
       <r>    11.8345     1.1613    42.3919 </r>
       <r>    11.9202     0.4774    42.4328 </r>
       <r>    12.0058     0.5719    42.4818 </r>
       <r>    12.0915     0.7489    42.5460 </r>
       <r>    12.1772     1.3003    42.6574 </r>
       <r>    12.2629     1.8871    42.8191 </r>
       <r>    12.3486     1.4057    42.9395 </r>
       <r>    12.4343     0.7635    43.0049 </r>
       <r>    12.5199     0.4736    43.0455 </r>
       <r>    12.6056     0.4251    43.0819 </r>
       <r>    12.6913     0.6795    43.1402 </r>
       <r>    12.7770     1.1834    43.2416 </r>
       <r>    12.8627     1.4274    43.3639 </r>
       <r>    12.9484     1.1057    43.4586 </r>
       <r>    13.0341     0.8974    43.5355 </r>
       <r>    13.1197     0.7143    43.5967 </r>
       <r>    13.2054     0.8688    43.6712 </r>
       <r>    13.2911     1.1754    43.7719 </r>
       <r>    13.3768     1.2839    43.8819 </r>
       <r>    13.4625     1.0878    43.9751 </r>
       <r>    13.5482     0.7466    44.0391 </r>
       <r>    13.6338     0.7555    44.1038 </r>
       <r>    13.7195     0.8153    44.1736 </r>
       <r>    13.8052     0.7858    44.2410 </r>
       <r>    13.8909     1.0492    44.3309 </r>
       <r>    13.9766     1.4796    44.4576 </r>
       <r>    14.0623     1.1132    44.5530 </r>
       <r>    14.1479     0.7327    44.6158 </r>
       <r>    14.2336     0.8871    44.6918 </r>
       <r>    14.3193     0.9812    44.7759 </r>
       <r>    14.4050     1.0088    44.8623 </r>
       <r>    14.4907     0.9003    44.9395 </r>
       <r>    14.5764     1.0027    45.0254 </r>
       <r>    14.6620     1.0730    45.1173 </r>
       <r>    14.7477     0.9831    45.2016 </r>
       <r>    14.8334     0.9757    45.2852 </r>
       <r>    14.9191     0.9720    45.3685 </r>
       <r>    15.0048     0.9077    45.4462 </r>
       <r>    15.0905     0.7426    45.5099 </r>
       <r>    15.1761     0.7261    45.5721 </r>
       <r>    15.2618     0.9241    45.6513 </r>
       <r>    15.3475     0.9850    45.7357 </r>
       <r>    15.4332     1.1771    45.8365 </r>
       <r>    15.5189     1.0991    45.9307 </r>
       <r>    15.6046     0.8340    46.0021 </r>
       <r>    15.6902     0.7463    46.0661 </r>
       <r>    15.7759     0.7834    46.1332 </r>
       <r>    15.8616     0.7840    46.2004 </r>
       <r>    15.9473     0.9079    46.2782 </r>
       <r>    16.0330     1.1613    46.3777 </r>
       <r>    16.1187     0.9680    46.4606 </r>
       <r>    16.2043     0.5394    46.5068 </r>
       <r>    16.2900     0.5511    46.5541 </r>
       <r>    16.3757     0.6904    46.6132 </r>
       <r>    16.4614     0.8171    46.6832 </r>
       <r>    16.5471     1.0162    46.7703 </r>
       <r>    16.6328     0.9537    46.8520 </r>
       <r>    16.7184     0.7880    46.9195 </r>
       <r>    16.8041     0.8290    46.9906 </r>
       <r>    16.8898     0.7397    47.0540 </r>
       <r>    16.9755     0.5340    47.0997 </r>
       <r>    17.0612     0.6346    47.1541 </r>
       <r>    17.1469     0.7441    47.2179 </r>
       <r>    17.2326     0.7444    47.2816 </r>
       <r>    17.3182     0.7070    47.3422 </r>
       <r>    17.4039     0.7753    47.4086 </r>
       <r>    17.4896     1.0203    47.4961 </r>
       <r>    17.5753     1.3108    47.6084 </r>
       <r>    17.6610     1.5949    47.7450 </r>
       <r>    17.7467     1.7388    47.8940 </r>
       <r>    17.8323     1.6356    48.0342 </r>
       <r>    17.9180     1.5011    48.1628 </r>
       <r>    18.0037     1.4037    48.2831 </r>
       <r>    18.0894     1.2980    48.3943 </r>
       <r>    18.1751     1.0949    48.4881 </r>
       <r>    18.2608     0.9856    48.5725 </r>
       <r>    18.3464     0.9616    48.6549 </r>
       <r>    18.4321     0.8993    48.7320 </r>
       <r>    18.5178     1.0733    48.8239 </r>
       <r>    18.6035     1.5176    48.9540 </r>
       <r>    18.6892     1.3316    49.0681 </r>
       <r>    18.7749     0.8206    49.1384 </r>
       <r>    18.8605     0.7796    49.2052 </r>
       <r>    18.9462     1.2306    49.3106 </r>
       <r>    19.0319     1.3786    49.4288 </r>
       <r>    19.1176     0.8563    49.5021 </r>
       <r>    19.2033     0.6659    49.5592 </r>
       <r>    19.2890     1.0281    49.6473 </r>
       <r>    19.3746     1.4685    49.7731 </r>
       <r>    19.4603     1.3578    49.8894 </r>
       <r>    19.5460     1.2459    49.9962 </r>
       <r>    19.6317     1.2224    50.1009 </r>
       <r>    19.7174     0.9028    50.1783 </r>
       <r>    19.8031     0.7921    50.2462 </r>
       <r>    19.8887     1.0632    50.3373 </r>
       <r>    19.9744     1.1733    50.4378 </r>
       <r>    20.0601     1.2194    50.5423 </r>
       <r>    20.1458     1.3177    50.6552 </r>
       <r>    20.2315     1.1930    50.7574 </r>
       <r>    20.3172     1.2833    50.8674 </r>
       <r>    20.4028     1.5398    50.9993 </r>
       <r>    20.4885     1.1578    51.0985 </r>
       <r>    20.5742     0.7675    51.1643 </r>
       <r>    20.6599     0.8171    51.2343 </r>
       <r>    20.7456     0.9508    51.3157 </r>
       <r>    20.8313     0.9273    51.3952 </r>
       <r>    20.9170     0.8304    51.4663 </r>
       <r>    21.0026     0.8546    51.5396 </r>
       <r>    21.0883     1.0370    51.6284 </r>
       <r>    21.1740     1.2264    51.7335 </r>
       <r>    21.2597     1.2126    51.8374 </r>
       <r>    21.3454     1.0965    51.9314 </r>
       <r>    21.4311     1.0483    52.0212 </r>
       <r>    21.5167     0.8290    52.0922 </r>
       <r>    21.6024     0.5784    52.1418 </r>
       <r>    21.6881     0.4497    52.1803 </r>
       <r>    21.7738     0.7006    52.2403 </r>
       <r>    21.8595     1.1862    52.3420 </r>
       <r>    21.9452     1.3460    52.4573 </r>
       <r>    22.0308     1.1419    52.5551 </r>
       <r>    22.1165     1.0939    52.6489 </r>
       <r>    22.2022     1.2913    52.7595 </r>
       <r>    22.2879     1.0995    52.8537 </r>
       <r>    22.3736     0.6681    52.9110 </r>
       <r>    22.4593     0.7444    52.9748 </r>
       <r>    22.5449     1.0108    53.0614 </r>
       <r>    22.6306     0.9491    53.1427 </r>
       <r>    22.7163     0.6920    53.2020 </r>
       <r>    22.8020     0.7735    53.2683 </r>
       <r>    22.8877     1.0553    53.3587 </r>
       <r>    22.9734     1.1789    53.4597 </r>
       <r>    23.0590     1.2633    53.5679 </r>
       <r>    23.1447     1.0944    53.6617 </r>
       <r>    23.2304     0.6904    53.7209 </r>
       <r>    23.3161     0.4753    53.7616 </r>
       <r>    23.4018     0.3500    53.7916 </r>
       <r>    23.4875     0.2139    53.8099 </r>
       <r>    23.5731     0.0701    53.8159 </r>
       <r>    23.6588     0.0813    53.8229 </r>
       <r>    23.7445     0.1768    53.8380 </r>
       <r>    23.8302     0.2437    53.8589 </r>
       <r>    23.9159     0.3808    53.8916 </r>
       <r>    24.0016     0.4638    53.9313 </r>
       <r>    24.0872     0.3203    53.9587 </r>
       <r>    24.1729     0.1275    53.9697 </r>
       <r>    24.2586     0.0231    53.9716 </r>
       <r>    24.3443     0.0317    53.9744 </r>
       <r>    24.4300     0.1217    53.9848 </r>
       <r>    24.5157     0.1336    53.9962 </r>
       <r>    24.6013     0.0407    53.9997 </r>
       <r>    24.6870     0.0034    54.0000 </r>
       <r>    24.7727     0.0001    54.0000 </r>
       <r>    24.8584     0.0000    54.0000 </r>
       <r>    24.9441     0.0000    54.0000 </r>
       <r>    25.0298     0.0000    54.0000 </r>
       <r>    25.1155     0.0000    54.0000 </r>
       <r>    25.2011     0.0000    54.0000 </r>
       <r>    25.2868     0.0000    54.0000 </r>
       <r>    25.3725     0.0000    54.0000 </r>
       <r>    25.4582     0.0000    54.0000 </r>
       <r>    25.5439     0.0000    54.0000 </r>
       <r>    25.6296     0.0000    54.0000 </r>
      </set>
     </set>
    </array>
   </total>
  </dos>
 </calculation>
 <structure name="finalpos" >
  <crystal>
   <varray name="basis" >
    <v>       3.81164605      -0.00000003      -0.00000006 </v>
    <v>      -0.00000003       3.81164568       0.00000013 </v>
    <v>      -0.00000006       0.00000013       3.81164574 </v>
   </varray>
   <i name="volume">     55.37804469 </i>
   <varray name="rec_basis" >
    <v>       0.26235385       0.00000000       0.00000000 </v>
    <v>       0.00000000       0.26235387      -0.00000001 </v>
    <v>       0.00000000      -0.00000001       0.26235387 </v>
   </varray>
  </crystal>
  <varray name="positions" >
   <v>       1.00000000       0.00000000       0.00000000 </v>
   <v>       0.00000000       0.50000000       0.50000000 </v>
   <v>       0.50000000       1.00000000       0.50000000 </v>
   <v>       0.50000000       0.50000000       1.00000000 </v>
  </varray>
 </structure>
</modeling>
