   4   4   0   0
  0.1891089E+02  0.4382874E-09  0.4154382E-09  0.4154382E-09  0.2000000E-15
  1.000000000000000E-004
  CAR 
 unknown system                          
     18.10151976     -1.97026001  301      7.84658764      1.00000000
     -1.970  0.0000E+00  0.0000E+00
     -1.903  0.0000E+00  0.0000E+00
     -1.836  0.0000E+00  0.0000E+00
     -1.770  0.0000E+00  0.0000E+00
     -1.703  0.0000E+00  0.0000E+00
     -1.636  0.0000E+00  0.0000E+00
     -1.569  0.0000E+00  0.0000E+00
     -1.502  0.2527E-17  0.1691E-18
     -1.435  0.2309E-14  0.1547E-15
     -1.368  0.8972E-12  0.6018E-13
     -1.301  0.1507E-09  0.1014E-10
     -1.234  0.1126E-07  0.7637E-09
     -1.167  0.3897E-06  0.2683E-07
     -1.100  0.6540E-05  0.4644E-06
     -1.034  0.5583E-04  0.4200E-05
     -0.967  0.2532E-03  0.2114E-04
     -0.900  0.6457E-03  0.6434E-04
     -0.833  0.1068E-02  0.1358E-03
     -0.766  0.1492E-02  0.2356E-03
     -0.699  0.1877E-02  0.3612E-03
     -0.632  0.1960E-02  0.4923E-03
     -0.565  0.2194E-02  0.6391E-03
     -0.498  0.2651E-02  0.8165E-03
     -0.431  0.2832E-02  0.1006E-02
     -0.365  0.2973E-02  0.1205E-02
     -0.298  0.3044E-02  0.1409E-02
     -0.231  0.3057E-02  0.1613E-02
     -0.164  0.3617E-02  0.1855E-02
     -0.097  0.4179E-02  0.2135E-02
     -0.030  0.4200E-02  0.2416E-02
      0.037  0.3875E-02  0.2675E-02
      0.104  0.3784E-02  0.2928E-02
      0.171  0.4522E-02  0.3231E-02
      0.238  0.5310E-02  0.3586E-02
      0.305  0.5339E-02  0.3943E-02
      0.371  0.5014E-02  0.4279E-02
      0.438  0.5332E-02  0.4635E-02
      0.505  0.5947E-02  0.5033E-02
      0.572  0.6035E-02  0.5437E-02
      0.639  0.5887E-02  0.5831E-02
      0.706  0.6304E-02  0.6253E-02
      0.773  0.7340E-02  0.6744E-02
      0.840  0.8246E-02  0.7295E-02
      0.907  0.8060E-02  0.7835E-02
      0.974  0.7579E-02  0.8342E-02
      1.041  0.8006E-02  0.8877E-02
      1.107  0.9540E-02  0.9516E-02
      1.174  0.1117E-01  0.1026E-01
      1.241  0.1187E-01  0.1106E-01
      1.308  0.1263E-01  0.1190E-01
      1.375  0.1621E-01  0.1299E-01
      1.442  0.2226E-01  0.1448E-01
      1.509  0.2680E-01  0.1627E-01
      1.576  0.2881E-01  0.1820E-01
      1.643  0.3092E-01  0.2027E-01
      1.710  0.3509E-01  0.2261E-01
      1.776  0.4100E-01  0.2536E-01
      1.843  0.4724E-01  0.2852E-01
      1.910  0.5329E-01  0.3208E-01
      1.977  0.6073E-01  0.3615E-01
      2.044  0.7085E-01  0.4089E-01
      2.111  0.7874E-01  0.4615E-01
      2.178  0.8342E-01  0.5174E-01
      2.245  0.8563E-01  0.5746E-01
      2.312  0.8441E-01  0.6311E-01
      2.379  0.8181E-01  0.6859E-01
      2.446  0.7843E-01  0.7383E-01
      2.512  0.7628E-01  0.7894E-01
      2.579  0.7437E-01  0.8391E-01
      2.646  0.7040E-01  0.8862E-01
      2.713  0.6627E-01  0.9306E-01
      2.780  0.6105E-01  0.9714E-01
      2.847  0.5768E-01  0.1010E+00
      2.914  0.6167E-01  0.1051E+00
      2.981  0.6943E-01  0.1098E+00
      3.048  0.7787E-01  0.1150E+00
      3.115  0.8831E-01  0.1209E+00
      3.181  0.9588E-01  0.1273E+00
      3.248  0.9725E-01  0.1338E+00
      3.315  0.9711E-01  0.1403E+00
      3.382  0.9935E-01  0.1470E+00
      3.449  0.1031E+00  0.1539E+00
      3.516  0.1034E+00  0.1608E+00
      3.583  0.9888E-01  0.1674E+00
      3.650  0.9507E-01  0.1737E+00
      3.717  0.1001E+00  0.1804E+00
      3.784  0.1156E+00  0.1882E+00
      3.851  0.1282E+00  0.1968E+00
      3.917  0.1295E+00  0.2054E+00
      3.984  0.1252E+00  0.2138E+00
      4.051  0.1206E+00  0.2219E+00
      4.118  0.1136E+00  0.2295E+00
      4.185  0.1010E+00  0.2362E+00
      4.252  0.8914E-01  0.2422E+00
      4.319  0.8213E-01  0.2477E+00
      4.386  0.7988E-01  0.2530E+00
      4.453  0.8197E-01  0.2585E+00
      4.520  0.8598E-01  0.2643E+00
      4.587  0.9157E-01  0.2704E+00
      4.653  0.9799E-01  0.2769E+00
      4.720  0.1006E+00  0.2837E+00
      4.787  0.9941E-01  0.2903E+00
      4.854  0.9832E-01  0.2969E+00
      4.921  0.9576E-01  0.3033E+00
      4.988  0.9134E-01  0.3094E+00
      5.055  0.9050E-01  0.3155E+00
      5.122  0.9105E-01  0.3216E+00
      5.189  0.8832E-01  0.3275E+00
      5.256  0.8248E-01  0.3330E+00
      5.322  0.7833E-01  0.3382E+00
      5.389  0.8014E-01  0.3436E+00
      5.456  0.8350E-01  0.3492E+00
      5.523  0.8385E-01  0.3548E+00
      5.590  0.8707E-01  0.3606E+00
      5.657  0.9602E-01  0.3670E+00
      5.724  0.1063E+00  0.3742E+00
      5.791  0.1191E+00  0.3821E+00
      5.858  0.1318E+00  0.3910E+00
      5.925  0.1329E+00  0.3998E+00
      5.992  0.1126E+00  0.4074E+00
      6.058  0.7720E-01  0.4125E+00
      6.125  0.4880E-01  0.4158E+00
      6.192  0.3478E-01  0.4181E+00
      6.259  0.2753E-01  0.4200E+00
      6.326  0.2203E-01  0.4214E+00
      6.393  0.1693E-01  0.4226E+00
      6.460  0.1273E-01  0.4234E+00
      6.527  0.1201E-01  0.4242E+00
      6.594  0.1321E-01  0.4251E+00
      6.661  0.1211E-01  0.4259E+00
      6.728  0.1056E-01  0.4266E+00
      6.794  0.1081E-01  0.4274E+00
      6.861  0.1178E-01  0.4281E+00
      6.928  0.1339E-01  0.4290E+00
      6.995  0.1381E-01  0.4300E+00
      7.062  0.1200E-01  0.4308E+00
      7.129  0.1028E-01  0.4315E+00
      7.196  0.9752E-02  0.4321E+00
      7.263  0.1012E-01  0.4328E+00
      7.330  0.1234E-01  0.4336E+00
      7.397  0.1527E-01  0.4346E+00
      7.463  0.1509E-01  0.4356E+00
      7.530  0.1212E-01  0.4365E+00
      7.597  0.9997E-02  0.4371E+00
      7.664  0.1011E-01  0.4378E+00
      7.731  0.1107E-01  0.4385E+00
      7.798  0.1213E-01  0.4394E+00
      7.865  0.1342E-01  0.4403E+00
      7.932  0.1378E-01  0.4412E+00
      7.999  0.1218E-01  0.4420E+00
      8.066  0.1034E-01  0.4427E+00
      8.133  0.1079E-01  0.4434E+00
      8.199  0.1233E-01  0.4442E+00
      8.266  0.1302E-01  0.4451E+00
      8.333  0.1302E-01  0.4460E+00
      8.400  0.1250E-01  0.4468E+00
      8.467  0.1149E-01  0.4476E+00
      8.534  0.1085E-01  0.4483E+00
      8.601  0.1136E-01  0.4491E+00
      8.668  0.1140E-01  0.4498E+00
      8.735  0.1079E-01  0.4505E+00
      8.802  0.1181E-01  0.4513E+00
      8.869  0.1304E-01  0.4522E+00
      8.935  0.1318E-01  0.4531E+00
      9.002  0.1290E-01  0.4540E+00
      9.069  0.1147E-01  0.4547E+00
      9.136  0.1029E-01  0.4554E+00
      9.203  0.1076E-01  0.4561E+00
      9.270  0.1138E-01  0.4569E+00
      9.337  0.1142E-01  0.4577E+00
      9.404  0.1136E-01  0.4584E+00
      9.471  0.1149E-01  0.4592E+00
      9.538  0.1159E-01  0.4600E+00
      9.604  0.1145E-01  0.4607E+00
      9.671  0.1160E-01  0.4615E+00
      9.738  0.1198E-01  0.4623E+00
      9.805  0.1157E-01  0.4631E+00
      9.872  0.1069E-01  0.4638E+00
      9.939  0.1069E-01  0.4645E+00
     10.006  0.1080E-01  0.4652E+00
     10.073  0.1041E-01  0.4659E+00
     10.140  0.1142E-01  0.4667E+00
     10.207  0.1255E-01  0.4675E+00
     10.274  0.1130E-01  0.4683E+00
     10.340  0.1135E-01  0.4690E+00
     10.407  0.1535E-01  0.4701E+00
     10.474  0.1882E-01  0.4713E+00
     10.541  0.1870E-01  0.4726E+00
     10.608  0.1695E-01  0.4737E+00
     10.675  0.1636E-01  0.4748E+00
     10.742  0.1693E-01  0.4759E+00
     10.809  0.1679E-01  0.4771E+00
     10.876  0.1594E-01  0.4781E+00
     10.943  0.1414E-01  0.4791E+00
     11.009  0.1231E-01  0.4799E+00
     11.076  0.1203E-01  0.4807E+00
     11.143  0.1229E-01  0.4815E+00
     11.210  0.1230E-01  0.4824E+00
     11.277  0.1229E-01  0.4832E+00
     11.344  0.1175E-01  0.4840E+00
     11.411  0.1045E-01  0.4847E+00
     11.478  0.1010E-01  0.4853E+00
     11.545  0.1101E-01  0.4861E+00
     11.612  0.1236E-01  0.4869E+00
     11.679  0.1239E-01  0.4877E+00
     11.745  0.1105E-01  0.4885E+00
     11.812  0.1045E-01  0.4892E+00
     11.879  0.9975E-02  0.4898E+00
     11.946  0.9264E-02  0.4905E+00
     12.013  0.9848E-02  0.4911E+00
     12.080  0.1103E-01  0.4919E+00
     12.147  0.1160E-01  0.4926E+00
     12.214  0.1276E-01  0.4935E+00
     12.281  0.1471E-01  0.4945E+00
     12.348  0.1585E-01  0.4955E+00
     12.415  0.1558E-01  0.4966E+00
     12.481  0.1478E-01  0.4976E+00
     12.548  0.1393E-01  0.4985E+00
     12.615  0.1323E-01  0.4994E+00
     12.682  0.1354E-01  0.5003E+00
     12.749  0.1448E-01  0.5012E+00
     12.816  0.1457E-01  0.5022E+00
     12.883  0.1410E-01  0.5032E+00
     12.950  0.1371E-01  0.5041E+00
     13.017  0.1358E-01  0.5050E+00
     13.084  0.1370E-01  0.5059E+00
     13.150  0.1394E-01  0.5068E+00
     13.217  0.1464E-01  0.5078E+00
     13.284  0.1517E-01  0.5088E+00
     13.351  0.1456E-01  0.5098E+00
     13.418  0.1392E-01  0.5107E+00
     13.485  0.1402E-01  0.5117E+00
     13.552  0.1421E-01  0.5126E+00
     13.619  0.1330E-01  0.5135E+00
     13.686  0.1214E-01  0.5143E+00
     13.753  0.1255E-01  0.5152E+00
     13.820  0.1227E-01  0.5160E+00
     13.886  0.1156E-01  0.5168E+00
     13.953  0.1190E-01  0.5176E+00
     14.020  0.1078E-01  0.5183E+00
     14.087  0.8560E-02  0.5189E+00
     14.154  0.8043E-02  0.5194E+00
     14.221  0.9090E-02  0.5200E+00
     14.288  0.1015E-01  0.5207E+00
     14.355  0.1110E-01  0.5214E+00
     14.422  0.1166E-01  0.5222E+00
     14.489  0.1052E-01  0.5229E+00
     14.556  0.9163E-02  0.5235E+00
     14.622  0.9853E-02  0.5242E+00
     14.689  0.1252E-01  0.5250E+00
     14.756  0.1505E-01  0.5260E+00
     14.823  0.1563E-01  0.5271E+00
     14.890  0.1461E-01  0.5280E+00
     14.957  0.1267E-01  0.5289E+00
     15.024  0.1021E-01  0.5296E+00
     15.091  0.7980E-02  0.5301E+00
     15.158  0.7088E-02  0.5306E+00
     15.225  0.7799E-02  0.5311E+00
     15.291  0.8975E-02  0.5317E+00
     15.358  0.9732E-02  0.5324E+00
     15.425  0.1083E-01  0.5331E+00
     15.492  0.1166E-01  0.5339E+00
     15.559  0.1076E-01  0.5346E+00
     15.626  0.9948E-02  0.5353E+00
     15.693  0.9741E-02  0.5359E+00
     15.760  0.8913E-02  0.5365E+00
     15.827  0.7395E-02  0.5370E+00
     15.894  0.5399E-02  0.5374E+00
     15.961  0.4051E-02  0.5376E+00
     16.027  0.4212E-02  0.5379E+00
     16.094  0.5306E-02  0.5383E+00
     16.161  0.5518E-02  0.5386E+00
     16.228  0.3754E-02  0.5389E+00
     16.295  0.1766E-02  0.5390E+00
     16.362  0.1107E-02  0.5391E+00
     16.429  0.1499E-02  0.5392E+00
     16.496  0.2020E-02  0.5393E+00
     16.563  0.2275E-02  0.5395E+00
     16.630  0.2123E-02  0.5396E+00
     16.696  0.1573E-02  0.5397E+00
     16.763  0.1163E-02  0.5398E+00
     16.830  0.9562E-03  0.5399E+00
     16.897  0.6004E-03  0.5399E+00
     16.964  0.3387E-03  0.5399E+00
     17.031  0.4106E-03  0.5399E+00
     17.098  0.4635E-03  0.5400E+00
     17.165  0.2831E-03  0.5400E+00
     17.232  0.8856E-04  0.5400E+00
     17.299  0.1361E-04  0.5400E+00
     17.366  0.9768E-06  0.5400E+00
     17.432  0.3134E-07  0.5400E+00
     17.499  0.4371E-09  0.5400E+00
     17.566  0.2604E-11  0.5400E+00
     17.633  0.6557E-14  0.5400E+00
     17.700  0.6942E-17  0.5400E+00
     17.767  0.0000E+00  0.5400E+00
     17.834  0.0000E+00  0.5400E+00
     17.901  0.0000E+00  0.5400E+00
     17.968  0.0000E+00  0.5400E+00
     18.035  0.0000E+00  0.5400E+00
     18.102  0.0000E+00  0.5400E+00
