       N       E                     dE             d eps       ncg     rms          rms(c)
DAV:   1     0.269869663414E+03    0.26987E+03   -0.22436E+04 91899   0.151E+03
DAV:   2    -0.873529978099E+01   -0.27860E+03   -0.27045E+03105615   0.321E+02
DAV:   3    -0.137903978722E+02   -0.50551E+01   -0.50189E+01101943   0.450E+01
DAV:   4    -0.138222747997E+02   -0.31877E-01   -0.31856E-01104535   0.370E+00
DAV:   5    -0.138225859694E+02   -0.31117E-03   -0.31116E-03107451   0.380E-01    0.136E+01
RMM:   6    -0.128511035862E+02    0.97148E+00   -0.26809E+00 91160   0.106E+01    0.913E+00
RMM:   7    -0.128036827668E+02    0.47421E-01   -0.25869E-01 91240   0.312E+00    0.467E+00
RMM:   8    -0.127972569187E+02    0.64258E-02   -0.10866E-02 91208   0.673E-01    0.506E-01
RMM:   9    -0.127971050112E+02    0.15191E-03   -0.40112E-04 91217   0.116E-01    0.394E-02
RMM:  10    -0.127971248484E+02   -0.19837E-04   -0.25494E-05 91234   0.373E-02    0.222E-02
RMM:  11    -0.127971260659E+02   -0.12174E-05   -0.12042E-06 51056   0.619E-03    0.559E-04
RMM:  12    -0.127971259404E+02    0.12549E-06   -0.14935E-07 46118   0.246E-03
   1 F= -.12797126E+02 E0= -.12793701E+02  d E =-.127971E+02
