   4   4   0   0
  0.1776831E+02  0.4166931E-09  0.4166930E-09  0.4166930E-09  0.2000000E-15
  1.000000000000000E-004
  CAR 
 unknown system                          
     19.94993525     -1.68660289  301      8.78380610      1.00000000
     -1.687  0.0000E+00  0.0000E+00
     -1.614  0.0000E+00  0.0000E+00
     -1.542  0.0000E+00  0.0000E+00
     -1.470  0.0000E+00  0.0000E+00
     -1.398  0.0000E+00  0.0000E+00
     -1.326  0.0000E+00  0.0000E+00
     -1.254  0.4105E-19  0.2961E-20
     -1.182  0.1061E-15  0.7654E-17
     -1.110  0.9528E-13  0.6880E-14
     -1.038  0.3188E-10  0.2306E-11
     -0.965  0.4110E-08  0.2988E-09
     -0.893  0.2150E-06  0.1580E-07
     -0.821  0.4865E-05  0.3667E-06
     -0.749  0.5058E-04  0.4014E-05
     -0.677  0.2528E-03  0.2224E-04
     -0.605  0.6545E-03  0.6945E-04
     -0.533  0.1080E-02  0.1473E-03
     -0.461  0.1497E-02  0.2553E-03
     -0.388  0.1830E-02  0.3873E-03
     -0.316  0.1914E-02  0.5254E-03
     -0.244  0.2143E-02  0.6799E-03
     -0.172  0.2770E-02  0.8797E-03
     -0.100  0.2877E-02  0.1087E-02
     -0.028  0.2517E-02  0.1269E-02
      0.044  0.2911E-02  0.1479E-02
      0.116  0.3670E-02  0.1743E-02
      0.189  0.3881E-02  0.2023E-02
      0.261  0.3808E-02  0.2298E-02
      0.333  0.3602E-02  0.2558E-02
      0.405  0.3790E-02  0.2831E-02
      0.477  0.4724E-02  0.3172E-02
      0.549  0.5167E-02  0.3544E-02
      0.621  0.4952E-02  0.3902E-02
      0.693  0.5307E-02  0.4284E-02
      0.766  0.5453E-02  0.4678E-02
      0.838  0.5332E-02  0.5062E-02
      0.910  0.6116E-02  0.5503E-02
      0.982  0.7112E-02  0.6016E-02
      1.054  0.7931E-02  0.6588E-02
      1.126  0.8432E-02  0.7196E-02
      1.198  0.8476E-02  0.7808E-02
      1.270  0.9202E-02  0.8471E-02
      1.343  0.1037E-01  0.9219E-02
      1.415  0.1122E-01  0.1003E-01
      1.487  0.1208E-01  0.1090E-01
      1.559  0.1227E-01  0.1178E-01
      1.631  0.1189E-01  0.1264E-01
      1.703  0.1292E-01  0.1357E-01
      1.775  0.1797E-01  0.1487E-01
      1.847  0.2781E-01  0.1688E-01
      1.919  0.3889E-01  0.1968E-01
      1.992  0.4888E-01  0.2321E-01
      2.064  0.5748E-01  0.2735E-01
      2.136  0.5939E-01  0.3163E-01
      2.208  0.5508E-01  0.3561E-01
      2.280  0.5314E-01  0.3944E-01
      2.352  0.5280E-01  0.4325E-01
      2.424  0.4966E-01  0.4683E-01
      2.496  0.5008E-01  0.5044E-01
      2.569  0.5196E-01  0.5419E-01
      2.641  0.5077E-01  0.5785E-01
      2.713  0.5187E-01  0.6159E-01
      2.785  0.5496E-01  0.6555E-01
      2.857  0.5613E-01  0.6960E-01
      2.929  0.5879E-01  0.7384E-01
      3.001  0.6292E-01  0.7838E-01
      3.073  0.6593E-01  0.8314E-01
      3.146  0.6631E-01  0.8792E-01
      3.218  0.6419E-01  0.9255E-01
      3.290  0.6484E-01  0.9722E-01
      3.362  0.7307E-01  0.1025E+00
      3.434  0.8383E-01  0.1085E+00
      3.506  0.9552E-01  0.1154E+00
      3.578  0.1073E+00  0.1232E+00
      3.650  0.1133E+00  0.1313E+00
      3.723  0.1085E+00  0.1392E+00
      3.795  0.9920E-01  0.1463E+00
      3.867  0.9013E-01  0.1528E+00
      3.939  0.7902E-01  0.1585E+00
      4.011  0.7283E-01  0.1638E+00
      4.083  0.7208E-01  0.1690E+00
      4.155  0.7474E-01  0.1744E+00
      4.227  0.8003E-01  0.1801E+00
      4.300  0.8486E-01  0.1863E+00
      4.372  0.8606E-01  0.1925E+00
      4.444  0.8049E-01  0.1983E+00
      4.516  0.7463E-01  0.2037E+00
      4.588  0.7160E-01  0.2088E+00
      4.660  0.6960E-01  0.2138E+00
      4.732  0.6903E-01  0.2188E+00
      4.804  0.7018E-01  0.2239E+00
      4.876  0.7349E-01  0.2292E+00
      4.949  0.7579E-01  0.2346E+00
      5.021  0.7794E-01  0.2403E+00
      5.093  0.8337E-01  0.2463E+00
      5.165  0.8573E-01  0.2525E+00
      5.237  0.8463E-01  0.2586E+00
      5.309  0.8785E-01  0.2649E+00
      5.381  0.9265E-01  0.2716E+00
      5.453  0.9138E-01  0.2782E+00
      5.526  0.8858E-01  0.2846E+00
      5.598  0.8946E-01  0.2910E+00
      5.670  0.8795E-01  0.2974E+00
      5.742  0.8578E-01  0.3035E+00
      5.814  0.8756E-01  0.3099E+00
      5.886  0.9196E-01  0.3165E+00
      5.958  0.9490E-01  0.3233E+00
      6.030  0.9297E-01  0.3300E+00
      6.103  0.8835E-01  0.3364E+00
      6.175  0.8492E-01  0.3425E+00
      6.247  0.8552E-01  0.3487E+00
      6.319  0.8911E-01  0.3551E+00
      6.391  0.9002E-01  0.3616E+00
      6.463  0.9195E-01  0.3683E+00
      6.535  0.9945E-01  0.3754E+00
      6.607  0.1024E+00  0.3828E+00
      6.680  0.9309E-01  0.3895E+00
      6.752  0.7676E-01  0.3951E+00
      6.824  0.6570E-01  0.3998E+00
      6.896  0.6215E-01  0.4043E+00
      6.968  0.5734E-01  0.4084E+00
      7.040  0.5311E-01  0.4123E+00
      7.112  0.4665E-01  0.4156E+00
      7.184  0.3590E-01  0.4182E+00
      7.256  0.2773E-01  0.4202E+00
      7.329  0.2365E-01  0.4219E+00
      7.401  0.2151E-01  0.4235E+00
      7.473  0.1848E-01  0.4248E+00
      7.545  0.1548E-01  0.4259E+00
      7.617  0.1398E-01  0.4269E+00
      7.689  0.1150E-01  0.4277E+00
      7.761  0.9473E-02  0.4284E+00
      7.833  0.9420E-02  0.4291E+00
      7.906  0.9413E-02  0.4298E+00
      7.978  0.9572E-02  0.4305E+00
      8.050  0.1143E-01  0.4313E+00
      8.122  0.1431E-01  0.4323E+00
      8.194  0.1436E-01  0.4334E+00
      8.266  0.1177E-01  0.4342E+00
      8.338  0.1005E-01  0.4349E+00
      8.410  0.9719E-02  0.4356E+00
      8.483  0.9446E-02  0.4363E+00
      8.555  0.9419E-02  0.4370E+00
      8.627  0.1125E-01  0.4378E+00
      8.699  0.1388E-01  0.4388E+00
      8.771  0.1406E-01  0.4398E+00
      8.843  0.1196E-01  0.4407E+00
      8.915  0.1039E-01  0.4414E+00
      8.987  0.1033E-01  0.4422E+00
      9.060  0.1081E-01  0.4430E+00
      9.132  0.1077E-01  0.4437E+00
      9.204  0.1116E-01  0.4446E+00
      9.276  0.1255E-01  0.4455E+00
      9.348  0.1349E-01  0.4464E+00
      9.420  0.1290E-01  0.4474E+00
      9.492  0.1146E-01  0.4482E+00
      9.564  0.1074E-01  0.4490E+00
      9.637  0.1068E-01  0.4497E+00
      9.709  0.1070E-01  0.4505E+00
      9.781  0.1152E-01  0.4513E+00
      9.853  0.1312E-01  0.4523E+00
      9.925  0.1548E-01  0.4534E+00
      9.997  0.1604E-01  0.4546E+00
     10.069  0.1409E-01  0.4556E+00
     10.141  0.1219E-01  0.4565E+00
     10.213  0.1192E-01  0.4573E+00
     10.286  0.1156E-01  0.4581E+00
     10.358  0.9890E-02  0.4589E+00
     10.430  0.9070E-02  0.4595E+00
     10.502  0.1062E-01  0.4603E+00
     10.574  0.1331E-01  0.4612E+00
     10.646  0.1420E-01  0.4623E+00
     10.718  0.1248E-01  0.4632E+00
     10.790  0.1090E-01  0.4639E+00
     10.863  0.1025E-01  0.4647E+00
     10.935  0.9570E-02  0.4654E+00
     11.007  0.9676E-02  0.4661E+00
     11.079  0.1004E-01  0.4668E+00
     11.151  0.1009E-01  0.4675E+00
     11.223  0.1064E-01  0.4683E+00
     11.295  0.1122E-01  0.4691E+00
     11.367  0.1116E-01  0.4699E+00
     11.440  0.1094E-01  0.4707E+00
     11.512  0.1050E-01  0.4715E+00
     11.584  0.9257E-02  0.4721E+00
     11.656  0.8645E-02  0.4727E+00
     11.728  0.8522E-02  0.4734E+00
     11.800  0.8196E-02  0.4740E+00
     11.872  0.8401E-02  0.4746E+00
     11.944  0.9348E-02  0.4752E+00
     12.017  0.1062E-01  0.4760E+00
     12.089  0.1037E-01  0.4767E+00
     12.161  0.8838E-02  0.4774E+00
     12.233  0.8301E-02  0.4780E+00
     12.305  0.8596E-02  0.4786E+00
     12.377  0.8787E-02  0.4792E+00
     12.449  0.9023E-02  0.4799E+00
     12.521  0.1113E-01  0.4807E+00
     12.594  0.1414E-01  0.4817E+00
     12.666  0.1491E-01  0.4828E+00
     12.738  0.1375E-01  0.4838E+00
     12.810  0.1223E-01  0.4847E+00
     12.882  0.1260E-01  0.4856E+00
     12.954  0.1464E-01  0.4866E+00
     13.026  0.1586E-01  0.4878E+00
     13.098  0.1448E-01  0.4888E+00
     13.170  0.1187E-01  0.4897E+00
     13.243  0.1022E-01  0.4904E+00
     13.315  0.1032E-01  0.4911E+00
     13.387  0.1081E-01  0.4919E+00
     13.459  0.1163E-01  0.4928E+00
     13.531  0.1301E-01  0.4937E+00
     13.603  0.1332E-01  0.4947E+00
     13.675  0.1227E-01  0.4955E+00
     13.747  0.1130E-01  0.4964E+00
     13.820  0.1167E-01  0.4972E+00
     13.892  0.1240E-01  0.4981E+00
     13.964  0.1252E-01  0.4990E+00
     14.036  0.1365E-01  0.5000E+00
     14.108  0.1591E-01  0.5011E+00
     14.180  0.1709E-01  0.5024E+00
     14.252  0.1576E-01  0.5035E+00
     14.324  0.1413E-01  0.5045E+00
     14.397  0.1402E-01  0.5055E+00
     14.469  0.1471E-01  0.5066E+00
     14.541  0.1475E-01  0.5077E+00
     14.613  0.1342E-01  0.5086E+00
     14.685  0.1322E-01  0.5096E+00
     14.757  0.1493E-01  0.5107E+00
     14.829  0.1576E-01  0.5118E+00
     14.901  0.1509E-01  0.5129E+00
     14.974  0.1367E-01  0.5139E+00
     15.046  0.1191E-01  0.5147E+00
     15.118  0.1072E-01  0.5155E+00
     15.190  0.1093E-01  0.5163E+00
     15.262  0.1188E-01  0.5171E+00
     15.334  0.1172E-01  0.5180E+00
     15.406  0.9700E-02  0.5187E+00
     15.478  0.8377E-02  0.5193E+00
     15.551  0.9020E-02  0.5199E+00
     15.623  0.9962E-02  0.5207E+00
     15.695  0.1108E-01  0.5215E+00
     15.767  0.1314E-01  0.5224E+00
     15.839  0.1451E-01  0.5235E+00
     15.911  0.1405E-01  0.5245E+00
     15.983  0.1398E-01  0.5255E+00
     16.055  0.1417E-01  0.5265E+00
     16.127  0.1292E-01  0.5274E+00
     16.200  0.1180E-01  0.5283E+00
     16.272  0.1176E-01  0.5291E+00
     16.344  0.1076E-01  0.5299E+00
     16.416  0.9143E-02  0.5306E+00
     16.488  0.9746E-02  0.5313E+00
     16.560  0.1010E-01  0.5320E+00
     16.632  0.8351E-02  0.5326E+00
     16.704  0.6938E-02  0.5331E+00
     16.777  0.7174E-02  0.5336E+00
     16.849  0.8169E-02  0.5342E+00
     16.921  0.8855E-02  0.5348E+00
     16.993  0.8740E-02  0.5355E+00
     17.065  0.6865E-02  0.5360E+00
     17.137  0.5083E-02  0.5363E+00
     17.209  0.5171E-02  0.5367E+00
     17.281  0.5166E-02  0.5371E+00
     17.354  0.4369E-02  0.5374E+00
     17.426  0.3954E-02  0.5377E+00
     17.498  0.3772E-02  0.5380E+00
     17.570  0.3029E-02  0.5382E+00
     17.642  0.2123E-02  0.5383E+00
     17.714  0.1479E-02  0.5384E+00
     17.786  0.1336E-02  0.5385E+00
     17.858  0.1846E-02  0.5387E+00
     17.931  0.2605E-02  0.5388E+00
     18.003  0.2853E-02  0.5391E+00
     18.075  0.2722E-02  0.5393E+00
     18.147  0.2403E-02  0.5394E+00
     18.219  0.1901E-02  0.5396E+00
     18.291  0.1282E-02  0.5397E+00
     18.363  0.7128E-03  0.5397E+00
     18.435  0.4594E-03  0.5397E+00
     18.507  0.4812E-03  0.5398E+00
     18.580  0.4596E-03  0.5398E+00
     18.652  0.4021E-03  0.5398E+00
     18.724  0.2494E-03  0.5399E+00
     18.796  0.1862E-03  0.5399E+00
     18.868  0.4845E-03  0.5399E+00
     18.940  0.7550E-03  0.5400E+00
     19.012  0.4766E-03  0.5400E+00
     19.084  0.1217E-03  0.5400E+00
     19.157  0.1273E-04  0.5400E+00
     19.229  0.5524E-06  0.5400E+00
     19.301  0.9910E-08  0.5400E+00
     19.373  0.7199E-10  0.5400E+00
     19.445  0.2049E-12  0.5400E+00
     19.517  0.2211E-15  0.5400E+00
     19.589  0.7298E-19  0.5400E+00
     19.661  0.0000E+00  0.5400E+00
     19.734  0.0000E+00  0.5400E+00
     19.806  0.0000E+00  0.5400E+00
     19.878  0.0000E+00  0.5400E+00
     19.950  0.0000E+00  0.5400E+00
