   4   4   0   0
  0.1693913E+02  0.3925892E-09  0.4154382E-09  0.4154382E-09  0.2000000E-15
  1.000000000000000E-004
  CAR 
 unknown system                          
     20.60585912     -1.34346779  301      9.59627474      1.00000000
     -1.343  0.0000E+00  0.0000E+00
     -1.270  0.0000E+00  0.0000E+00
     -1.197  0.0000E+00  0.0000E+00
     -1.124  0.0000E+00  0.0000E+00
     -1.051  0.0000E+00  0.0000E+00
     -0.978  0.0000E+00  0.0000E+00
     -0.904  0.8543E-19  0.6250E-20
     -0.831  0.2172E-15  0.1590E-16
     -0.758  0.1923E-12  0.1408E-13
     -0.685  0.6161E-10  0.4522E-11
     -0.612  0.7398E-08  0.5458E-09
     -0.539  0.3513E-06  0.2625E-07
     -0.465  0.7085E-05  0.5446E-06
     -0.392  0.6543E-04  0.5332E-05
     -0.319  0.2951E-03  0.2692E-04
     -0.246  0.6989E-03  0.7806E-04
     -0.173  0.1057E-02  0.1554E-03
     -0.100  0.1462E-02  0.2624E-03
     -0.027  0.1784E-02  0.3929E-03
      0.047  0.1751E-02  0.5210E-03
      0.120  0.2086E-02  0.6737E-03
      0.193  0.2514E-02  0.8576E-03
      0.266  0.2568E-02  0.1045E-02
      0.339  0.2745E-02  0.1246E-02
      0.412  0.2765E-02  0.1449E-02
      0.486  0.2818E-02  0.1655E-02
      0.559  0.3442E-02  0.1907E-02
      0.632  0.3880E-02  0.2191E-02
      0.705  0.3827E-02  0.2471E-02
      0.778  0.3388E-02  0.2719E-02
      0.851  0.3485E-02  0.2974E-02
      0.925  0.4457E-02  0.3300E-02
      0.998  0.4990E-02  0.3665E-02
      1.071  0.4847E-02  0.4019E-02
      1.144  0.4425E-02  0.4343E-02
      1.217  0.4895E-02  0.4701E-02
      1.290  0.5626E-02  0.5113E-02
      1.364  0.5736E-02  0.5533E-02
      1.437  0.5590E-02  0.5942E-02
      1.510  0.5934E-02  0.6376E-02
      1.583  0.6873E-02  0.6879E-02
      1.656  0.7556E-02  0.7431E-02
      1.729  0.7449E-02  0.7976E-02
      1.803  0.7010E-02  0.8489E-02
      1.876  0.7868E-02  0.9065E-02
      1.949  0.9988E-02  0.9796E-02
      2.022  0.1103E-01  0.1060E-01
      2.095  0.1099E-01  0.1141E-01
      2.168  0.1386E-01  0.1242E-01
      2.242  0.1962E-01  0.1386E-01
      2.315  0.2481E-01  0.1567E-01
      2.388  0.2723E-01  0.1766E-01
      2.461  0.2770E-01  0.1969E-01
      2.534  0.3193E-01  0.2203E-01
      2.607  0.3866E-01  0.2486E-01
      2.681  0.4300E-01  0.2800E-01
      2.754  0.4817E-01  0.3153E-01
      2.827  0.5358E-01  0.3545E-01
      2.900  0.6090E-01  0.3990E-01
      2.973  0.6942E-01  0.4498E-01
      3.046  0.7320E-01  0.5034E-01
      3.120  0.7436E-01  0.5578E-01
      3.193  0.7425E-01  0.6121E-01
      3.266  0.7236E-01  0.6650E-01
      3.339  0.6818E-01  0.7149E-01
      3.412  0.6646E-01  0.7636E-01
      3.485  0.6659E-01  0.8123E-01
      3.559  0.6326E-01  0.8586E-01
      3.632  0.5968E-01  0.9022E-01
      3.705  0.5618E-01  0.9433E-01
      3.778  0.5022E-01  0.9801E-01
      3.851  0.4787E-01  0.1015E+00
      3.924  0.5292E-01  0.1054E+00
      3.998  0.5967E-01  0.1097E+00
      4.071  0.6574E-01  0.1146E+00
      4.144  0.7246E-01  0.1199E+00
      4.217  0.7786E-01  0.1256E+00
      4.290  0.8036E-01  0.1314E+00
      4.363  0.7901E-01  0.1372E+00
      4.437  0.7846E-01  0.1430E+00
      4.510  0.8283E-01  0.1490E+00
      4.583  0.8662E-01  0.1554E+00
      4.656  0.8694E-01  0.1617E+00
      4.729  0.8507E-01  0.1679E+00
      4.802  0.8194E-01  0.1739E+00
      4.876  0.8343E-01  0.1800E+00
      4.949  0.9365E-01  0.1869E+00
      5.022  0.1030E+00  0.1944E+00
      5.095  0.1067E+00  0.2022E+00
      5.168  0.1047E+00  0.2099E+00
      5.241  0.9748E-01  0.2170E+00
      5.314  0.9445E-01  0.2239E+00
      5.388  0.9359E-01  0.2308E+00
      5.461  0.8591E-01  0.2371E+00
      5.534  0.7343E-01  0.2424E+00
      5.607  0.6794E-01  0.2474E+00
      5.680  0.6741E-01  0.2523E+00
      5.753  0.6732E-01  0.2573E+00
      5.827  0.6923E-01  0.2623E+00
      5.900  0.7259E-01  0.2677E+00
      5.973  0.7547E-01  0.2732E+00
      6.046  0.7868E-01  0.2789E+00
      6.119  0.8120E-01  0.2849E+00
      6.192  0.8182E-01  0.2909E+00
      6.266  0.8417E-01  0.2970E+00
      6.339  0.8265E-01  0.3031E+00
      6.412  0.7594E-01  0.3086E+00
      6.485  0.7018E-01  0.3138E+00
      6.558  0.7096E-01  0.3189E+00
      6.631  0.7406E-01  0.3244E+00
      6.705  0.7129E-01  0.3296E+00
      6.778  0.6459E-01  0.3343E+00
      6.851  0.6180E-01  0.3388E+00
      6.924  0.6655E-01  0.3437E+00
      6.997  0.7001E-01  0.3488E+00
      7.070  0.6722E-01  0.3537E+00
      7.144  0.6631E-01  0.3586E+00
      7.217  0.7321E-01  0.3639E+00
      7.290  0.8100E-01  0.3699E+00
      7.363  0.8719E-01  0.3762E+00
      7.436  0.9727E-01  0.3834E+00
      7.509  0.1106E+00  0.3915E+00
      7.583  0.1119E+00  0.3996E+00
      7.656  0.9256E-01  0.4064E+00
      7.729  0.6926E-01  0.4115E+00
      7.802  0.5027E-01  0.4152E+00
      7.875  0.3655E-01  0.4178E+00
      7.948  0.3055E-01  0.4201E+00
      8.022  0.2588E-01  0.4220E+00
      8.095  0.1731E-01  0.4232E+00
      8.168  0.1097E-01  0.4240E+00
      8.241  0.9358E-02  0.4247E+00
      8.314  0.9130E-02  0.4254E+00
      8.387  0.1034E-01  0.4261E+00
      8.461  0.1269E-01  0.4271E+00
      8.534  0.1395E-01  0.4281E+00
      8.607  0.1230E-01  0.4290E+00
      8.680  0.9845E-02  0.4297E+00
      8.753  0.9338E-02  0.4304E+00
      8.826  0.1029E-01  0.4311E+00
      8.900  0.1139E-01  0.4320E+00
      8.973  0.1287E-01  0.4329E+00
      9.046  0.1319E-01  0.4339E+00
      9.119  0.1153E-01  0.4347E+00
      9.192  0.1050E-01  0.4355E+00
      9.265  0.9634E-02  0.4362E+00
      9.339  0.9307E-02  0.4369E+00
      9.412  0.1044E-01  0.4376E+00
      9.485  0.1212E-01  0.4385E+00
      9.558  0.1314E-01  0.4395E+00
      9.631  0.1313E-01  0.4405E+00
      9.704  0.1248E-01  0.4414E+00
      9.778  0.1038E-01  0.4421E+00
      9.851  0.7915E-02  0.4427E+00
      9.924  0.8571E-02  0.4433E+00
      9.997  0.1211E-01  0.4442E+00
     10.070  0.1349E-01  0.4452E+00
     10.143  0.1301E-01  0.4462E+00
     10.217  0.1189E-01  0.4470E+00
     10.290  0.9711E-02  0.4477E+00
     10.363  0.8468E-02  0.4484E+00
     10.436  0.9078E-02  0.4490E+00
     10.509  0.1100E-01  0.4498E+00
     10.582  0.1307E-01  0.4508E+00
     10.655  0.1376E-01  0.4518E+00
     10.729  0.1208E-01  0.4527E+00
     10.802  0.1083E-01  0.4535E+00
     10.875  0.1043E-01  0.4542E+00
     10.948  0.9427E-02  0.4549E+00
     11.021  0.9047E-02  0.4556E+00
     11.094  0.9679E-02  0.4563E+00
     11.168  0.1041E-01  0.4571E+00
     11.241  0.1079E-01  0.4578E+00
     11.314  0.1086E-01  0.4586E+00
     11.387  0.1125E-01  0.4595E+00
     11.460  0.1127E-01  0.4603E+00
     11.533  0.1112E-01  0.4611E+00
     11.607  0.1020E-01  0.4618E+00
     11.680  0.9600E-02  0.4625E+00
     11.753  0.9929E-02  0.4633E+00
     11.826  0.9136E-02  0.4639E+00
     11.899  0.9008E-02  0.4646E+00
     11.972  0.1007E-01  0.4653E+00
     12.046  0.1079E-01  0.4661E+00
     12.119  0.9782E-02  0.4668E+00
     12.192  0.8314E-02  0.4675E+00
     12.265  0.8478E-02  0.4681E+00
     12.338  0.9070E-02  0.4687E+00
     12.411  0.9360E-02  0.4694E+00
     12.485  0.1105E-01  0.4702E+00
     12.558  0.1148E-01  0.4711E+00
     12.631  0.1227E-01  0.4720E+00
     12.704  0.1704E-01  0.4732E+00
     12.777  0.1871E-01  0.4746E+00
     12.850  0.1639E-01  0.4758E+00
     12.924  0.1520E-01  0.4769E+00
     12.997  0.1611E-01  0.4781E+00
     13.070  0.1662E-01  0.4793E+00
     13.143  0.1520E-01  0.4804E+00
     13.216  0.1280E-01  0.4813E+00
     13.289  0.1058E-01  0.4821E+00
     13.363  0.9430E-02  0.4828E+00
     13.436  0.9849E-02  0.4835E+00
     13.509  0.1221E-01  0.4844E+00
     13.582  0.1318E-01  0.4854E+00
     13.655  0.1200E-01  0.4863E+00
     13.728  0.1023E-01  0.4870E+00
     13.802  0.9600E-02  0.4877E+00
     13.875  0.1043E-01  0.4885E+00
     13.948  0.1121E-01  0.4893E+00
     14.021  0.1098E-01  0.4901E+00
     14.094  0.9976E-02  0.4908E+00
     14.167  0.9234E-02  0.4915E+00
     14.241  0.1040E-01  0.4923E+00
     14.314  0.1241E-01  0.4932E+00
     14.387  0.1329E-01  0.4941E+00
     14.460  0.1355E-01  0.4951E+00
     14.533  0.1430E-01  0.4962E+00
     14.606  0.1446E-01  0.4972E+00
     14.680  0.1412E-01  0.4983E+00
     14.753  0.1362E-01  0.4993E+00
     14.826  0.1215E-01  0.5002E+00
     14.899  0.1094E-01  0.5010E+00
     14.972  0.1089E-01  0.5018E+00
     15.045  0.1233E-01  0.5027E+00
     15.119  0.1579E-01  0.5038E+00
     15.192  0.1922E-01  0.5052E+00
     15.265  0.1866E-01  0.5066E+00
     15.338  0.1467E-01  0.5077E+00
     15.411  0.1103E-01  0.5085E+00
     15.484  0.8727E-02  0.5091E+00
     15.558  0.9152E-02  0.5098E+00
     15.631  0.1124E-01  0.5106E+00
     15.704  0.1333E-01  0.5116E+00
     15.777  0.1310E-01  0.5125E+00
     15.850  0.1025E-01  0.5133E+00
     15.923  0.8725E-02  0.5139E+00
     15.997  0.9684E-02  0.5146E+00
     16.070  0.1161E-01  0.5155E+00
     16.143  0.1203E-01  0.5164E+00
     16.216  0.1188E-01  0.5172E+00
     16.289  0.1238E-01  0.5181E+00
     16.362  0.1250E-01  0.5190E+00
     16.435  0.1194E-01  0.5199E+00
     16.509  0.1189E-01  0.5208E+00
     16.582  0.1225E-01  0.5217E+00
     16.655  0.1100E-01  0.5225E+00
     16.728  0.8326E-02  0.5231E+00
     16.801  0.6866E-02  0.5236E+00
     16.874  0.8001E-02  0.5242E+00
     16.948  0.9257E-02  0.5249E+00
     17.021  0.8807E-02  0.5255E+00
     17.094  0.7824E-02  0.5261E+00
     17.167  0.9788E-02  0.5268E+00
     17.240  0.1475E-01  0.5279E+00
     17.313  0.1615E-01  0.5291E+00
     17.387  0.1251E-01  0.5300E+00
     17.460  0.9888E-02  0.5307E+00
     17.533  0.9861E-02  0.5314E+00
     17.606  0.9198E-02  0.5321E+00
     17.679  0.7319E-02  0.5326E+00
     17.752  0.7883E-02  0.5332E+00
     17.826  0.1022E-01  0.5339E+00
     17.899  0.1007E-01  0.5347E+00
     17.972  0.7897E-02  0.5353E+00
     18.045  0.6788E-02  0.5358E+00
     18.118  0.6119E-02  0.5362E+00
     18.191  0.4968E-02  0.5366E+00
     18.265  0.5329E-02  0.5370E+00
     18.338  0.6652E-02  0.5374E+00
     18.411  0.6049E-02  0.5379E+00
     18.484  0.4137E-02  0.5382E+00
     18.557  0.3322E-02  0.5384E+00
     18.630  0.3199E-02  0.5387E+00
     18.704  0.2923E-02  0.5389E+00
     18.777  0.3039E-02  0.5391E+00
     18.850  0.3122E-02  0.5393E+00
     18.923  0.2385E-02  0.5395E+00
     18.996  0.1226E-02  0.5396E+00
     19.069  0.7965E-03  0.5397E+00
     19.143  0.9953E-03  0.5397E+00
     19.216  0.7821E-03  0.5398E+00
     19.289  0.3527E-03  0.5398E+00
     19.362  0.3644E-03  0.5398E+00
     19.435  0.5248E-03  0.5399E+00
     19.508  0.4141E-03  0.5399E+00
     19.582  0.4478E-03  0.5399E+00
     19.655  0.5060E-03  0.5400E+00
     19.728  0.2486E-03  0.5400E+00
     19.801  0.4610E-04  0.5400E+00
     19.874  0.3156E-05  0.5400E+00
     19.947  0.7854E-07  0.5400E+00
     20.021  0.7012E-09  0.5400E+00
     20.094  0.2222E-11  0.5400E+00
     20.167  0.2480E-14  0.5400E+00
     20.240  0.9891E-18  0.5400E+00
     20.313  0.0000E+00  0.5400E+00
     20.386  0.0000E+00  0.5400E+00
     20.460  0.0000E+00  0.5400E+00
     20.533  0.0000E+00  0.5400E+00
     20.606  0.0000E+00  0.5400E+00
