    4    4  100    1
  0.1693913E+02  0.3925892E-09  0.4154382E-09  0.4154382E-09  0.2000000E-15
  1.000000000000000E-004
  CAR 
 unknown system                          
     44   1688     27
 
  0.0000000E+00  0.0000000E+00  0.0000000E+00  0.2962963E-03
    1       -0.343468   1.000000
    2        2.423967   1.000000
    3        2.423967   1.000000
    4        2.505927   1.000000
    5        2.777256   1.000000
    6        2.783092   1.000000
    7        2.783092   1.000000
    8        4.700660   1.000000
    9        4.700661   1.000000
   10        5.183003   1.000000
   11        6.102084   1.000000
   12        6.630011   1.000000
   13        7.528284   1.000000
   14        7.528284   1.000000
   15        7.545215   1.000000
   16        7.712072   1.000000
   17        7.712073   1.000000
   18        7.939593   1.000000
   19        7.939593   1.000000
   20        8.082923   1.000000
   21        8.082923   1.000000
   22       10.266314   0.000000
   23       10.266315   0.000000
   24       11.263766   0.000000
   25       14.979819   0.000000
   26       14.979820   0.000000
   27       16.289281   0.000000
 
  0.6666667E-01  0.1723947E-25  0.0000000E+00  0.5925926E-03
    1       -0.286989   1.000000
    2        2.463356   1.000000
    3        2.463356   1.000000
    4        2.528345   1.000000
    5        2.799022   1.000000
    6        2.810965   1.000000
    7        2.810965   1.000000
    8        4.724025   1.000000
    9        4.724025   1.000000
   10        5.150447   1.000000
   11        6.116247   1.000000
   12        6.601336   1.000000
   13        7.492311   1.000000
   14        7.492311   1.000000
   15        7.527564   1.000000
   16        7.712224   1.000000
   17        7.712225   1.000000
   18        7.834160   1.000000
   19        7.834160   1.000000
   20        7.880809   1.000000
   21        7.880809   1.000000
   22       10.555670   0.000000
   23       10.555670   0.000000
   24       10.851332   0.000000
   25       14.926159   0.000000
   26       14.926159   0.000000
   27       16.791088   0.000000
 
  0.1333333E+00  0.2412745E-24 -0.4135903E-24  0.5925926E-03
    1       -0.118770   1.000000
    2        2.579065   1.000000
    3        2.579066   1.000000
    4        2.591591   1.000000
    5        2.863808   1.000000
    6        2.894362   1.000000
    7        2.894362   1.000000
    8        4.794162   1.000000
    9        4.794162   1.000000
   10        5.055392   1.000000
   11        6.158403   1.000000
   12        6.517151   1.000000
   13        7.301949   1.000000
   14        7.301949   1.000000
   15        7.385075   1.000000
   16        7.385075   1.000000
   17        7.475717   1.000000
   18        7.712675   1.000000
   19        7.712675   1.000000
   20        7.713360   1.000000
   21        7.713360   1.000000
   22        9.922117   0.000002
   23       11.208755   0.000000
   24       11.208756   0.000000
   25       14.776062   0.000000
   26       14.776062   0.000000
   27       17.991122   0.000000
 
  0.2000000E+00  0.1551165E-24  0.8271806E-24  0.5925926E-03
    1        0.156991   1.000000
    2        2.682713   1.000000
    3        2.762936   1.000000
    4        2.762937   1.000000
    5        2.970044   1.000000
    6        3.033390   1.000000
    7        3.033390   1.000000
    8        4.905098   1.000000
    9        4.910510   1.000000
   10        4.910511   1.000000
   11        6.227170   1.000000
   12        6.383884   1.000000
   13        6.701607   1.000000
   14        6.701607   1.000000
   15        7.210028   1.000000
   16        7.210028   1.000000
   17        7.392736   1.000000
   18        7.460035   1.000000
   19        7.460035   1.000000
   20        7.713306   1.000000
   21        7.713307   1.000000
   22        8.850576   1.000000
   23       12.007246   0.000000
   24       12.007246   0.000000
   25       14.560197   0.000000
   26       14.560197   0.000000
   27       19.189501   0.000000
 
  0.2666667E+00  0.6895828E-25 -0.8271806E-24  0.5925926E-03
    1        0.531999   1.000000
    2        2.775052   1.000000
    3        2.999441   1.000000
    4        2.999441   1.000000
    5        3.115022   1.000000
    6        3.228223   1.000000
    7        3.228223   1.000000
    8        4.710056   1.000000
    9        5.072134   1.000000
   10        5.072134   1.000000
   11        6.107835   1.000000
   12        6.107835   1.000000
   13        6.213853   1.000000
   14        6.320268   1.000000
   15        6.978207   1.000000
   16        6.978208   1.000000
   17        7.149372   1.000000
   18        7.149372   1.000000
   19        7.283330   1.000000
   20        7.714064   1.000000
   21        7.714065   1.000000
   22        7.813493   1.000000
   23       12.871424   0.000000
   24       12.871424   0.000000
   25       14.321792   0.000000
   26       14.321792   0.000000
   27       18.663251   0.000000
 
  0.3333333E+00  0.1895958E-24  0.0000000E+00  0.5925926E-03
    1        0.991346   1.000000
    2        2.820234   1.000000
    3        3.261434   1.000000
    4        3.261435   1.000000
    5        3.294899   1.000000
    6        3.478793   1.000000
    7        3.478793   1.000000
    8        4.482954   1.000000
    9        5.277610   1.000000
   10        5.277611   1.000000
   11        5.546800   1.000000
   12        5.546800   1.000000
   13        6.028372   1.000000
   14        6.434592   1.000000
   15        6.715020   1.000000
   16        6.715020   1.000000
   17        6.808836   1.000000
   18        6.808837   1.000000
   19        6.912401   1.000000
   20        7.153505   1.000000
   21        7.714815   1.000000
   22        7.714816   1.000000
   23       13.767769   0.000000
   24       13.767769   0.000000
   25       14.104748   0.000000
   26       14.104749   0.000000
   27       18.014593   0.000000
 
  0.4000000E+00  0.3102329E-24  0.1654361E-23  0.5925926E-03
    1        1.507735   1.000000
    2        2.742565   1.000000
    3        3.503260   1.000000
    4        3.503261   1.000000
    5        3.504441   1.000000
    6        3.784954   1.000000
    7        3.784954   1.000000
    8        4.236928   1.000000
    9        5.029538   1.000000
   10        5.029538   1.000000
   11        5.524300   1.000000
   12        5.524301   1.000000
   13        5.863052   1.000000
   14        6.240667   1.000000
   15        6.461020   1.000000
   16        6.461020   1.000000
   17        6.468192   1.000000
   18        6.468192   1.000000
   19        6.566043   1.000000
   20        7.009955   1.000000
   21        7.715378   1.000000
   22        7.715379   1.000000
   23       13.943199   0.000000
   24       13.943200   0.000000
   25       14.674959   0.000000
   26       14.674960   0.000000
   27       17.267047   0.000000
 
  0.4666667E+00  0.8444602E-24  0.8271806E-24  0.5925926E-03
    1        2.030326   1.000000
    2        2.473359   1.000000
    3        3.656650   1.000000
    4        3.656651   1.000000
    5        3.737025   1.000000
    6        3.984441   1.000000
    7        4.146200   1.000000
    8        4.146200   1.000000
    9        4.561634   1.000000
   10        4.561634   1.000000
   11        5.778441   1.000000
   12        5.808105   1.000000
   13        5.808105   1.000000
   14        5.870071   1.000000
   15        6.123295   1.000000
   16        6.123295   1.000000
   17        6.310502   1.000000
   18        6.310503   1.000000
   19        6.709599   1.000000
   20        6.859727   1.000000
   21        7.715674   1.000000
   22        7.715675   1.000000
   23       13.857875   0.000000
   24       13.857875   0.000000
   25       15.574111   0.000000
   26       15.574113   0.000000
   27       16.445458   0.000000
 
  0.5292881E-26  0.6666667E-01  0.0000000E+00  0.5925926E-03
    1       -0.293112   1.000000
    2        2.440111   1.000000
    3        2.458286   1.000000
    4        2.538104   1.000000
    5        2.800900   1.000000
    6        2.804944   1.000000
    7        2.814166   1.000000
    8        4.675484   1.000000
    9        4.727101   1.000000
   10        5.202854   1.000000
   11        6.086085   1.000000
   12        6.627158   1.000000
   13        7.482179   1.000000
   14        7.502348   1.000000
   15        7.515403   1.000000
   16        7.517415   1.000000
   17        7.671224   1.000000
   18        7.768909   1.000000
   19        7.941197   1.000000
   20        8.026577   1.000000
   21        8.081396   1.000000
   22        9.897994   0.000010
   23       10.496079   0.000000
   24       11.466587   0.000000
   25       14.948866   0.000000
   26       15.434661   0.000000
   27       16.175365   0.000000
 
  0.6666667E-01  0.6666667E-01  0.6203855E-24  0.5925926E-03
    1       -0.236979   1.000000
    2        2.479757   1.000000
    3        2.494706   1.000000
    4        2.560699   1.000000
    5        2.826430   1.000000
    6        2.828481   1.000000
    7        2.843958   1.000000
    8        4.696010   1.000000
    9        4.749146   1.000000
   10        5.173810   1.000000
   11        6.101594   1.000000
   12        6.599105   1.000000
   13        7.447863   1.000000
   14        7.455665   1.000000
   15        7.467063   1.000000
   16        7.474269   1.000000
   17        7.671313   1.000000
   18        7.723388   1.000000
   19        7.767922   1.000000
   20        7.882375   1.000000
   21        7.925790   1.000000
   22       10.194991   0.000000
   23       10.754391   0.000000
   24       11.053179   0.000000
   25       14.892217   0.000000
   26       15.384274   0.000000
   27       16.661333   0.000000
 
  0.1333333E+00  0.6666667E-01 -0.3101927E-24  0.5925926E-03
    1       -0.070003   1.000000
    2        2.596176   1.000000
    3        2.601002   1.000000
    4        2.624480   1.000000
    5        2.890375   1.000000
    6        2.911113   1.000000
    7        2.933768   1.000000
    8        4.752433   1.000000
    9        4.814946   1.000000
   10        5.094140   1.000000
   11        6.147480   1.000000
   12        6.516932   1.000000
   13        7.146293   1.000000
   14        7.188006   1.000000
   15        7.345310   1.000000
   16        7.345788   1.000000
   17        7.405661   1.000000
   18        7.609509   1.000000
   19        7.671536   1.000000
   20        7.714842   1.000000
   21        7.745771   1.000000
   22       10.137095   0.000000
   23       10.831813   0.000000
   24       11.365624   0.000000
   25       14.732968   0.000000
   26       15.246627   0.000000
   27       17.777832   0.000000
 
  0.2000000E+00  0.6666667E-01  0.1137373E-23  0.5925926E-03
    1        0.203697   1.000000
    2        2.716458   1.000000
    3        2.768649   1.000000
    4        2.781322   1.000000
    5        2.995186   1.000000
    6        3.048878   1.000000
    7        3.084096   1.000000
    8        4.796510   1.000000
    9        4.923665   1.000000
   10        5.018597   1.000000
   11        6.221040   1.000000
   12        6.388584   1.000000
   13        6.601983   1.000000
   14        6.625667   1.000000
   15        7.110671   1.000000
   16        7.177120   1.000000
   17        7.221512   1.000000
   18        7.461476   1.000000
   19        7.471515   1.000000
   20        7.671861   1.000000
   21        7.694982   1.000000
   22        9.106343   1.000000
   23       11.570652   0.000000
   24       12.136801   0.000000
   25       14.501838   0.000000
   26       15.063156   0.000000
   27       18.547998   0.000000
 
  0.2666667E+00  0.6666667E-01 -0.6203855E-24  0.5925926E-03
    1        0.575838   1.000000
    2        2.809807   1.000000
    3        2.984538   1.000000
    4        3.019656   1.000000
    5        3.138177   1.000000
    6        3.241808   1.000000
    7        3.292312   1.000000
    8        4.682073   1.000000
    9        5.073077   1.000000
   10        5.102819   1.000000
   11        6.017639   1.000000
   12        6.065834   1.000000
   13        6.215750   1.000000
   14        6.331879   1.000000
   15        6.767220   1.000000
   16        6.953162   1.000000
   17        6.992442   1.000000
   18        7.150961   1.000000
   19        7.313714   1.000000
   20        7.672170   1.000000
   21        7.680217   1.000000
   22        8.157286   1.000000
   23       12.309778   0.000000
   24       12.983845   0.000000
   25       14.242808   0.000000
   26       14.906237   0.000000
   27       18.062691   0.000000
 
  0.3333333E+00  0.6666667E-01  0.8271806E-24  0.5925926E-03
    1        1.031564   1.000000
    2        2.855533   1.000000
    3        3.232229   1.000000
    4        3.284087   1.000000
    5        3.315418   1.000000
    6        3.489828   1.000000
    7        3.547405   1.000000
    8        4.474981   1.000000
    9        5.255851   1.000000
   10        5.291859   1.000000
   11        5.468573   1.000000
   12        5.523604   1.000000
   13        6.047943   1.000000
   14        6.341873   1.000000
   15        6.453874   1.000000
   16        6.697870   1.000000
   17        6.731827   1.000000
   18        6.810753   1.000000
   19        7.077918   1.000000
   20        7.454505   1.000000
   21        7.672396   1.000000
   22        7.674995   1.000000
   23       12.948093   0.000000
   24       13.869010   0.000000
   25       13.999666   0.000000
   26       14.891115   0.000000
   27       17.551778   0.000000
 
  0.4000000E+00  0.6666667E-01  0.0000000E+00  0.5925926E-03
    1        1.544039   1.000000
    2        2.776993   1.000000
    3        3.482785   1.000000
    4        3.521684   1.000000
    5        3.528223   1.000000
    6        3.792575   1.000000
    7        3.831550   1.000000
    8        4.238526   1.000000
    9        4.967423   1.000000
   10        5.018346   1.000000
   11        5.442622   1.000000
   12        5.532561   1.000000
   13        5.920684   1.000000
   14        5.931342   1.000000
   15        6.458946   1.000000
   16        6.463601   1.000000
   17        6.483976   1.000000
   18        6.598534   1.000000
   19        6.670640   1.000000
   20        7.128076   1.000000
   21        7.672508   1.000000
   22        7.673145   1.000000
   23       13.355467   0.000000
   24       13.802583   0.000000
   25       14.768765   0.000000
   26       15.160874   0.000000
   27       16.983062   0.000000
 
  0.4666667E+00  0.6666667E-01  0.0000000E+00  0.5925926E-03
    1        2.063606   1.000000
    2        2.506134   1.000000
    3        3.663600   1.000000
    4        3.679742   1.000000
    5        3.750227   1.000000
    6        3.992629   1.000000
    7        4.147085   1.000000
    8        4.149334   1.000000
    9        4.523731   1.000000
   10        4.558748   1.000000
   11        5.550449   1.000000
   12        5.650952   1.000000
   13        5.813498   1.000000
   14        6.006022   1.000000
   15        6.126926   1.000000
   16        6.284964   1.000000
   17        6.310232   1.000000
   18        6.319895   1.000000
   19        6.758950   1.000000
   20        6.932444   1.000000
   21        7.672534   1.000000
   22        7.672609   1.000000
   23       13.541211   0.000000
   24       13.658898   0.000000
   25       15.663119   0.000000
   26       15.704554   0.000000
   27       16.352109   0.000000
 
 -0.4666667E+00  0.6666667E-01  0.0000000E+00  0.5925926E-03
    1        2.063606   1.000000
    2        2.506134   1.000000
    3        3.663600   1.000000
    4        3.679742   1.000000
    5        3.750227   1.000000
    6        3.992629   1.000000
    7        4.147085   1.000000
    8        4.149334   1.000000
    9        4.523731   1.000000
   10        4.558748   1.000000
   11        5.550449   1.000000
   12        5.650952   1.000000
   13        5.813498   1.000000
   14        6.006022   1.000000
   15        6.126926   1.000000
   16        6.284964   1.000000
   17        6.310232   1.000000
   18        6.319895   1.000000
   19        6.758950   1.000000
   20        6.932444   1.000000
   21        7.672534   1.000000
   22        7.672609   1.000000
   23       13.541211   0.000000
   24       13.658898   0.000000
   25       15.663118   0.000000
   26       15.704552   0.000000
   27       16.351677   0.000000
 
 -0.4000000E+00  0.6666667E-01  0.0000000E+00  0.5925926E-03
    1        1.544039   1.000000
    2        2.776993   1.000000
    3        3.482785   1.000000
    4        3.521684   1.000000
    5        3.528223   1.000000
    6        3.792575   1.000000
    7        3.831550   1.000000
    8        4.238526   1.000000
    9        4.967423   1.000000
   10        5.018346   1.000000
   11        5.442622   1.000000
   12        5.532561   1.000000
   13        5.920684   1.000000
   14        5.931342   1.000000
   15        6.458946   1.000000
   16        6.463601   1.000000
   17        6.483976   1.000000
   18        6.598534   1.000000
   19        6.670640   1.000000
   20        7.128076   1.000000
   21        7.672508   1.000000
   22        7.673145   1.000000
   23       13.355467   0.000000
   24       13.802583   0.000000
   25       14.768764   0.000000
   26       15.160874   0.000000
   27       16.983000   0.000000
 
 -0.3333333E+00  0.6666667E-01  0.8271806E-24  0.5925926E-03
    1        1.031564   1.000000
    2        2.855533   1.000000
    3        3.232229   1.000000
    4        3.284087   1.000000
    5        3.315418   1.000000
    6        3.489828   1.000000
    7        3.547405   1.000000
    8        4.474981   1.000000
    9        5.255851   1.000000
   10        5.291859   1.000000
   11        5.468573   1.000000
   12        5.523604   1.000000
   13        6.047943   1.000000
   14        6.341873   1.000000
   15        6.453874   1.000000
   16        6.697870   1.000000
   17        6.731827   1.000000
   18        6.810753   1.000000
   19        7.077918   1.000000
   20        7.454505   1.000000
   21        7.672396   1.000000
   22        7.674995   1.000000
   23       12.948093   0.000000
   24       13.869010   0.000000
   25       13.999666   0.000000
   26       14.891114   0.000000
   27       17.551935   0.000000
 
 -0.2666667E+00  0.6666667E-01 -0.8271806E-24  0.5925926E-03
    1        0.575838   1.000000
    2        2.809807   1.000000
    3        2.984538   1.000000
    4        3.019656   1.000000
    5        3.138177   1.000000
    6        3.241808   1.000000
    7        3.292312   1.000000
    8        4.682073   1.000000
    9        5.073077   1.000000
   10        5.102819   1.000000
   11        6.017639   1.000000
   12        6.065834   1.000000
   13        6.215750   1.000000
   14        6.331879   1.000000
   15        6.767220   1.000000
   16        6.953162   1.000000
   17        6.992442   1.000000
   18        7.150961   1.000000
   19        7.313714   1.000000
   20        7.672170   1.000000
   21        7.680217   1.000000
   22        8.157286   1.000000
   23       12.309779   0.000000
   24       12.983845   0.000000
   25       14.242808   0.000000
   26       14.906236   0.000000
   27       18.062668   0.000000
 
 -0.2000000E+00  0.6666667E-01  0.0000000E+00  0.5925926E-03
    1        0.203697   1.000000
    2        2.716458   1.000000
    3        2.768649   1.000000
    4        2.781322   1.000000
    5        2.995186   1.000000
    6        3.048878   1.000000
    7        3.084096   1.000000
    8        4.796510   1.000000
    9        4.923665   1.000000
   10        5.018597   1.000000
   11        6.221040   1.000000
   12        6.388584   1.000000
   13        6.601983   1.000000
   14        6.625667   1.000000
   15        7.110671   1.000000
   16        7.177120   1.000000
   17        7.221512   1.000000
   18        7.461476   1.000000
   19        7.471515   1.000000
   20        7.671861   1.000000
   21        7.694982   1.000000
   22        9.106343   1.000000
   23       11.570653   0.000000
   24       12.136801   0.000000
   25       14.501838   0.000000
   26       15.063156   0.000000
   27       18.548711   0.000000
 
 -0.1333333E+00  0.6666667E-01  0.0000000E+00  0.5925926E-03
    1       -0.070003   1.000000
    2        2.596176   1.000000
    3        2.601002   1.000000
    4        2.624480   1.000000
    5        2.890375   1.000000
    6        2.911113   1.000000
    7        2.933768   1.000000
    8        4.752433   1.000000
    9        4.814946   1.000000
   10        5.094140   1.000000
   11        6.147480   1.000000
   12        6.516932   1.000000
   13        7.146293   1.000000
   14        7.188006   1.000000
   15        7.345310   1.000000
   16        7.345788   1.000000
   17        7.405661   1.000000
   18        7.609509   1.000000
   19        7.671536   1.000000
   20        7.714842   1.000000
   21        7.745771   1.000000
   22       10.137095   0.000000
   23       10.831813   0.000000
   24       11.365624   0.000000
   25       14.732968   0.000000
   26       15.246627   0.000000
   27       17.777832   0.000000
 
 -0.6666667E-01  0.6666667E-01 -0.1240771E-23  0.5925926E-03
    1       -0.236979   1.000000
    2        2.479757   1.000000
    3        2.494706   1.000000
    4        2.560699   1.000000
    5        2.826430   1.000000
    6        2.828481   1.000000
    7        2.843958   1.000000
    8        4.696010   1.000000
    9        4.749146   1.000000
   10        5.173810   1.000000
   11        6.101594   1.000000
   12        6.599105   1.000000
   13        7.447863   1.000000
   14        7.455665   1.000000
   15        7.467063   1.000000
   16        7.474269   1.000000
   17        7.671313   1.000000
   18        7.723388   1.000000
   19        7.767922   1.000000
   20        7.882375   1.000000
   21        7.925790   1.000000
   22       10.194991   0.000000
   23       10.754391   0.000000
   24       11.053179   0.000000
   25       14.892217   0.000000
   26       15.384274   0.000000
   27       16.661333   0.000000
 
  0.4241765E-24  0.1333333E+00 -0.3308722E-23  0.5925926E-03
    1       -0.143091   1.000000
    2        2.484925   1.000000
    3        2.559035   1.000000
    4        2.632504   1.000000
    5        2.853781   1.000000
    6        2.887946   1.000000
    7        2.906938   1.000000
    8        4.601819   1.000000
    9        4.806256   1.000000
   10        5.262274   1.000000
   11        6.032707   1.000000
   12        6.626381   1.000000
   13        7.067739   1.000000
   14        7.347954   1.000000
   15        7.348616   1.000000
   16        7.376375   1.000000
   17        7.477151   1.000000
   18        7.553526   1.000000
   19        7.864917   1.000000
   20        7.945937   1.000000
   21        8.076895   1.000000
   22        9.065214   1.000000
   23       11.050288   0.000000
   24       11.982636   0.000000
   25       14.864547   0.000000
   26       15.887795   0.000000
   27       16.530057   0.000000
 
  0.6666667E-01  0.1333333E+00 -0.2067952E-23  0.5925926E-03
    1       -0.088187   1.000000
    2        2.525266   1.000000
    3        2.586997   1.000000
    4        2.655660   1.000000
    5        2.880537   1.000000
    6        2.908593   1.000000
    7        2.942171   1.000000
    8        4.616916   1.000000
    9        4.823499   1.000000
   10        5.240312   1.000000
   11        6.052005   1.000000
   12        6.600679   1.000000
   13        7.005563   1.000000
   14        7.189879   1.000000
   15        7.318317   1.000000
   16        7.407738   1.000000
   17        7.451431   1.000000
   18        7.553391   1.000000
   19        7.580825   1.000000
   20        7.887005   1.000000
   21        7.972529   1.000000
   22        9.409686   0.995840
   23       11.258314   0.000000
   24       11.553582   0.000000
   25       14.799046   0.000000
   26       16.346591   0.000000
   27       16.472381   0.000000
 
  0.1333333E+00  0.1333333E+00 -0.4135903E-24  0.5925926E-03
    1        0.075223   1.000000
    2        2.643882   1.000000
    3        2.669140   1.000000
    4        2.721134   1.000000
    5        2.960963   1.000000
    6        2.969999   1.000000
    7        3.047161   1.000000
    8        4.654161   1.000000
    9        4.875224   1.000000
   10        5.184673   1.000000
   11        6.107433   1.000000
   12        6.527093   1.000000
   13        6.789023   1.000000
   14        6.933992   1.000000
   15        6.937595   1.000000
   16        7.228959   1.000000
   17        7.383827   1.000000
   18        7.458424   1.000000
   19        7.553043   1.000000
   20        7.719213   1.000000
   21        7.782753   1.000000
   22       10.049506   0.000000
   23       10.638586   0.000000
   24       11.788202   0.000000
   25       14.612469   0.000000
   26       16.312126   0.000000
   27       17.324169   0.000000
 
  0.2000000E+00  0.1333333E+00 -0.1654361E-23  0.5925926E-03
    1        0.342750   1.000000
    2        2.801467   1.000000
    3        2.815825   1.000000
    4        2.832862   1.000000
    5        3.070544   1.000000
    6        3.094884   1.000000
    7        3.217656   1.000000
    8        4.676168   1.000000
    9        4.960662   1.000000
   10        5.138667   1.000000
   11        6.184354   1.000000
   12        6.346614   1.000000
   13        6.408435   1.000000
   14        6.425021   1.000000
   15        6.613674   1.000000
   16        7.080117   1.000000
   17        7.219109   1.000000
   18        7.389879   1.000000
   19        7.465769   1.000000
   20        7.552430   1.000000
   21        7.656337   1.000000
   22        9.639402   0.270959
   23       10.737887   0.000000
   24       12.497777   0.000000
   25       14.335586   0.000000
   26       16.090106   0.000000
   27       17.920341   0.000000
 
  0.2666667E+00  0.1333333E+00 -0.2791735E-23  0.5925926E-03
    1        0.706220   1.000000
    2        2.912336   1.000000
    3        2.979875   1.000000
    4        3.077044   1.000000
    5        3.207471   1.000000
    6        3.282220   1.000000
    7        3.441861   1.000000
    8        4.610265   1.000000
    9        5.075805   1.000000
   10        5.183676   1.000000
   11        5.782476   1.000000
   12        5.939658   1.000000
   13        6.181489   1.000000
   14        6.236062   1.000000
   15        6.407833   1.000000
   16        6.878386   1.000000
   17        7.004896   1.000000
   18        7.155672   1.000000
   19        7.246634   1.000000
   20        7.551604   1.000000
   21        7.596293   1.000000
   22        8.730633   1.000000
   23       11.404488   0.000000
   24       13.303005   0.000000
   25       14.015426   0.000000
   26       15.873767   0.000000
   27       17.438222   0.000000
 
  0.3333333E+00  0.1333333E+00 -0.2171349E-23  0.5925926E-03
    1        1.150991   1.000000
    2        2.959648   1.000000
    3        3.199519   1.000000
    4        3.349432   1.000000
    5        3.376761   1.000000
    6        3.522534   1.000000
    7        3.696074   1.000000
    8        4.449804   1.000000
    9        5.205667   1.000000
   10        5.262489   1.000000
   11        5.336443   1.000000
   12        5.453000   1.000000
   13        5.844339   1.000000
   14        6.063012   1.000000
   15        6.541313   1.000000
   16        6.645278   1.000000
   17        6.756087   1.000000
   18        6.816621   1.000000
   19        7.019126   1.000000
   20        7.550677   1.000000
   21        7.568966   1.000000
   22        8.009064   1.000000
   23       12.000874   0.000000
   24       13.698280   0.000000
   25       14.159698   0.000000
   26       15.741737   0.000000
   27       17.007765   0.000000
 
  0.4000000E+00  0.1333333E+00 -0.6203855E-24  0.5925926E-03
    1        1.651419   1.000000
    2        2.877979   1.000000
    3        3.448062   1.000000
    4        3.572962   1.000000
    5        3.601620   1.000000
    6        3.815046   1.000000
    7        3.943533   1.000000
    8        4.241873   1.000000
    9        4.800646   1.000000
   10        4.983945   1.000000
   11        5.304700   1.000000
   12        5.521197   1.000000
   13        5.559324   1.000000
   14        6.002631   1.000000
   15        6.428045   1.000000
   16        6.471628   1.000000
   17        6.511022   1.000000
   18        6.706549   1.000000
   19        6.723556   1.000000
   20        7.515115   1.000000
   21        7.549891   1.000000
   22        7.556601   1.000000
   23       12.487002   0.000000
   24       13.409468   0.000000
   25       15.040039   0.000000
   26       15.757357   0.000000
   27       16.608479   0.000000
 
  0.4666667E+00  0.1333333E+00 -0.2895132E-23  0.5925926E-03
    1        2.161287   1.000000
    2        2.601858   1.000000
    3        3.676726   1.000000
    4        3.746427   1.000000
    5        3.789047   1.000000
    6        4.015961   1.000000
    7        4.158239   1.000000
    8        4.159685   1.000000
    9        4.421566   1.000000
   10        4.549462   1.000000
   11        5.325571   1.000000
   12        5.354453   1.000000
   13        5.830724   1.000000
   14        6.111943   1.000000
   15        6.138477   1.000000
   16        6.302798   1.000000
   17        6.335243   1.000000
   18        6.373631   1.000000
   19        6.936429   1.000000
   20        7.187146   1.000000
   21        7.549811   1.000000
   22        7.551441   1.000000
   23       12.854246   0.000000
   24       13.141826   0.000000
   25       15.921705   0.000000
   26       15.937008   0.000000
   27       16.240311   0.000000
 
 -0.4666667E+00  0.1333333E+00  0.0000000E+00  0.5925926E-03
    1        2.161287   1.000000
    2        2.601858   1.000000
    3        3.676726   1.000000
    4        3.746427   1.000000
    5        3.789047   1.000000