       N       E                     dE             d eps       ncg     rms          rms(c)
DAV:   1     0.278945660680E+03    0.27895E+03   -0.22783E+04 92061   0.153E+03
DAV:   2    -0.880931642165E+01   -0.28775E+03   -0.28011E+03104832   0.333E+02
DAV:   3    -0.138009914722E+02   -0.49917E+01   -0.49612E+01101934   0.464E+01
DAV:   4    -0.138290822862E+02   -0.28091E-01   -0.28081E-01105147   0.358E+00
DAV:   5    -0.138293317560E+02   -0.24947E-03   -0.24946E-03106884   0.355E-01    0.191E+01
RMM:   6    -0.128444743968E+02    0.98486E+00   -0.23943E+00 91152   0.103E+01    0.121E+01
RMM:   7    -0.127697389832E+02    0.74735E-01   -0.39472E-01 91184   0.403E+00    0.479E+00
RMM:   8    -0.127585907240E+02    0.11148E-01   -0.23974E-02 91180   0.103E+00    0.564E-01
RMM:   9    -0.127584940682E+02    0.96656E-04   -0.19282E-04 91233   0.744E-02    0.471E-02
RMM:  10    -0.127585042711E+02   -0.10203E-04   -0.12844E-05 90399   0.296E-02    0.432E-02
RMM:  11    -0.127585071526E+02   -0.28815E-05   -0.47141E-07 49960   0.424E-03    0.870E-04
RMM:  12    -0.127585070995E+02    0.53108E-07   -0.10033E-07 39861   0.210E-03
   1 F= -.12758507E+02 E0= -.12755222E+02  d E =-.127585E+02
