   4   4   0   0
  0.1928182E+02  0.4510161E-09  0.4168496E-09  0.4154382E-09  0.2000000E-15
  1.000000000000000E-004
  CAR 
 unknown system                          
     18.66890819     -2.09371295  301      7.53642266      1.00000000
     -2.094  0.0000E+00  0.0000E+00
     -2.025  0.0000E+00  0.0000E+00
     -1.955  0.0000E+00  0.0000E+00
     -1.886  0.0000E+00  0.0000E+00
     -1.817  0.0000E+00  0.0000E+00
     -1.748  0.0000E+00  0.0000E+00
     -1.678  0.4753E-20  0.3290E-21
     -1.609  0.1367E-16  0.9464E-18
     -1.540  0.1259E-13  0.8725E-15
     -1.471  0.4663E-11  0.3236E-12
     -1.402  0.7113E-09  0.4955E-10
     -1.332  0.4638E-07  0.3259E-08
     -1.263  0.1354E-05  0.9700E-07
     -1.194  0.1863E-04  0.1386E-05
     -1.125  0.1264E-03  0.1013E-04
     -1.056  0.4445E-03  0.4089E-04
     -0.986  0.9048E-03  0.1035E-03
     -0.917  0.1354E-02  0.1972E-03
     -0.848  0.1792E-02  0.3213E-03
     -0.779  0.2012E-02  0.4605E-03
     -0.710  0.2169E-02  0.6106E-03
     -0.640  0.2611E-02  0.7913E-03
     -0.571  0.2952E-02  0.9956E-03
     -0.502  0.2971E-02  0.1201E-02
     -0.433  0.3072E-02  0.1414E-02
     -0.363  0.3333E-02  0.1645E-02
     -0.294  0.3800E-02  0.1908E-02
     -0.225  0.4210E-02  0.2199E-02
     -0.156  0.4159E-02  0.2487E-02
     -0.087  0.4018E-02  0.2765E-02
     -0.017  0.4352E-02  0.3066E-02
      0.052  0.5035E-02  0.3415E-02
      0.121  0.5313E-02  0.3782E-02
      0.190  0.5249E-02  0.4146E-02
      0.259  0.5712E-02  0.4541E-02
      0.329  0.6198E-02  0.4970E-02
      0.398  0.6012E-02  0.5386E-02
      0.467  0.6027E-02  0.5803E-02
      0.536  0.7030E-02  0.6290E-02
      0.605  0.8075E-02  0.6849E-02
      0.675  0.8255E-02  0.7420E-02
      0.744  0.8491E-02  0.8007E-02
      0.813  0.9230E-02  0.8646E-02
      0.882  0.1020E-01  0.9352E-02
      0.951  0.1187E-01  0.1017E-01
      1.021  0.1479E-01  0.1120E-01
      1.090  0.1741E-01  0.1240E-01
      1.159  0.1821E-01  0.1366E-01
      1.228  0.1872E-01  0.1496E-01
      1.298  0.2069E-01  0.1639E-01
      1.367  0.2450E-01  0.1809E-01
      1.436  0.3197E-01  0.2030E-01
      1.505  0.4178E-01  0.2319E-01
      1.574  0.4950E-01  0.2662E-01
      1.644  0.5402E-01  0.3035E-01
      1.713  0.5673E-01  0.3428E-01
      1.782  0.6018E-01  0.3845E-01
      1.851  0.6588E-01  0.4301E-01
      1.920  0.7201E-01  0.4799E-01
      1.990  0.7443E-01  0.5314E-01
      2.059  0.7333E-01  0.5822E-01
      2.128  0.7314E-01  0.6328E-01
      2.197  0.7391E-01  0.6839E-01
      2.266  0.7410E-01  0.7352E-01
      2.336  0.7469E-01  0.7869E-01
      2.405  0.7468E-01  0.8386E-01
      2.474  0.7339E-01  0.8894E-01
      2.543  0.7317E-01  0.9400E-01
      2.612  0.7730E-01  0.9935E-01
      2.682  0.8636E-01  0.1053E+00
      2.751  0.9889E-01  0.1122E+00
      2.820  0.1120E+00  0.1199E+00
      2.889  0.1221E+00  0.1284E+00
      2.959  0.1265E+00  0.1371E+00
      3.028  0.1227E+00  0.1456E+00
      3.097  0.1111E+00  0.1533E+00
      3.166  0.9715E-01  0.1600E+00
      3.235  0.8557E-01  0.1660E+00
      3.305  0.8175E-01  0.1716E+00
      3.374  0.8490E-01  0.1775E+00
      3.443  0.8695E-01  0.1835E+00
      3.512  0.8587E-01  0.1895E+00
      3.581  0.8222E-01  0.1951E+00
      3.651  0.7691E-01  0.2005E+00
      3.720  0.7273E-01  0.2055E+00
      3.789  0.7149E-01  0.2104E+00
      3.858  0.7469E-01  0.2156E+00
      3.927  0.8222E-01  0.2213E+00
      3.997  0.9228E-01  0.2277E+00
      4.066  0.1024E+00  0.2348E+00
      4.135  0.1089E+00  0.2423E+00
      4.204  0.1088E+00  0.2498E+00
      4.273  0.1063E+00  0.2572E+00
      4.343  0.1067E+00  0.2646E+00
      4.412  0.1072E+00  0.2720E+00
      4.481  0.1065E+00  0.2794E+00
      4.550  0.1095E+00  0.2870E+00
      4.620  0.1126E+00  0.2947E+00
      4.689  0.1099E+00  0.3024E+00
      4.758  0.1053E+00  0.3096E+00
      4.827  0.1018E+00  0.3167E+00
      4.896  0.9962E-01  0.3236E+00
      4.966  0.1003E+00  0.3305E+00
      5.035  0.1051E+00  0.3378E+00
      5.104  0.1099E+00  0.3454E+00
      5.173  0.1077E+00  0.3529E+00
      5.242  0.1031E+00  0.3600E+00
      5.312  0.1026E+00  0.3671E+00
      5.381  0.1023E+00  0.3742E+00
      5.450  0.9844E-01  0.3810E+00
      5.519  0.9282E-01  0.3874E+00
      5.588  0.9156E-01  0.3938E+00
      5.658  0.9313E-01  0.4002E+00
      5.727  0.8674E-01  0.4062E+00
      5.796  0.7039E-01  0.4111E+00
      5.865  0.5439E-01  0.4148E+00
      5.935  0.4281E-01  0.4178E+00
      6.004  0.3321E-01  0.4201E+00
      6.073  0.2510E-01  0.4218E+00
      6.142  0.1904E-01  0.4232E+00
      6.211  0.1518E-01  0.4242E+00
      6.281  0.1302E-01  0.4251E+00
      6.350  0.1201E-01  0.4259E+00
      6.419  0.1151E-01  0.4267E+00
      6.488  0.1180E-01  0.4276E+00
      6.557  0.1304E-01  0.4285E+00
      6.627  0.1284E-01  0.4293E+00
      6.696  0.1076E-01  0.4301E+00
      6.765  0.9156E-02  0.4307E+00
      6.834  0.9762E-02  0.4314E+00
      6.903  0.1253E-01  0.4323E+00
      6.973  0.1502E-01  0.4333E+00
      7.042  0.1453E-01  0.4343E+00
      7.111  0.1209E-01  0.4351E+00
      7.180  0.1035E-01  0.4359E+00
      7.249  0.9662E-02  0.4365E+00
      7.319  0.9712E-02  0.4372E+00
      7.388  0.1078E-01  0.4380E+00
      7.457  0.1270E-01  0.4388E+00
      7.526  0.1469E-01  0.4398E+00
      7.596  0.1476E-01  0.4409E+00
      7.665  0.1280E-01  0.4418E+00
      7.734  0.1099E-01  0.4425E+00
      7.803  0.1005E-01  0.4432E+00
      7.872  0.9911E-02  0.4439E+00
      7.942  0.1025E-01  0.4446E+00
      8.011  0.1125E-01  0.4454E+00
      8.080  0.1314E-01  0.4463E+00
      8.149  0.1447E-01  0.4473E+00
      8.218  0.1398E-01  0.4483E+00
      8.288  0.1257E-01  0.4491E+00
      8.357  0.1177E-01  0.4499E+00
      8.426  0.1173E-01  0.4508E+00
      8.495  0.1136E-01  0.4515E+00
      8.564  0.1073E-01  0.4523E+00
      8.634  0.1071E-01  0.4530E+00
      8.703  0.1140E-01  0.4538E+00
      8.772  0.1244E-01  0.4547E+00
      8.841  0.1305E-01  0.4556E+00
      8.910  0.1256E-01  0.4565E+00
      8.980  0.1190E-01  0.4573E+00
      9.049  0.1233E-01  0.4581E+00
      9.118  0.1276E-01  0.4590E+00
      9.187  0.1215E-01  0.4599E+00
      9.257  0.1215E-01  0.4607E+00
      9.326  0.1389E-01  0.4617E+00
      9.395  0.1555E-01  0.4627E+00
      9.464  0.1584E-01  0.4638E+00
      9.533  0.1551E-01  0.4649E+00
      9.603  0.1502E-01  0.4659E+00
      9.672  0.1423E-01  0.4669E+00
      9.741  0.1318E-01  0.4678E+00
      9.810  0.1217E-01  0.4687E+00
      9.879  0.1178E-01  0.4695E+00
      9.949  0.1225E-01  0.4703E+00
     10.018  0.1298E-01  0.4712E+00
     10.087  0.1282E-01  0.4721E+00
     10.156  0.1209E-01  0.4730E+00
     10.225  0.1152E-01  0.4738E+00
     10.295  0.1106E-01  0.4745E+00
     10.364  0.1098E-01  0.4753E+00
     10.433  0.1130E-01  0.4761E+00
     10.502  0.1122E-01  0.4768E+00
     10.571  0.1075E-01  0.4776E+00
     10.641  0.1033E-01  0.4783E+00
     10.710  0.9849E-02  0.4790E+00
     10.779  0.9370E-02  0.4796E+00
     10.848  0.9413E-02  0.4803E+00
     10.918  0.1000E-01  0.4810E+00
     10.987  0.1127E-01  0.4818E+00
     11.056  0.1331E-01  0.4827E+00
     11.125  0.1472E-01  0.4837E+00
     11.194  0.1426E-01  0.4847E+00
     11.264  0.1284E-01  0.4856E+00
     11.333  0.1266E-01  0.4865E+00
     11.402  0.1360E-01  0.4874E+00
     11.471  0.1370E-01  0.4883E+00
     11.540  0.1336E-01  0.4893E+00
     11.610  0.1322E-01  0.4902E+00
     11.679  0.1271E-01  0.4911E+00
     11.748  0.1152E-01  0.4919E+00
     11.817  0.1056E-01  0.4926E+00
     11.886  0.1132E-01  0.4934E+00
     11.956  0.1285E-01  0.4943E+00
     12.025  0.1304E-01  0.4952E+00
     12.094  0.1303E-01  0.4961E+00
     12.163  0.1321E-01  0.4970E+00
     12.232  0.1237E-01  0.4978E+00
     12.302  0.1183E-01  0.4987E+00
     12.371  0.1280E-01  0.4995E+00
     12.440  0.1441E-01  0.5005E+00
     12.509  0.1496E-01  0.5016E+00
     12.579  0.1433E-01  0.5026E+00
     12.648  0.1415E-01  0.5035E+00
     12.717  0.1431E-01  0.5045E+00
     12.786  0.1375E-01  0.5055E+00
     12.855  0.1381E-01  0.5064E+00
     12.925  0.1515E-01  0.5075E+00
     12.994  0.1601E-01  0.5086E+00
     13.063  0.1573E-01  0.5097E+00
     13.132  0.1524E-01  0.5107E+00
     13.201  0.1481E-01  0.5118E+00
     13.271  0.1462E-01  0.5128E+00
     13.340  0.1461E-01  0.5138E+00
     13.409  0.1404E-01  0.5148E+00
     13.478  0.1271E-01  0.5156E+00
     13.547  0.1182E-01  0.5165E+00
     13.617  0.1175E-01  0.5173E+00
     13.686  0.1219E-01  0.5181E+00
     13.755  0.1247E-01  0.5190E+00
     13.824  0.1205E-01  0.5198E+00
     13.894  0.1098E-01  0.5206E+00
     13.963  0.9833E-02  0.5213E+00
     14.032  0.9713E-02  0.5219E+00
     14.101  0.1030E-01  0.5226E+00
     14.170  0.1049E-01  0.5234E+00
     14.240  0.1058E-01  0.5241E+00
     14.309  0.1073E-01  0.5248E+00
     14.378  0.1116E-01  0.5256E+00
     14.447  0.1224E-01  0.5265E+00
     14.516  0.1303E-01  0.5274E+00
     14.586  0.1245E-01  0.5282E+00
     14.655  0.1131E-01  0.5290E+00
     14.724  0.1070E-01  0.5297E+00
     14.793  0.1007E-01  0.5304E+00
     14.862  0.9663E-02  0.5311E+00
     14.932  0.1024E-01  0.5318E+00
     15.001  0.1079E-01  0.5326E+00
     15.070  0.1074E-01  0.5333E+00
     15.139  0.1043E-01  0.5340E+00
     15.208  0.9498E-02  0.5347E+00
     15.278  0.8338E-02  0.5353E+00
     15.347  0.7331E-02  0.5358E+00
     15.416  0.6823E-02  0.5362E+00
     15.485  0.7074E-02  0.5367E+00
     15.555  0.6969E-02  0.5372E+00
     15.624  0.5975E-02  0.5376E+00
     15.693  0.5025E-02  0.5380E+00
     15.762  0.4385E-02  0.5383E+00
     15.831  0.3822E-02  0.5385E+00
     15.901  0.3261E-02  0.5388E+00
     15.970  0.2771E-02  0.5390E+00
     16.039  0.2342E-02  0.5391E+00
     16.108  0.1609E-02  0.5392E+00
     16.177  0.1079E-02  0.5393E+00
     16.247  0.1018E-02  0.5394E+00
     16.316  0.1121E-02  0.5395E+00
     16.385  0.1094E-02  0.5395E+00
     16.454  0.8628E-03  0.5396E+00
     16.523  0.6769E-03  0.5396E+00
     16.593  0.6324E-03  0.5397E+00
     16.662  0.5484E-03  0.5397E+00
     16.731  0.4448E-03  0.5398E+00
     16.800  0.4467E-03  0.5398E+00
     16.869  0.5654E-03  0.5398E+00
     16.939  0.6800E-03  0.5399E+00
     17.008  0.6182E-03  0.5399E+00
     17.077  0.3803E-03  0.5399E+00
     17.146  0.1424E-03  0.5400E+00
     17.216  0.2797E-04  0.5400E+00
     17.285  0.2661E-05  0.5400E+00
     17.354  0.2457E-05  0.5400E+00
     17.423  0.2187E-04  0.5400E+00
     17.492  0.8449E-04  0.5400E+00
     17.562  0.1485E-03  0.5400E+00
     17.631  0.1619E-03  0.5400E+00
     17.700  0.1505E-03  0.5400E+00
     17.769  0.8854E-04  0.5400E+00
     17.838  0.2390E-04  0.5400E+00
     17.908  0.2688E-05  0.5400E+00
     17.977  0.1227E-06  0.5400E+00
     18.046  0.2241E-08  0.5400E+00
     18.115  0.1624E-10  0.5400E+00
     18.184  0.4635E-13  0.5400E+00
     18.254  0.5179E-16  0.5400E+00
     18.323  0.0000E+00  0.5400E+00
     18.392  0.0000E+00  0.5400E+00
     18.461  0.0000E+00  0.5400E+00
     18.530  0.0000E+00  0.5400E+00
     18.600  0.0000E+00  0.5400E+00
     18.669  0.0000E+00  0.5400E+00
