       N       E                     dE             d eps       ncg     rms          rms(c)
DAV:   1     0.268798816469E+03    0.26880E+03   -0.22380E+04 91800   0.151E+03
DAV:   2    -0.867116490837E+01   -0.27747E+03   -0.26910E+03106218   0.319E+02
DAV:   3    -0.136915398938E+02   -0.50204E+01   -0.49844E+01102060   0.449E+01
DAV:   4    -0.137229861258E+02   -0.31446E-01   -0.31432E-01104013   0.371E+00
DAV:   5    -0.137233130638E+02   -0.32694E-03   -0.32692E-03107640   0.390E-01    0.132E+01
RMM:   6    -0.127233689729E+02    0.99994E+00   -0.27947E+00 91152   0.108E+01    0.896E+00
RMM:   7    -0.126787502804E+02    0.44619E-01   -0.23280E-01 91216   0.293E+00    0.472E+00
RMM:   8    -0.126723845297E+02    0.63658E-02   -0.95884E-03 91244   0.632E-01    0.485E-01
RMM:   9    -0.126722354668E+02    0.14906E-03   -0.45119E-04 91215   0.123E-01    0.366E-02
RMM:  10    -0.126722571953E+02   -0.21729E-04   -0.27153E-05 91272   0.376E-02    0.196E-02
RMM:  11    -0.126722582838E+02   -0.10885E-05   -0.12442E-06 51124   0.631E-03    0.164E-03
RMM:  12    -0.126722580437E+02    0.24011E-06   -0.20140E-07 48514   0.296E-03
   1 F= -.12672258E+02 E0= -.12668466E+02  d E =-.126723E+02
