unknown system                          
           1
     4.497119    0.342737   -0.000000
     0.342737    4.154382    0.000000
    -0.000000    0.000000    4.154382
   Au
   4
Direct configuration=     1
   1.00000000  0.00000000  0.00000000
   0.00000000  0.50000000  0.50000000
   0.50000000  1.00000000  0.50000000
   0.50000000  0.50000000  1.00000000
