   2   2   0   0
  0.7989630E+02  0.2471982E-09  0.2464857E-09  0.3028239E-08  0.5000000E-15
  1.000000000000000E-004
  CAR 
 unknown system                          
     17.96363111    -24.56990027  301     -3.56896915      1.00000000
    -24.570  0.0000E+00  0.0000E+00
    -24.428  0.0000E+00  0.0000E+00
    -24.286  0.0000E+00  0.0000E+00
    -24.145  0.0000E+00  0.0000E+00
    -24.003  0.0000E+00  0.0000E+00
    -23.861  0.0000E+00  0.0000E+00
    -23.719  0.0000E+00  0.0000E+00
    -23.577  0.0000E+00  0.0000E+00
    -23.436  0.0000E+00  0.0000E+00
    -23.294  0.0000E+00  0.0000E+00
    -23.152  0.0000E+00  0.0000E+00
    -23.010  0.0000E+00  0.0000E+00
    -22.869  0.5202E-13  0.7375E-14
    -22.727  0.1050E-04  0.1488E-05
    -22.585  0.2191E-02  0.3122E-03
    -22.443  0.1995E-02  0.5949E-03
    -22.301  0.4781E-02  0.1273E-02
    -22.160  0.2223E-02  0.1588E-02
    -22.018  0.2517E-02  0.1945E-02
    -21.876  0.3285E-02  0.2410E-02
    -21.734  0.4557E-02  0.3057E-02
    -21.593  0.2584E-02  0.3423E-02
    -21.451  0.2008E-02  0.3708E-02
    -21.309  0.3233E-02  0.4166E-02
    -21.167  0.2432E-02  0.4511E-02
    -21.025  0.5338E-02  0.5268E-02
    -20.884  0.3693E-02  0.5791E-02
    -20.742  0.8564E-03  0.5913E-02
    -20.600  0.5297E-02  0.6664E-02
    -20.458  0.6621E-04  0.6673E-02
    -20.317  0.3706E-02  0.7199E-02
    -20.175  0.4336E-02  0.7813E-02
    -20.033  0.3958E-02  0.8375E-02
    -19.891  0.3607E-02  0.8886E-02
    -19.749  0.1865E-02  0.9150E-02
    -19.608  0.3971E-02  0.9713E-02
    -19.466  0.3976E-02  0.1028E-01
    -19.324  0.1962E-02  0.1056E-01
    -19.182  0.3105E-05  0.1056E-01
    -19.041  0.4787E-02  0.1123E-01
    -18.899  0.6965E-02  0.1222E-01
    -18.757  0.3730E-02  0.1275E-01
    -18.615  0.1300E-02  0.1294E-01
    -18.473  0.2814E-02  0.1333E-01
    -18.332  0.4190E-02  0.1393E-01
    -18.190  0.3640E-02  0.1444E-01
    -18.048  0.3152E-02  0.1489E-01
    -17.906  0.2549E-02  0.1525E-01
    -17.765  0.4449E-03  0.1532E-01
    -17.623  0.7113E-02  0.1632E-01
    -17.481  0.7722E-02  0.1742E-01
    -17.339  0.4869E-02  0.1811E-01
    -17.197  0.1580E-02  0.1833E-01
    -17.056  0.1865E-03  0.1836E-01
    -16.914  0.5078E-02  0.1908E-01
    -16.772  0.6133E-03  0.1917E-01
    -16.630  0.5164E-06  0.1917E-01
    -16.489  0.1383E-02  0.1936E-01
    -16.347  0.2400E-02  0.1970E-01
    -16.205  0.5748E-02  0.2052E-01
    -16.063  0.2370E-02  0.2085E-01
    -15.921  0.3744E-02  0.2138E-01
    -15.780  0.1907E-02  0.2166E-01
    -15.638  0.2925E-02  0.2207E-01
    -15.496  0.3934E-02  0.2263E-01
    -15.354  0.8678E-02  0.2386E-01
    -15.213  0.3144E-02  0.2430E-01
    -15.071  0.2946E-02  0.2472E-01
    -14.929  0.2956E-03  0.2476E-01
    -14.787  0.8594E-02  0.2598E-01
    -14.645  0.9114E-03  0.2611E-01
    -14.504  0.8137E-05  0.2611E-01
    -14.362  0.5495E-02  0.2689E-01
    -14.220  0.4567E-02  0.2754E-01
    -14.078  0.1821E-02  0.2780E-01
    -13.937  0.3780E-02  0.2833E-01
    -13.795  0.1948E-02  0.2861E-01
    -13.653  0.1087E-02  0.2876E-01
    -13.511  0.3184E-02  0.2921E-01
    -13.369  0.4319E-02  0.2983E-01
    -13.228  0.5014E-02  0.3054E-01
    -13.086  0.7864E-02  0.3165E-01
    -12.944  0.4351E-03  0.3171E-01
    -12.802  0.2052E-02  0.3201E-01
    -12.661  0.3564E-02  0.3251E-01
    -12.519  0.3751E-02  0.3304E-01
    -12.377  0.1672E-02  0.3328E-01
    -12.235  0.3707E-02  0.3381E-01
    -12.093  0.8660E-02  0.3503E-01
    -11.952  0.3659E-02  0.3555E-01
    -11.810  0.2823E-02  0.3595E-01
    -11.668  0.6782E-02  0.3691E-01
    -11.526  0.2813E-03  0.3695E-01
    -11.385  0.4876E-02  0.3765E-01
    -11.243  0.3407E-02  0.3813E-01
    -11.101  0.7027E-02  0.3912E-01
    -10.959  0.3574E-02  0.3963E-01
    -10.817  0.2595E-02  0.4000E-01
    -10.676  0.5270E-02  0.4075E-01
    -10.534  0.1022E-01  0.4220E-01
    -10.392  0.7001E-02  0.4319E-01
    -10.250  0.5391E-02  0.4395E-01
    -10.108  0.1464E-01  0.4603E-01
     -9.967  0.6219E-02  0.4691E-01
     -9.825  0.8091E-02  0.4806E-01
     -9.683  0.9789E-02  0.4944E-01
     -9.541  0.8254E-02  0.5061E-01
     -9.400  0.1503E-01  0.5275E-01
     -9.258  0.7342E-02  0.5379E-01
     -9.116  0.4776E-02  0.5446E-01
     -8.974  0.7814E-02  0.5557E-01
     -8.832  0.1148E-01  0.5720E-01
     -8.691  0.8550E-02  0.5841E-01
     -8.549  0.7857E-02  0.5953E-01
     -8.407  0.6501E-02  0.6045E-01
     -8.265  0.2657E-02  0.6082E-01
     -8.124  0.4577E-02  0.6147E-01
     -7.982  0.7275E-02  0.6251E-01
     -7.840  0.5027E-02  0.6322E-01
     -7.698  0.1044E-01  0.6470E-01
     -7.556  0.7873E-02  0.6581E-01
     -7.415  0.1439E-02  0.6602E-01
     -7.273  0.7675E-02  0.6711E-01
     -7.131  0.6532E-02  0.6803E-01
     -6.989  0.4207E-02  0.6863E-01
     -6.848  0.3048E-02  0.6906E-01
     -6.706  0.5070E-02  0.6978E-01
     -6.564  0.7584E-02  0.7085E-01
     -6.422  0.7661E-02  0.7194E-01
     -6.280  0.5972E-02  0.7279E-01
     -6.139  0.3830E-02  0.7333E-01
     -5.997  0.2504E-02  0.7369E-01
     -5.855  0.4454E-02  0.7432E-01
     -5.713  0.5381E-02  0.7508E-01
     -5.572  0.2749E-02  0.7547E-01
     -5.430  0.2707E-02  0.7585E-01
     -5.288  0.2854E-02  0.7626E-01
     -5.146  0.1321E-01  0.7813E-01
     -5.004  0.1433E-02  0.7833E-01
     -4.863  0.7193E-08  0.7833E-01
     -4.721  0.4832E-03  0.7840E-01
     -4.579  0.3416E-02  0.7889E-01
     -4.437  0.1640E-02  0.7912E-01
     -4.296  0.3428E-03  0.7917E-01
     -4.154  0.1698E-02  0.7941E-01
     -4.012  0.2575E-03  0.7944E-01
     -3.870  0.1050E-02  0.7959E-01
     -3.728  0.2864E-02  0.8000E-01
     -3.587  0.5230E-05  0.8000E-01
     -3.445  0.9952E-14  0.8000E-01
     -3.303  0.0000E+00  0.8000E-01
     -3.161  0.0000E+00  0.8000E-01
     -3.020  0.0000E+00  0.8000E-01
     -2.878  0.0000E+00  0.8000E-01
     -2.736  0.3592E-11  0.8000E-01
     -2.594  0.6483E-04  0.8001E-01
     -2.452  0.3640E-02  0.8053E-01
     -2.311  0.2263E-03  0.8056E-01
     -2.169  0.1824E-02  0.8082E-01
     -2.027  0.1221E-03  0.8083E-01
     -1.885  0.1345E-02  0.8102E-01
     -1.744  0.4515E-02  0.8166E-01
     -1.602  0.1098E-03  0.8168E-01
     -1.460  0.6383E-02  0.8258E-01
     -1.318  0.7428E-02  0.8364E-01
     -1.176  0.6170E-02  0.8451E-01
     -1.035  0.3460E-02  0.8500E-01
     -0.893  0.3928E-02  0.8556E-01
     -0.751  0.3866E-02  0.8611E-01
     -0.609  0.2020E-04  0.8611E-01
     -0.468  0.2180E-02  0.8642E-01
     -0.326  0.5654E-02  0.8722E-01
     -0.184  0.3612E-05  0.8722E-01
     -0.042  0.2711E-02  0.8761E-01
      0.100  0.4420E-02  0.8823E-01
      0.241  0.4182E-02  0.8883E-01
      0.383  0.4477E-02  0.8946E-01
      0.525  0.7190E-02  0.9048E-01
      0.667  0.4292E-02  0.9109E-01
      0.808  0.1672E-02  0.9133E-01
      0.950  0.5847E-02  0.9216E-01
      1.092  0.5020E-02  0.9287E-01
      1.234  0.1141E-01  0.9448E-01
      1.376  0.1015E-01  0.9592E-01
      1.517  0.8218E-02  0.9709E-01
      1.659  0.1446E-01  0.9914E-01
      1.801  0.7714E-02  0.1002E+00
      1.943  0.1236E-01  0.1020E+00
      2.084  0.1345E-01  0.1039E+00
      2.226  0.1658E-01  0.1062E+00
      2.368  0.2005E-01  0.1091E+00
      2.510  0.1156E-01  0.1107E+00
      2.652  0.1556E-01  0.1129E+00
      2.793  0.1390E-01  0.1149E+00
      2.935  0.1868E-01  0.1176E+00
      3.077  0.1852E-01  0.1202E+00
      3.219  0.1477E-01  0.1223E+00
      3.360  0.1734E-01  0.1247E+00
      3.502  0.1475E-01  0.1268E+00
      3.644  0.2486E-01  0.1303E+00
      3.786  0.1741E-01  0.1328E+00
      3.928  0.2515E-01  0.1364E+00
      4.069  0.1783E-01  0.1389E+00
      4.211  0.1949E-01  0.1417E+00
      4.353  0.2905E-01  0.1458E+00
      4.495  0.2584E-01  0.1495E+00
      4.636  0.2870E-01  0.1535E+00
      4.778  0.2795E-01  0.1575E+00
      4.920  0.2114E-01  0.1605E+00
      5.062  0.3689E-01  0.1657E+00
      5.204  0.3224E-01  0.1703E+00
      5.345  0.4306E-01  0.1764E+00
      5.487  0.2023E-01  0.1793E+00
      5.629  0.3224E-01  0.1838E+00
      5.771  0.2828E-01  0.1878E+00
      5.912  0.3773E-01  0.1932E+00
      6.054  0.3490E-01  0.1981E+00
      6.196  0.2744E-01  0.2020E+00
      6.338  0.4277E-01  0.2081E+00
      6.480  0.1365E-01  0.2100E+00
      6.621  0.2837E-01  0.2140E+00
      6.763  0.3689E-01  0.2193E+00
      6.905  0.2677E-01  0.2231E+00
      7.047  0.3036E-01  0.2274E+00
      7.188  0.2884E-01  0.2315E+00
      7.330  0.3237E-01  0.2361E+00
      7.472  0.4062E-01  0.2418E+00
      7.614  0.3098E-01  0.2462E+00
      7.756  0.4222E-01  0.2522E+00
      7.897  0.3244E-01  0.2568E+00
      8.039  0.3971E-01  0.2624E+00
      8.181  0.3051E-01  0.2667E+00
      8.323  0.3782E-01  0.2721E+00
      8.464  0.2620E-01  0.2758E+00
      8.606  0.2660E-01  0.2796E+00
      8.748  0.3329E-01  0.2843E+00
      8.890  0.3461E-01  0.2892E+00
      9.032  0.3755E-01  0.2945E+00
      9.173  0.4739E-01  0.3013E+00
      9.315  0.3808E-01  0.3067E+00
      9.457  0.2818E-01  0.3107E+00
      9.599  0.2974E-01  0.3149E+00
      9.740  0.4416E-01  0.3211E+00
      9.882  0.3929E-01  0.3267E+00
     10.024  0.3981E-01  0.3323E+00
     10.166  0.5228E-01  0.3398E+00
     10.308  0.3220E-01  0.3443E+00
     10.449  0.3864E-01  0.3498E+00
     10.591  0.2442E-01  0.3533E+00
     10.733  0.4094E-01  0.3591E+00
     10.875  0.3611E-01  0.3642E+00
     11.016  0.4408E-01  0.3704E+00
     11.158  0.5710E-01  0.3785E+00
     11.300  0.3103E-01  0.3829E+00
     11.442  0.3848E-01  0.3884E+00
     11.584  0.3397E-01  0.3932E+00
     11.725  0.3466E-01  0.3981E+00
     11.867  0.3048E-01  0.4024E+00
     12.009  0.3576E-01  0.4075E+00
     12.151  0.4737E-01  0.4142E+00
     12.292  0.2319E-01  0.4175E+00
     12.434  0.3606E-01  0.4226E+00
     12.576  0.4325E-01  0.4288E+00
     12.718  0.5076E-01  0.4360E+00
     12.860  0.2477E-01  0.4395E+00
     13.001  0.3322E-01  0.4442E+00
     13.143  0.2593E-01  0.4479E+00
     13.285  0.2344E-01  0.4512E+00
     13.427  0.3548E-01  0.4562E+00
     13.568  0.1813E-01  0.4588E+00
     13.710  0.2549E-01  0.4624E+00
     13.852  0.2054E-01  0.4653E+00
     13.994  0.2477E-01  0.4688E+00
     14.136  0.1829E-01  0.4714E+00
     14.277  0.1007E-01  0.4728E+00
     14.419  0.1029E-01  0.4743E+00
     14.561  0.3842E-02  0.4748E+00
     14.703  0.8777E-02  0.4761E+00
     14.845  0.4614E-02  0.4767E+00
     14.986  0.5144E-02  0.4775E+00
     15.128  0.3596E-02  0.4780E+00
     15.270  0.2524E-02  0.4783E+00
     15.412  0.1843E-02  0.4786E+00
     15.553  0.2043E-02  0.4789E+00
     15.695  0.5505E-02  0.4797E+00
     15.837  0.3931E-03  0.4797E+00
     15.979  0.1418E-03  0.4797E+00
     16.121  0.1807E-02  0.4800E+00
     16.262  0.1050E-04  0.4800E+00
     16.404  0.5202E-13  0.4800E+00
     16.546  0.0000E+00  0.4800E+00
     16.688  0.0000E+00  0.4800E+00
     16.829  0.0000E+00  0.4800E+00
     16.971  0.0000E+00  0.4800E+00
     17.113  0.0000E+00  0.4800E+00
     17.255  0.0000E+00  0.4800E+00
     17.397  0.0000E+00  0.4800E+00
     17.538  0.0000E+00  0.4800E+00
     17.680  0.0000E+00  0.4800E+00
     17.822  0.0000E+00  0.4800E+00
     17.964  0.0000E+00  0.4800E+00
