       N       E                     dE             d eps       ncg     rms          rms(c)
RMM:   1     0.102527115983E+03    0.10253E+03   -0.14878E+03  1728   0.228E+02
RMM:   2     0.508442759056E+02   -0.51683E+02   -0.27339E+02  1728   0.438E+01
RMM:   3     0.100753604473E+02   -0.40769E+02   -0.20547E+02  1728   0.363E+01
RMM:   4    -0.136472475670E+02   -0.23723E+02   -0.13669E+02  1728   0.345E+01
RMM:   5    -0.183849964113E+02   -0.47377E+01   -0.37290E+01  1728   0.214E+01
RMM:   6    -0.194077103030E+02   -0.10227E+01   -0.84023E+00  1728   0.109E+01
RMM:   7    -0.196385942547E+02   -0.23088E+00   -0.19308E+00  1728   0.543E+00
RMM:   8    -0.197000827156E+02   -0.61488E-01   -0.50429E-01  1728   0.279E+00
RMM:   9    -0.197232701454E+02   -0.23187E-01   -0.20222E-01  3475   0.150E+00
RMM:  10    -0.197270152254E+02   -0.37451E-02   -0.31402E-02  3555   0.503E-01
RMM:  11    -0.197271666915E+02   -0.15147E-03   -0.11671E-03  3485   0.977E-02
RMM:  12    -0.197271925278E+02   -0.25836E-04   -0.20815E-04  3523   0.376E-02    0.911E+00
RMM:  13    -0.188420168715E+02    0.88518E+00   -0.43991E-01  3456   0.186E+00    0.594E+00
RMM:  14    -0.185089468695E+02    0.33307E+00   -0.92765E-01  3456   0.263E+00    0.117E+00
RMM:  15    -0.184883325675E+02    0.20614E-01   -0.25040E-02  3468   0.565E-01    0.124E-01
RMM:  16    -0.184867713350E+02    0.15612E-02   -0.42759E-04  3472   0.793E-02    0.825E-02
RMM:  17    -0.184854489653E+02    0.13224E-02   -0.57131E-04  3457   0.600E-02    0.610E-02
RMM:  18    -0.184853945023E+02    0.54463E-04   -0.16661E-04  3456   0.481E-02    0.579E-02
RMM:  19    -0.184858641023E+02   -0.46960E-03   -0.14976E-04  3456   0.315E-02    0.160E-02
RMM:  20    -0.184861519057E+02   -0.28780E-03   -0.60072E-06  3469   0.667E-03    0.196E-02
RMM:  21    -0.184867125893E+02   -0.56068E-03   -0.45445E-05  3456   0.141E-02    0.623E-03
RMM:  22    -0.184868070305E+02   -0.94441E-04   -0.27670E-06  3358   0.319E-03    0.258E-03
RMM:  23    -0.184868267325E+02   -0.19702E-04   -0.45675E-07  3456   0.181E-03    0.782E-04
RMM:  24    -0.184868410906E+02   -0.14358E-04   -0.13849E-07  3240   0.693E-04    0.383E-04
RMM:  25    -0.184868430222E+02   -0.19316E-05   -0.28006E-09  3124   0.173E-04    0.313E-04
RMM:  26    -0.184868453046E+02   -0.22824E-05   -0.99108E-09  3137   0.263E-04    0.321E-04
RMM:  27    -0.184868464650E+02   -0.11605E-05   -0.75395E-09  3124   0.262E-04    0.412E-04
RMM:  28    -0.184868464973E+02   -0.32268E-07   -0.27264E-10  2894   0.919E-05
   1 F= -.18595121E+02 E0= -.18595121E+02  d E =-.185951E+02
       N       E                     dE             d eps       ncg     rms          rms(c)
RMM:   1    -0.184865725627E+02    0.27390E-03   -0.38297E-02  3456   0.788E-01    0.463E-02
RMM:   2    -0.184865685714E+02    0.39913E-05   -0.14858E-04  3456   0.383E-02    0.332E-02
RMM:   3    -0.184865578273E+02    0.10744E-04   -0.20639E-05  3460   0.137E-02    0.104E-02
RMM:   4    -0.184865577291E+02    0.98270E-07   -0.16229E-06  3470   0.379E-03    0.293E-03
RMM:   5    -0.184865577316E+02   -0.25520E-08   -0.86001E-08  3202   0.968E-04
   2 F= -.18594829E+02 E0= -.18594829E+02  d E =0.292047E-03
       N       E                     dE             d eps       ncg     rms          rms(c)
RMM:   1    -0.184868741865E+02   -0.31646E-03   -0.25113E-02  3456   0.638E-01    0.374E-02
RMM:   2    -0.184868713604E+02    0.28261E-05   -0.94150E-05  3456   0.308E-02    0.269E-02
RMM:   3    -0.184868642891E+02    0.70713E-05   -0.13408E-05  3462   0.110E-02    0.837E-03
RMM:   4    -0.184868642200E+02    0.69175E-07   -0.10473E-06  3470   0.304E-03    0.236E-03
RMM:   5    -0.184868642172E+02    0.27294E-08   -0.50718E-08  3103   0.763E-04
   3 F= -.18595138E+02 E0= -.18595138E+02  d E =-.171735E-04
