 vasp.5.4.4.18Apr17-6-g9f103f2a35 (build Jan 14 2019 14:48:31) complex          
  
 executed on             LinuxIFC date 2019.09.10  15:54:32
 running on   24 total cores
 distrk:  each k-point on   24 cores,    1 groups
 distr:  one band on NCORES_PER_BAND=   1 cores,   24 groups


--------------------------------------------------------------------------------------------------------


 INCAR:
 POTCAR:    PAW_PBE C_h 06Feb2004                 

 ----------------------------------------------------------------------------- 
|                                                                             |
|           W    W    AA    RRRRR   N    N  II  N    N   GGGG   !!!           |
|           W    W   A  A   R    R  NN   N  II  NN   N  G    G  !!!           |
|           W    W  A    A  R    R  N N  N  II  N N  N  G       !!!           |
|           W WW W  AAAAAA  RRRRR   N  N N  II  N  N N  G  GGG   !            |
|           WW  WW  A    A  R   R   N   NN  II  N   NN  G    G                |
|           W    W  A    A  R    R  N    N  II  N    N   GGGG   !!!           |
|                                                                             |
|      For optimal performance we recommend to set                            |
|        NCORE= 4 - approx SQRT( number of cores)                             |
|      NCORE specifies how many cores store one orbital (NPAR=cpu/NCORE).     |
|      This setting can  greatly improve the performance of VASP for DFT.     |
|      The default,   NCORE=1            might be grossly inefficient         |
|      on modern multi-core architectures or massively parallel machines.     |
|      Do your own testing !!!!                                               |
|      Unfortunately you need to use the default for GW and RPA calculations. |
|      (for HF NCORE is supported but not extensively tested yet)             |
|                                                                             |
 ----------------------------------------------------------------------------- 

 POTCAR:    PAW_PBE C_h 06Feb2004                 
   VRHFIN =C: s2p2                                                              
   LEXCH  = PE                                                                  
   EATOM  =   147.1560 eV,   10.8157 Ry                                         
                                                                                
   TITEL  = PAW_PBE C_h 06Feb2004                                               
   LULTRA =        F    use ultrasoft PP ?                                      
   IUNSCR =        1    unscreen: 0-lin 1-nonlin 2-no                           
   RPACOR =    0.800    partial core radius                                     
   POMASS =   12.011; ZVAL   =    4.000    mass and valenz                      
   RCORE  =    1.100    outmost cutoff radius                                   
   RWIGS  =    1.630; RWIGS  =    0.863    wigner-seitz radius (au A)           
   ENMAX  =  700.000; ENMIN  =  500.000 eV                                      
   ICORE  =        2    local potential                                         
   LCOR   =        T    correct aug charges                                     
   LPAW   =        T    paw PP                                                  
   EAUG   =  946.768                                                            
   DEXC   =    0.000                                                            
   RMAX   =    1.128    core radius for proj-oper                               
   RAUG   =    1.300    factor for augmentation sphere                          
   RDEP   =    1.162    radius for radial grids                                 
   RDEPT  =    1.088    core radius for aug-charge                              
                                                                                
   Atomic configuration                                                         
    4 entries                                                                   
     n  l   j            E        occ.                                          
     1  0  0.50      -273.3789   2.0000                                         
     2  0  0.50       -13.7508   2.0000                                         
     2  1  0.50        -5.2854   2.0000                                         
     3  2  1.50        -5.4423   0.0000                                         
   Description                                                                  
     l       E           TYP  RCUT    TYP  RCUT                                 
     0    -13.7508458     23  1.100                                             
     0     -8.2022199     23  1.100                                             
     1     -5.2854383     23  1.100                                             
     1      1.1560700     23  1.100                                             
     2     -5.4423304      7  1.100                                             
  local pseudopotential read in
  partial core-charges read in
  partial kinetic energy density read in
  atomic valenz-charges read in
  non local Contribution for L=           0  read in
    real space projection operators read in
  non local Contribution for L=           0  read in
    real space projection operators read in
  non local Contribution for L=           1  read in
    real space projection operators read in
  non local Contribution for L=           1  read in
    real space projection operators read in
    PAW grid and wavefunctions read in
 
   number of l-projection  operators is LMAX  =           4
   number of lm-projection operators is LMMAX =           8
 
  PAW_PBE C_h 06Feb2004                 :
 energy of atom  1       EATOM= -147.1560
 kinetic energy error for atom=    0.0044 (will be added to EATOM!!)
 
 
 POSCAR: graphene                                
  positions in direct lattice
  velocities in cartesian coordinates
 exchange correlation table for  LEXCH =        8
   RHO(1)=    0.500       N(1)  =     2000
   RHO(2)=  100.500       N(2)  =     4000

 VTST: version 3.1, (03/28/14)

 CHAIN: initializing optimizer
 
 OPT: Using VASP Conjugate-Gradient optimizer
 CHAIN: Read ICHAIN            0
 
 POSCAR: graphene                                
  positions in direct lattice
  velocities in cartesian coordinates
 


--------------------------------------------------------------------------------------------------------


 ion  position               nearest neighbor table
   1  0.000  1.000  0.500-   2 1.42   2 1.43   2 1.43
   2  0.667  0.333  0.500-   1 1.42   1 1.43   1 1.43
 
  Warning from LATTYP: Monoclinic adjustement (A1->A3, A2->A1, A3->A2)!
  Warning from LATTYP: Got some problem with cell dimensions!
  Tried to take original basis but could not verify dimensions!
  LATTYP: Found a simple monoclinic cell.
 ALAT       =     4.2692512863
 B/A-ratio  =     7.0931392208
 C/A-ratio  =     1.5281563142
 COS(beta)  =    -0.9818903162
  
  Lattice vectors:
  
 A1 = (  -3.6990578779,  -2.1315434224,   0.0000000000)
 A2 = (   0.0000000000,   0.0000000000, -30.2823937426)
 A3 = (   6.1674717015,   2.1274293994,   0.0000000000)


Analysis of symmetry for initial positions (statically):
=====================================================================
 Subroutine PRICEL returns:
 Original cell was already a primitive cell.
 

 Routine SETGRP: Setting up the symmetry group for a 
 simple monoclinic supercell.


 Subroutine GETGRP returns: Found  4 space group operations
 (whereof  2 operations were pure point group operations)
 out of a pool of  4 trial point group operations.


The static configuration has the point symmetry C_1h.
 The point group associated with its full space group is C_2h.


Analysis of symmetry for dynamics (positions and initial velocities):
=====================================================================
 Subroutine PRICEL returns:
 Original cell was already a primitive cell.
 

 Routine SETGRP: Setting up the symmetry group for a 
 simple monoclinic supercell.


 Subroutine GETGRP returns: Found  4 space group operations
 (whereof  2 operations were pure point group operations)
 out of a pool of  4 trial point group operations.


The dynamic configuration has the point symmetry C_1h.
 The point group associated with its full space group is C_2h.


 Subroutine INISYM returns: Found  4 space group operations
 (whereof  2 operations are pure point group operations),
 and found     1 'primitive' translations

 
 
 KPOINTS: K-Mesh Generated with KP-Resolved Value 

Automatic generation of k-mesh.
Space group operators:
 irot       det(A)        alpha          n_x          n_y          n_z        tau_x        tau_y        tau_z
    1     1.000000     0.000001     1.000000     0.000000     0.000000     0.000000     0.000000     0.000000
    2    -1.000000   180.000000     0.000000     0.000000     1.000000     0.000000     0.000000     0.000000
    3    -1.000000     0.000001     1.000000     0.000000     0.000000    -0.333330    -0.666670     0.000000
    4     1.000000   180.000000     0.000000     0.000000     1.000000    -0.333330    -0.666670     0.000000
 
 Subroutine IBZKPT returns following result:
 ===========================================
 
 Found     72 irreducible k-points:
 
 Following reciprocal coordinates:
            Coordinates               Weight
  0.041667  0.041667  0.000000      2.000000
  0.125000  0.041667  0.000000      2.000000
  0.208333  0.041667  0.000000      2.000000
  0.291667  0.041667  0.000000      2.000000
  0.375000  0.041667  0.000000      2.000000
  0.458333  0.041667  0.000000      2.000000
 -0.458333  0.041667  0.000000      2.000000
 -0.375000  0.041667  0.000000      2.000000
 -0.291667  0.041667  0.000000      2.000000
 -0.208333  0.041667  0.000000      2.000000
 -0.125000  0.041667  0.000000      2.000000
 -0.041667  0.041667  0.000000      2.000000
  0.041667  0.125000  0.000000      2.000000
  0.125000  0.125000  0.000000      2.000000
  0.208333  0.125000  0.000000      2.000000
  0.291667  0.125000  0.000000      2.000000
  0.375000  0.125000  0.000000      2.000000
  0.458333  0.125000  0.000000      2.000000
 -0.458333  0.125000  0.000000      2.000000
 -0.375000  0.125000  0.000000      2.000000
 -0.291667  0.125000  0.000000      2.000000
 -0.208333  0.125000  0.000000      2.000000
 -0.125000  0.125000  0.000000      2.000000
 -0.041667  0.125000  0.000000      2.000000
  0.041667  0.208333  0.000000      2.000000
  0.125000  0.208333  0.000000      2.000000
  0.208333  0.208333  0.000000      2.000000
  0.291667  0.208333  0.000000      2.000000
  0.375000  0.208333  0.000000      2.000000
  0.458333  0.208333  0.000000      2.000000
 -0.458333  0.208333  0.000000      2.000000
 -0.375000  0.208333  0.000000      2.000000
 -0.291667  0.208333  0.000000      2.000000
 -0.208333  0.208333  0.000000      2.000000
 -0.125000  0.208333  0.000000      2.000000
 -0.041667  0.208333  0.000000      2.000000
  0.041667  0.291667  0.000000      2.000000
  0.125000  0.291667  0.000000      2.000000
  0.208333  0.291667  0.000000      2.000000
  0.291667  0.291667  0.000000      2.000000
  0.375000  0.291667  0.000000      2.000000
  0.458333  0.291667  0.000000      2.000000
 -0.458333  0.291667  0.000000      2.000000
 -0.375000  0.291667  0.000000      2.000000
 -0.291667  0.291667  0.000000      2.000000
 -0.208333  0.291667  0.000000      2.000000
 -0.125000  0.291667  0.000000      2.000000
 -0.041667  0.291667  0.000000      2.000000
  0.041667  0.375000  0.000000      2.000000
  0.125000  0.375000  0.000000      2.000000
  0.208333  0.375000  0.000000      2.000000
  0.291667  0.375000  0.000000      2.000000
  0.375000  0.375000  0.000000      2.000000
  0.458333  0.375000  0.000000      2.000000
 -0.458333  0.375000  0.000000      2.000000
 -0.375000  0.375000  0.000000      2.000000
 -0.291667  0.375000  0.000000      2.000000
 -0.208333  0.375000  0.000000      2.000000
 -0.125000  0.375000  0.000000      2.000000
 -0.041667  0.375000  0.000000      2.000000
  0.041667  0.458333  0.000000      2.000000
  0.125000  0.458333  0.000000      2.000000
  0.208333  0.458333  0.000000      2.000000
  0.291667  0.458333  0.000000      2.000000
  0.375000  0.458333  0.000000      2.000000
  0.458333  0.458333  0.000000      2.000000
 -0.458333  0.458333  0.000000      2.000000
 -0.375000  0.458333  0.000000      2.000000
 -0.291667  0.458333  0.000000      2.000000
 -0.208333  0.458333  0.000000      2.000000
 -0.125000  0.458333  0.000000      2.000000
 -0.041667  0.458333  0.000000      2.000000
 
 Following cartesian coordinates:
            Coordinates               Weight
  0.083050  0.000138  0.000000      2.000000
  0.166019 -0.047672  0.000000      2.000000
  0.248989 -0.095482  0.000000      2.000000
  0.331958 -0.143292  0.000000      2.000000
  0.414928 -0.191102  0.000000      2.000000
  0.497898 -0.238912  0.000000      2.000000
 -0.414768  0.286999  0.000000      2.000000
 -0.331798  0.239189  0.000000      2.000000
 -0.248829  0.191379  0.000000      2.000000
 -0.165859  0.143569  0.000000      2.000000
 -0.082890  0.095759  0.000000      2.000000
  0.000080  0.047949  0.000000      2.000000
  0.166179  0.048225  0.000000      2.000000
  0.249149  0.000415  0.000000      2.000000
  0.332118 -0.047395  0.000000      2.000000
  0.415088 -0.095205  0.000000      2.000000
  0.498057 -0.143015  0.000000      2.000000
  0.581027 -0.190825  0.000000      2.000000
 -0.331639  0.335086  0.000000      2.000000
 -0.248669  0.287276  0.000000      2.000000
 -0.165699  0.239466  0.000000      2.000000
 -0.082730  0.191656  0.000000      2.000000
  0.000240  0.143846  0.000000      2.000000
  0.083209  0.096035  0.000000      2.000000
  0.249308  0.096312  0.000000      2.000000
  0.332278  0.048502  0.000000      2.000000
  0.415248  0.000692  0.000000      2.000000
  0.498217 -0.047118  0.000000      2.000000
  0.581187 -0.094928  0.000000      2.000000
  0.664156 -0.142738  0.000000      2.000000
 -0.248509  0.383173  0.000000      2.000000
 -0.165540  0.335363  0.000000      2.000000
 -0.082570  0.287553  0.000000      2.000000
  0.000400  0.239743  0.000000      2.000000
  0.083369  0.191933  0.000000      2.000000
  0.166339  0.144122  0.000000      2.000000
  0.332438  0.144399  0.000000      2.000000
  0.415407  0.096589  0.000000      2.000000
  0.498377  0.048779  0.000000      2.000000
  0.581347  0.000969  0.000000      2.000000
  0.664316 -0.046841  0.000000      2.000000
  0.747286 -0.094651  0.000000      2.000000
 -0.165380  0.431260  0.000000      2.000000
 -0.082410  0.383450  0.000000      2.000000
  0.000559  0.335640  0.000000      2.000000
  0.083529  0.287830  0.000000      2.000000
  0.166499  0.240020  0.000000      2.000000
  0.249468  0.192209  0.000000      2.000000
  0.415567  0.192486  0.000000      2.000000
  0.498537  0.144676  0.000000      2.000000
  0.581506  0.096866  0.000000      2.000000
  0.664476  0.049056  0.000000      2.000000
  0.747446  0.001246  0.000000      2.000000
  0.830415 -0.046564  0.000000      2.000000
 -0.082250  0.479347  0.000000      2.000000
  0.000719  0.431537  0.000000      2.000000
  0.083689  0.383727  0.000000      2.000000
  0.166658  0.335917  0.000000      2.000000
  0.249628  0.288106  0.000000      2.000000
  0.332598  0.240296  0.000000      2.000000
  0.498697  0.240573  0.000000      2.000000
  0.581666  0.192763  0.000000      2.000000
  0.664636  0.144953  0.000000      2.000000
  0.747605  0.097143  0.000000      2.000000
  0.830575  0.049333  0.000000      2.000000
  0.913545  0.001523  0.000000      2.000000
  0.000879  0.527434  0.000000      2.000000
  0.083849  0.479624  0.000000      2.000000
  0.166818  0.431814  0.000000      2.000000
  0.249788  0.384004  0.000000      2.000000
  0.332757  0.336193  0.000000      2.000000
  0.415727  0.288383  0.000000      2.000000
 


--------------------------------------------------------------------------------------------------------




 Dimension of arrays:
   k-points           NKPTS =     72   k-points in BZ     NKDIM =     72   number of bands    NBANDS=     24
   number of dos      NEDOS =    301   number of ions     NIONS =      2
   non local maximal  LDIM  =      4   non local SUM 2l+1 LMDIM =      8
   total plane-waves  NPLWV = 169344
   max r-space proj   IRMAX =      1   max aug-charges    IRDMAX=   2710
   dimension x,y,z NGX =    24 NGY =   24 NGZ =  294
   dimension x,y,z NGXF=    36 NGYF=   32 NGZF=  420
   support grid    NGXF=    36 NGYF=   32 NGZF=  420
   ions per type =               2
   NGX,Y,Z   is equivalent  to a cutoff of  16.14, 16.19, 16.14 a.u.
   NGXF,Y,Z  is equivalent  to a cutoff of  24.21, 21.58, 23.06 a.u.

 SYSTEM =  unknown system                          
 POSCAR =  graphene                                

 Startparameter for this run:
   NWRITE =      2    write-flag & timer
   PREC   = high      normal or accurate (medium, high low for compatibility)
   ISTART =      0    job   : 0-new  1-cont  2-samecut
   ICHARG =      2    charge: 1-file 2-atom 10-const
   ISPIN  =      1    spin polarized calculation?
   LNONCOLLINEAR =      F non collinear calculations
   LSORBIT =      F    spin-orbit coupling
   INIWAV =      1    electr: 0-lowe 1-rand  2-diag
   LASPH  =      F    aspherical Exc in radial PAW
   METAGGA=      F    non-selfconsistent MetaGGA calc.

 Electronic Relaxation 1
   ENCUT  =  875.0 eV  64.31 Ry    8.02 a.u.   5.96  5.95 73.04*2*pi/ulx,y,z
   ENINI  =  875.0     initial cutoff
   ENAUG  =  946.8 eV  augmentation charge cutoff
   NELM   =     40;   NELMIN=  2; NELMDL=  0     # of ELM steps 
   EDIFF  = 0.1E-06   stopping-criterion for ELM
   LREAL  =      F    real-space projection
   NLSPLINE    = F    spline interpolate recip. space projectors
   LCOMPAT=      F    compatible to vasp.4.4
   GGA_COMPAT  = T    GGA compatible to vasp.4.4-vasp.4.6
   LMAXPAW     = -100 max onsite density
   LMAXMIX     =    2 max onsite mixed and CHGCAR
   VOSKOWN=      0    Vosko Wilk Nusair interpolation
   ROPT   =    0.00000
 Ionic relaxation
   EDIFFG = -.1E-01   stopping-criterion for IOM
   NSW    =    100    number of steps for IOM
   NBLOCK =      1;   KBLOCK =    100    inner block; outer block 
   IBRION =      2    ionic relax: 0-MD 1-quasi-New 2-CG
   NFREE  =      1    steps in history (QN), initial steepest desc. (CG)
   ISIF   =      2    stress and relaxation
   IWAVPR =     11    prediction:  0-non 1-charg 2-wave 3-comb
   ISYM   =      2    0-nonsym 1-usesym 2-fastsym
   LCORR  =      T    Harris-Foulkes like correction to forces

   POTIM  = 0.5000    time-step for ionic-motion
   TEIN   =    0.0    initial temperature
   TEBEG  =    0.0;   TEEND  =   0.0 temperature during run
   SMASS  =  -3.00    Nose mass-parameter (am)
   estimated Nose-frequenzy (Omega)   =  0.10E-29 period in steps =****** mass=  -0.140E-27a.u.
   SCALEE = 1.0000    scale energy and forces
   NPACO  =    256;   APACO  = 16.0  distance and # of slots for P.C.
   PSTRESS=    0.0 pullay stress

  Mass of Ions in am
   POMASS =  12.01
  Ionic Valenz
   ZVAL   =   4.00
  Atomic Wigner-Seitz radii
   RWIGS  =  -1.00
  virtual crystal weights 
   VCA    =   1.00
   NELECT =       8.0000    total number of electrons
   NUPDOWN=      -1.0000    fix difference up-down

 DOS related values:
   EMIN   =  10.00;   EMAX   =-10.00  energy-range for DOS
   EFERMI =   0.00
   ISMEAR =     0;   SIGMA  =   0.05  broadening in eV -4-tet -1-fermi 0-gaus

 Electronic relaxation 2 (details)
   IALGO  =     48    algorithm
   LDIAG  =      T    sub-space diagonalisation (order eigenvalues)
   LSUBROT=      F    optimize rotation matrix (better conditioning)
   TURBO    =      0    0=normal 1=particle mesh
   IRESTART =      0    0=no restart 2=restart with 2 vectors
   NREBOOT  =      0    no. of reboots
   NMIN     =      0    reboot dimension
   EREF     =   0.00    reference energy to select bands
   IMIX   =      4    mixing-type and parameters
     AMIX     =   0.40;   BMIX     =  1.00
     AMIX_MAG =   1.60;   BMIX_MAG =  1.00
     AMIN     =   0.10
     WC   =   100.;   INIMIX=   1;  MIXPRE=   1;  MAXMIX= -45

 Intra band minimization:
   WEIMIN = 0.0010     energy-eigenvalue tresh-hold
   EBREAK =  0.10E-08  absolut break condition
   DEPER  =   0.30     relativ break condition  

   TIME   =   0.40     timestep for ELM

  volume/ion in A,a.u.               =      79.90       539.17
  Fermi-wavevector in a.u.,A,eV,Ry     =   0.603373  1.140210  4.953325  0.364059
  Thomas-Fermi vector in A             =   1.656330
 
 Write flags
   LWAVE        =      F    write WAVECAR
   LDOWNSAMPLE  =      F    k-point downsampling of WAVECAR
   LCHARG       =      F    write CHGCAR
   LVTOT        =      F    write LOCPOT, total local potential
   LVHAR        =      F    write LOCPOT, Hartree potential only
   LELF         =      F    write electronic localiz. function (ELF)
   LORBIT       =      0    0 simple, 1 ext, 2 COOP (PROOUT), +10 PAW based schemes


 Dipole corrections
   LMONO  =      F    monopole corrections only (constant potential shift)
   LDIPOL =      F    correct potential (dipole corrections)
   IDIPOL =      0    1-x, 2-y, 3-z, 4-all directions 
   EPSILON=  1.0000000 bulk dielectric constant

 Exchange correlation treatment:
   GGA     =    --    GGA type
   LEXCH   =     8    internal setting for exchange type
   VOSKOWN=      0    Vosko Wilk Nusair interpolation
   LHFCALC =     F    Hartree Fock is set to
   LHFONE  =     F    Hartree Fock one center treatment
   AEXX    =    0.0000 exact exchange contribution

 Linear response parameters
   LEPSILON=     F    determine dielectric tensor
   LRPA    =     F    only Hartree local field effects (RPA)
   LNABLA  =     F    use nabla operator in PAW spheres
   LVEL    =     F    velocity operator in full k-point grid
   LINTERFAST=   F  fast interpolation
   KINTER  =     0    interpolate to denser k-point grid
   CSHIFT  =0.1000    complex shift for real part using Kramers Kronig
   OMEGAMAX=  -1.0    maximum frequency
   DEG_THRESHOLD= 0.2000000E-02 threshold for treating states as degnerate
   RTIME   =   -0.100 relaxation time in fs
  (WPLASMAI=    0.000 imaginary part of plasma frequency in eV, 0.658/RTIME)
   DFIELD  = 0.0000000 0.0000000 0.0000000 field for delta impulse in time
 
 Orbital magnetization related:
   ORBITALMAG=     F  switch on orbital magnetization
   LCHIMAG   =     F  perturbation theory with respect to B field
   DQ        =  0.001000  dq finite difference perturbation B field
   LLRAUG    =     F  two centre corrections for induced B field



--------------------------------------------------------------------------------------------------------


 conjugate gradient relaxation of ions
 charge density and potential will be updated during run
 non-spin polarized calculation
 RMM-DIIS sequential band-by-band
 perform sub-space diagonalisation
    before iterative eigenvector-optimisation
 modified Broyden-mixing scheme, WC =      100.0
 initial mixing is a Kerker type mixing with AMIX =  0.4000 and BMIX =      1.0000
 Hartree-type preconditioning will be used
 using additional bands           20
 reciprocal scheme for non local part
 use partial core corrections
 calculate Harris-corrections to forces 
   (improved forces if not selfconsistent)
 use gradient corrections 
 use of overlap-Matrix (Vanderbilt PP)
 Gauss-broadening in eV      SIGMA  =   0.05


--------------------------------------------------------------------------------------------------------


  energy-cutoff  :      875.00
  volume of cell :      159.79
      direct lattice vectors                 reciprocal lattice vectors
     1.237769769 -2.139771468  0.000000000     0.404729757 -0.233220112  0.000000000
     1.230644054  2.135657445  0.000000000     0.405509408  0.234570511  0.000000000
     0.000000000  0.000000000 30.282393743     0.000000000  0.000000000  0.033022489

  length of vectors
     2.471982188  2.464856489 30.282393743     0.467116470  0.468466866  0.033022489


 
 k-points in units of 2pi/SCALE and weight: K-Mesh Generated with KP-Resolved Value 
   0.08304951  0.00013842  0.00000000       0.014
   0.16601911 -0.04767171  0.00000000       0.014
   0.24898871 -0.09548183  0.00000000       0.014
   0.33195832 -0.14329195  0.00000000       0.014
   0.41492792 -0.19110208  0.00000000       0.014
   0.49789752 -0.23891220  0.00000000       0.014
  -0.41476809  0.28699915  0.00000000       0.014
  -0.33179849  0.23918903  0.00000000       0.014
  -0.24882889  0.19137891  0.00000000       0.014
  -0.16585929  0.14356878  0.00000000       0.014
  -0.08288969  0.09575866  0.00000000       0.014
   0.00007991  0.04794854  0.00000000       0.014
   0.16617894  0.04822537  0.00000000       0.014
   0.24914854  0.00041525  0.00000000       0.014
   0.33211814 -0.04739488  0.00000000       0.014
   0.41508774 -0.09520500  0.00000000       0.014
   0.49805734 -0.14301512  0.00000000       0.014
   0.58102694 -0.19082524  0.00000000       0.014
  -0.33163866  0.33508611  0.00000000       0.014
  -0.24866906  0.28727599  0.00000000       0.014
  -0.16569946  0.23946586  0.00000000       0.014
  -0.08272986  0.19165574  0.00000000       0.014
   0.00023974  0.14384562  0.00000000       0.014
   0.08320934  0.09603549  0.00000000       0.014
   0.24930837  0.09631233  0.00000000       0.014
   0.33227797  0.04850220  0.00000000       0.014
   0.41524757  0.00069208  0.00000000       0.014
   0.49821717 -0.04711804  0.00000000       0.014
   0.58118677 -0.09492817  0.00000000       0.014
   0.66415637 -0.14273829  0.00000000       0.014
  -0.24850923  0.38317306  0.00000000       0.014
  -0.16553963  0.33536294  0.00000000       0.014
  -0.08257003  0.28755282  0.00000000       0.014
   0.00039957  0.23974269  0.00000000       0.014
   0.08336917  0.19193257  0.00000000       0.014
   0.16633877  0.14412245  0.00000000       0.014
   0.33243780  0.14439928  0.00000000       0.014
   0.41540740  0.09658916  0.00000000       0.014
   0.49837700  0.04877903  0.00000000       0.014
   0.58134660  0.00096891  0.00000000       0.014
   0.66431620 -0.04684121  0.00000000       0.014
   0.74728580 -0.09465134  0.00000000       0.014
  -0.16537980  0.43126002  0.00000000       0.014
  -0.08241020  0.38344990  0.00000000       0.014
   0.00055940  0.33563977  0.00000000       0.014
   0.08352900  0.28782965  0.00000000       0.014
   0.16649860  0.24001953  0.00000000       0.014
   0.24946820  0.19220940  0.00000000       0.014
   0.41556723  0.19248623  0.00000000       0.014
   0.49853683  0.14467611  0.00000000       0.014
   0.58150643  0.09686599  0.00000000       0.014
   0.66447603  0.04905587  0.00000000       0.014
   0.74744563  0.00124574  0.00000000       0.014
   0.83041523 -0.04656438  0.00000000       0.014
  -0.08225037  0.47934697  0.00000000       0.014
   0.00071923  0.43153685  0.00000000       0.014
   0.08368883  0.38372673  0.00000000       0.014
   0.16665843  0.33591660  0.00000000       0.014
   0.24962803  0.28810648  0.00000000       0.014
   0.33259763  0.24029636  0.00000000       0.014
   0.49869666  0.24057319  0.00000000       0.014
   0.58166626  0.19276307  0.00000000       0.014
   0.66463586  0.14495294  0.00000000       0.014
   0.74760546  0.09714282  0.00000000       0.014
   0.83057506  0.04933270  0.00000000       0.014
   0.91354466  0.00152257  0.00000000       0.014
   0.00087906  0.52743393  0.00000000       0.014
   0.08384866  0.47962380  0.00000000       0.014
   0.16681826  0.43181368  0.00000000       0.014
   0.24978786  0.38400356  0.00000000       0.014
   0.33275746  0.33619344  0.00000000       0.014
   0.41572706  0.28838331  0.00000000       0.014
 
 k-points in reciprocal lattice and weights: K-Mesh Generated with KP-Resolved Value 
   0.04166667  0.04166667  0.00000000       0.014
   0.12500000  0.04166667  0.00000000       0.014
   0.20833333  0.04166667  0.00000000       0.014
   0.29166667  0.04166667  0.00000000       0.014
   0.37500000  0.04166667  0.00000000       0.014
   0.45833333  0.04166667  0.00000000       0.014
  -0.45833333  0.04166667  0.00000000       0.014
  -0.37500000  0.04166667  0.00000000       0.014
  -0.29166667  0.04166667  0.00000000       0.014
  -0.20833333  0.04166667  0.00000000       0.014
  -0.12500000  0.04166667  0.00000000       0.014
  -0.04166667  0.04166667  0.00000000       0.014
   0.04166667  0.12500000  0.00000000       0.014
   0.12500000  0.12500000  0.00000000       0.014
   0.20833333  0.12500000  0.00000000       0.014
   0.29166667  0.12500000  0.00000000       0.014
   0.37500000  0.12500000  0.00000000       0.014
   0.45833333  0.12500000  0.00000000       0.014
  -0.45833333  0.12500000  0.00000000       0.014
  -0.37500000  0.12500000  0.00000000       0.014
  -0.29166667  0.12500000  0.00000000       0.014
  -0.20833333  0.12500000  0.00000000       0.014
  -0.12500000  0.12500000  0.00000000       0.014
  -0.04166667  0.12500000  0.00000000       0.014
   0.04166667  0.20833333  0.00000000       0.014
   0.12500000  0.20833333  0.00000000       0.014
   0.20833333  0.20833333  0.00000000       0.014
   0.29166667  0.20833333  0.00000000       0.014
   0.37500000  0.20833333  0.00000000       0.014
   0.45833333  0.20833333  0.00000000       0.014
  -0.45833333  0.20833333  0.00000000       0.014
  -0.37500000  0.20833333  0.00000000       0.014
  -0.29166667  0.20833333  0.00000000       0.014
  -0.20833333  0.20833333  0.00000000       0.014
  -0.12500000  0.20833333  0.00000000       0.014
  -0.04166667  0.20833333  0.00000000       0.014
   0.04166667  0.29166667  0.00000000       0.014
   0.12500000  0.29166667  0.00000000       0.014
   0.20833333  0.29166667  0.00000000       0.014
   0.29166667  0.29166667  0.00000000       0.014
   0.37500000  0.29166667  0.00000000       0.014
   0.45833333  0.29166667  0.00000000       0.014
  -0.45833333  0.29166667  0.00000000       0.014
  -0.37500000  0.29166667  0.00000000       0.014
  -0.29166667  0.29166667  0.00000000       0.014
  -0.20833333  0.29166667  0.00000000       0.014
  -0.12500000  0.29166667  0.00000000       0.014
  -0.04166667  0.29166667  0.00000000       0.014
   0.04166667  0.37500000  0.00000000       0.014
   0.12500000  0.37500000  0.00000000       0.014
   0.20833333  0.37500000  0.00000000       0.014
   0.29166667  0.37500000  0.00000000       0.014
   0.37500000  0.37500000  0.00000000       0.014
   0.45833333  0.37500000  0.00000000       0.014
  -0.45833333  0.37500000  0.00000000       0.014
  -0.37500000  0.37500000  0.00000000       0.014
  -0.29166667  0.37500000  0.00000000       0.014
  -0.20833333  0.37500000  0.00000000       0.014
  -0.12500000  0.37500000  0.00000000       0.014
  -0.04166667  0.37500000  0.00000000       0.014
   0.04166667  0.45833333  0.00000000       0.014
   0.12500000  0.45833333  0.00000000       0.014
   0.20833333  0.45833333  0.00000000       0.014
   0.29166667  0.45833333  0.00000000       0.014
   0.37500000  0.45833333  0.00000000       0.014
   0.45833333  0.45833333  0.00000000       0.014
  -0.45833333  0.45833333  0.00000000       0.014
  -0.37500000  0.45833333  0.00000000       0.014
  -0.29166667  0.45833333  0.00000000       0.014
  -0.20833333  0.45833333  0.00000000       0.014
  -0.12500000  0.45833333  0.00000000       0.014
  -0.04166667  0.45833333  0.00000000       0.014
 
 position of ions in fractional coordinates (direct lattice) 
   0.00000262  0.99999738  0.50000000
   0.66666738  0.33333262  0.50000000
 
 position of ions in cartesian coordinates  (Angst):
   1.23064407  2.13564624 15.14119687
   1.23539454 -0.71463154 15.14119687
 


--------------------------------------------------------------------------------------------------------


 k-point  1 :   0.0417 0.0417 0.0000  plane waves:    9285
 k-point  2 :   0.1250 0.0417 0.0000  plane waves:    9300
 k-point  3 :   0.2083 0.0417 0.0000  plane waves:    9339
 k-point  4 :   0.2917 0.0417 0.0000  plane waves:    9379
 k-point  5 :   0.3750 0.0417 0.0000  plane waves:    9376
 k-point  6 :   0.4583 0.0417 0.0000  plane waves:    9422
 k-point  7 :  -0.4583 0.0417 0.0000  plane waves:    9404
 k-point  8 :  -0.3750 0.0417 0.0000  plane waves:    9376
 k-point  9 :  -0.2917 0.0417 0.0000  plane waves:    9361
 k-point 10 :  -0.2083 0.0417 0.0000  plane waves:    9335
 k-point 11 :  -0.1250 0.0417 0.0000  plane waves:    9293
 k-point 12 :  -0.0417 0.0417 0.0000  plane waves:    9262
 k-point 13 :   0.0417 0.1250 0.0000  plane waves:    9294
 k-point 14 :   0.1250 0.1250 0.0000  plane waves:    9345
 k-point 15 :   0.2083 0.1250 0.0000  plane waves:    9380
 k-point 16 :   0.2917 0.1250 0.0000  plane waves:    9415
 k-point 17 :   0.3750 0.1250 0.0000  plane waves:    9435
 k-point 18 :   0.4583 0.1250 0.0000  plane waves:    9438
 k-point 19 :  -0.4583 0.1250 0.0000  plane waves:    9414
 k-point 20 :  -0.3750 0.1250 0.0000  plane waves:    9405
 k-point 21 :  -0.2917 0.1250 0.0000  plane waves:    9364
 k-point 22 :  -0.2083 0.1250 0.0000  plane waves:    9319
 k-point 23 :  -0.1250 0.1250 0.0000  plane waves:    9287
 k-point 24 :  -0.0417 0.1250 0.0000  plane waves:    9294
 k-point 25 :   0.0417 0.2083 0.0000  plane waves:    9336
 k-point 26 :   0.1250 0.2083 0.0000  plane waves:    9384
 k-point 27 :   0.2083 0.2083 0.0000  plane waves:    9418
 k-point 28 :   0.2917 0.2083 0.0000  plane waves:    9432
 k-point 29 :   0.3750 0.2083 0.0000  plane waves:    9474
 k-point 30 :   0.4583 0.2083 0.0000  plane waves:    9457
 k-point 31 :  -0.4583 0.2083 0.0000  plane waves:    9416
 k-point 32 :  -0.3750 0.2083 0.0000  plane waves:    9402
 k-point 33 :  -0.2917 0.2083 0.0000  plane waves:    9361
 k-point 34 :  -0.2083 0.2083 0.0000  plane waves:    9348
 k-point 35 :  -0.1250 0.2083 0.0000  plane waves:    9328
 k-point 36 :  -0.0417 0.2083 0.0000  plane waves:    9326
 k-point 37 :   0.0417 0.2917 0.0000  plane waves:    9377
 k-point 38 :   0.1250 0.2917 0.0000  plane waves:    9419
 k-point 39 :   0.2083 0.2917 0.0000  plane waves:    9423
 k-point 40 :   0.2917 0.2917 0.0000  plane waves:    9460
 k-point 41 :   0.3750 0.2917 0.0000  plane waves:    9476
 k-point 42 :   0.4583 0.2917 0.0000  plane waves:    9451
 k-point 43 :  -0.4583 0.2917 0.0000  plane waves:    9415
 k-point 44 :  -0.3750 0.2917 0.0000  plane waves:    9386
 k-point 45 :  -0.2917 0.2917 0.0000  plane waves:    9363
 k-point 46 :  -0.2083 0.2917 0.0000  plane waves:    9374
 k-point 47 :  -0.1250 0.2917 0.0000  plane waves:    9374
 k-point 48 :  -0.0417 0.2917 0.0000  plane waves:    9355
 k-point 49 :   0.0417 0.3750 0.0000  plane waves:    9366
 k-point 50 :   0.1250 0.3750 0.0000  plane waves:    9430
 k-point 51 :   0.2083 0.3750 0.0000  plane waves:    9462
 k-point 52 :   0.2917 0.3750 0.0000  plane waves:    9463
 k-point 53 :   0.3750 0.3750 0.0000  plane waves:    9480
 k-point 54 :   0.4583 0.3750 0.0000  plane waves:    9449
 k-point 55 :  -0.4583 0.3750 0.0000  plane waves:    9393
 k-point 56 :  -0.3750 0.3750 0.0000  plane waves:    9376
 k-point 57 :  -0.2917 0.3750 0.0000  plane waves:    9392
 k-point 58 :  -0.2083 0.3750 0.0000  plane waves:    9404
 k-point 59 :  -0.1250 0.3750 0.0000  plane waves:    9405
 k-point 60 :  -0.0417 0.3750 0.0000  plane waves:    9369
 k-point 61 :   0.0417 0.4583 0.0000  plane waves:    9408
 k-point 62 :   0.1250 0.4583 0.0000  plane waves:    9436
 k-point 63 :   0.2083 0.4583 0.0000  plane waves:    9448
 k-point 64 :   0.2917 0.4583 0.0000  plane waves:    9447
 k-point 65 :   0.3750 0.4583 0.0000  plane waves:    9461
 k-point 66 :   0.4583 0.4583 0.0000  plane waves:    9422
 k-point 67 :  -0.4583 0.4583 0.0000  plane waves:    9412
 k-point 68 :  -0.3750 0.4583 0.0000  plane waves:    9399
 k-point 69 :  -0.2917 0.4583 0.0000  plane waves:    9425
 k-point 70 :  -0.2083 0.4583 0.0000  plane waves:    9423
 k-point 71 :  -0.1250 0.4583 0.0000  plane waves:    9421
 k-point 72 :  -0.0417 0.4583 0.0000  plane waves:    9390

 maximum and minimum number of plane-waves per node :      9480     9262

 maximum number of plane-waves:      9480
 maximum index in each direction: 
   IXMAX=    6   IYMAX=    5   IZMAX=   73
   IXMIN=   -6   IYMIN=   -6   IZMIN=  -73


 serial   3D FFT for wavefunctions
 parallel 3D FFT for charge:
    minimum data exchange during FFTs selected (reduces bandwidth)


 total amount of memory used by VASP MPI-rank0    94597. kBytes
=======================================================================

   base      :      30000. kBytes
   nonl-proj :      43987. kBytes
   fftplans  :       1579. kBytes
   grid      :       8077. kBytes
   one-center:          6. kBytes
   wavefun   :      10948. kBytes
 
     INWAV:  cpu time    0.0000: real time    0.0000
 Broyden mixing: mesh for mixing (old mesh)
   NGX = 11   NGY = 11   NGZ =147
  (NGX  = 36   NGY  = 32   NGZ  =420)
  gives a total of  17787 points

 initial charge density was supplied:
 charge density of overlapping atoms calculated
 number of electron       8.0000000 magnetization 
 keeping initial charge density in first step


--------------------------------------------------------------------------------------------------------


 Maximum index for augmentation-charges          185 (set IRDMAX)


--------------------------------------------------------------------------------------------------------


 First call to EWALD:  gamma=   0.327
 Maximum number of real-space cells 6x 6x 1
 Maximum number of reciprocal cells 2x 2x13

    FEWALD:  cpu time    0.0020: real time    0.0047


--------------------------------------- Iteration      1(   1)  ---------------------------------------


    POTLOK:  cpu time    0.0330: real time    0.0583
    SETDIJ:  cpu time    0.0120: real time    0.0191
    EDDIAG:  cpu time    1.0818: real time    1.1942
  RMM-DIIS:  cpu time    2.0687: real time    2.0982
    ORTHCH:  cpu time    0.0520: real time    0.0519
       DOS:  cpu time    0.0030: real time    0.0148
    --------------------------------------------
      LOOP:  cpu time    3.2505: real time    3.4378

 eigenvalue-minimisations  :  1728
 total energy-change (2. order) : 0.1025271E+03  (-0.1487770E+03)
 number of electron       8.0000000 magnetization 
 augmentation part        8.0000000 magnetization 

 Free energy of the ion-electron system (eV)
  ---------------------------------------------------
  alpha Z        PSCENC =         1.37229745
  Ewald energy   TEWEN  =      2232.00673347
  -Hartree energ DENC   =     -2438.22894593
  -exchange      EXHF   =         0.00000000
  -V(xc)+E(xc)   XCENC  =        14.48580331
  PAW double counting   =       228.69403340     -218.18290438
  entropy T*S    EENTRO =        -0.00272798
  eigenvalues    EBANDS =       -11.92036652
  atomic energy  EATOM  =       294.30319316
  Solvation  Ediel_sol  =         0.00000000
  ---------------------------------------------------
  free energy    TOTEN  =       102.52711598 eV

  energy without entropy =      102.52984396  energy(sigma->0) =      102.52847997


--------------------------------------------------------------------------------------------------------




--------------------------------------- Iteration      1(   2)  ---------------------------------------


    EDDIAG:  cpu time    1.0568: real time    1.0743
  RMM-DIIS:  cpu time    2.0287: real time    2.0365
    ORTHCH:  cpu time    0.0520: real time    0.0519
       DOS:  cpu time    0.0010: real time    0.0009
    --------------------------------------------
      LOOP:  cpu time    3.1385: real time    3.1625

 eigenvalue-minimisations  :  1728
 total energy-change (2. order) :-0.5168284E+02  (-0.2733885E+02)
 number of electron       8.0000000 magnetization 
 augmentation part        8.0000000 magnetization 

 Free energy of the ion-electron system (eV)
  ---------------------------------------------------
  alpha Z        PSCENC =         1.37229745
  Ewald energy   TEWEN  =      2232.00673347
  -Hartree energ DENC   =     -2438.22894593
  -exchange      EXHF   =         0.00000000
  -V(xc)+E(xc)   XCENC  =        14.48580331
  PAW double counting   =       228.69403340     -218.18290438
  entropy T*S    EENTRO =        -0.00247658
  eigenvalues    EBANDS =       -63.60345800
  atomic energy  EATOM  =       294.30319316
  Solvation  Ediel_sol  =         0.00000000
  ---------------------------------------------------
  free energy    TOTEN  =        50.84427591 eV

  energy without entropy =       50.84675248  energy(sigma->0) =       50.84551419


--------------------------------------------------------------------------------------------------------




--------------------------------------- Iteration      1(   3)  ---------------------------------------


    EDDIAG:  cpu time    1.0558: real time    1.0650
  RMM-DIIS:  cpu time    2.0377: real time    2.0416
    ORTHCH:  cpu time    0.0520: real time    0.0519
       DOS:  cpu time    0.0000: real time    0.0008
    --------------------------------------------
      LOOP:  cpu time    3.1455: real time    3.1593

 eigenvalue-minimisations  :  1728
 total energy-change (2. order) :-0.4076892E+02  (-0.2054723E+02)
 number of electron       8.0000000 magnetization 
 augmentation part        8.0000000 magnetization 

 Free energy of the ion-electron system (eV)
  ---------------------------------------------------
  alpha Z        PSCENC =         1.37229745
  Ewald energy   TEWEN  =      2232.00673347
  -Hartree energ DENC   =     -2438.22894593
  -exchange      EXHF   =         0.00000000
  -V(xc)+E(xc)   XCENC  =        14.48580331
  PAW double counting   =       228.69403340     -218.18290438
  entropy T*S    EENTRO =        -0.00227360
  eigenvalues    EBANDS =      -104.37257643
  atomic energy  EATOM  =       294.30319316
  Solvation  Ediel_sol  =         0.00000000
  ---------------------------------------------------
  free energy    TOTEN  =        10.07536045 eV

  energy without entropy =       10.07763404  energy(sigma->0) =       10.07649725


--------------------------------------------------------------------------------------------------------




--------------------------------------- Iteration      1(   4)  ---------------------------------------


    EDDIAG:  cpu time    1.0658: real time    1.0704
  RMM-DIIS:  cpu time    2.0547: real time    2.0618
    ORTHCH:  cpu time    0.0520: real time    0.0520
       DOS:  cpu time    0.0000: real time    0.0007
    --------------------------------------------
      LOOP:  cpu time    3.1725: real time    3.1849

 eigenvalue-minimisations  :  1728
 total energy-change (2. order) :-0.2372261E+02  (-0.1366895E+02)
 number of electron       8.0000000 magnetization 
 augmentation part        8.0000000 magnetization 

 Free energy of the ion-electron system (eV)
  ---------------------------------------------------
  alpha Z        PSCENC =         1.37229745
  Ewald energy   TEWEN  =      2232.00673347
  -Hartree energ DENC   =     -2438.22894593
  -exchange      EXHF   =         0.00000000
  -V(xc)+E(xc)   XCENC  =        14.48580331
  PAW double counting   =       228.69403340     -218.18290438
  entropy T*S    EENTRO =        -0.00000022
  eigenvalues    EBANDS =      -128.09745782
  atomic energy  EATOM  =       294.30319316
  Solvation  Ediel_sol  =         0.00000000
  ---------------------------------------------------
  free energy    TOTEN  =       -13.64724757 eV

  energy without entropy =      -13.64724734  energy(sigma->0) =      -13.64724746


--------------------------------------------------------------------------------------------------------




--------------------------------------- Iteration      1(   5)  ---------------------------------------


    EDDIAG:  cpu time    1.0558: real time    1.0691
  RMM-DIIS:  cpu time    2.0607: real time    2.0659
    ORTHCH:  cpu time    0.0520: real time    0.0520
       DOS:  cpu time    0.0010: real time    0.0006
    --------------------------------------------
      LOOP:  cpu time    3.1695: real time    3.1876

 eigenvalue-minimisations  :  1728
 total energy-change (2. order) :-0.4737749E+01  (-0.3729049E+01)
 number of electron       8.0000000 magnetization 
 augmentation part        8.0000000 magnetization 

 Free energy of the ion-electron system (eV)
  ---------------------------------------------------
  alpha Z        PSCENC =         1.37229745
  Ewald energy   TEWEN  =      2232.00673347
  -Hartree energ DENC   =     -2438.22894593
  -exchange      EXHF   =         0.00000000
  -V(xc)+E(xc)   XCENC  =        14.48580331
  PAW double counting   =       228.69403340     -218.18290438
  entropy T*S    EENTRO =        -0.00000000
  eigenvalues    EBANDS =      -132.83520689
  atomic energy  EATOM  =       294.30319316
  Solvation  Ediel_sol  =         0.00000000
  ---------------------------------------------------
  free energy    TOTEN  =       -18.38499641 eV

  energy without entropy =      -18.38499641  energy(sigma->0) =      -18.38499641


--------------------------------------------------------------------------------------------------------




--------------------------------------- Iteration      1(   6)  ---------------------------------------


    EDDIAG:  cpu time    1.0558: real time    1.0720
  RMM-DIIS:  cpu time    2.0737: real time    2.0796
    ORTHCH:  cpu time    0.0510: real time    0.0519
       DOS:  cpu time    0.0010: real time    0.0006
    --------------------------------------------
      LOOP:  cpu time    3.1815: real time    3.2040

 eigenvalue-minimisations  :  1728
 total energy-change (2. order) :-0.1022714E+01  (-0.8402346E+00)
 number of electron       8.0000000 magnetization 
 augmentation part        8.0000000 magnetization 

 Free energy of the ion-electron system (eV)
  ---------------------------------------------------
  alpha Z        PSCENC =         1.37229745
  Ewald energy   TEWEN  =      2232.00673347
  -Hartree energ DENC   =     -2438.22894593
  -exchange      EXHF   =         0.00000000
  -V(xc)+E(xc)   XCENC  =        14.48580331
  PAW double counting   =       228.69403340     -218.18290438
  entropy T*S    EENTRO =        -0.00000000
  eigenvalues    EBANDS =      -133.85792078
  atomic energy  EATOM  =       294.30319316
  Solvation  Ediel_sol  =         0.00000000
  ---------------------------------------------------
  free energy    TOTEN  =       -19.40771030 eV

  energy without entropy =      -19.40771030  energy(sigma->0) =      -19.40771030


--------------------------------------------------------------------------------------------------------




--------------------------------------- Iteration      1(   7)  ---------------------------------------


    EDDIAG:  cpu time    1.0568: real time    1.0722
  RMM-DIIS:  cpu time    2.0587: real time    2.0640
    ORTHCH:  cpu time    0.0520: real time    0.0519
       DOS:  cpu time    0.0010: real time    0.0006
    --------------------------------------------
      LOOP:  cpu time    3.1685: real time    3.1887

 eigenvalue-minimisations  :  1728
 total energy-change (2. order) :-0.2308840E+00  (-0.1930799E+00)
 number of electron       8.0000000 magnetization 
 augmentation part        8.0000000 magnetization 

 Free energy of the ion-electron system (eV)
  ---------------------------------------------------
  alpha Z        PSCENC =         1.37229745
  Ewald energy   TEWEN  =      2232.00673347
  -Hartree energ DENC   =     -2438.22894593
  -exchange      EXHF   =         0.00000000
  -V(xc)+E(xc)   XCENC  =        14.48580331
  PAW double counting   =       228.69403340     -218.18290438
  entropy T*S    EENTRO =        -0.00000000
  eigenvalues    EBANDS =      -134.08880473
  atomic energy  EATOM  =       294.30319316
  Solvation  Ediel_sol  =         0.00000000
  ---------------------------------------------------
  free energy    TOTEN  =       -19.63859425 eV

  energy without entropy =      -19.63859425  energy(sigma->0) =      -19.63859425


--------------------------------------------------------------------------------------------------------




--------------------------------------- Iteration      1(   8)  ---------------------------------------


    EDDIAG:  cpu time    1.0578: real time    1.0731
  RMM-DIIS:  cpu time    2.0597: real time    2.0643
    ORTHCH:  cpu time    0.0510: real time    0.0520
       DOS:  cpu time    0.0010: real time    0.0005
    --------------------------------------------
      LOOP:  cpu time    3.1695: real time    3.1900

 eigenvalue-minimisations  :  1728
 total energy-change (2. order) :-0.6148846E-01  (-0.5042910E-01)
 number of electron       8.0000000 magnetization 
 augmentation part        8.0000000 magnetization 

 Free energy of the ion-electron system (eV)
  ---------------------------------------------------
  alpha Z        PSCENC =         1.37229745
  Ewald energy   TEWEN  =      2232.00673347
  -Hartree energ DENC   =     -2438.22894593
  -exchange      EXHF   =         0.00000000
  -V(xc)+E(xc)   XCENC  =        14.48580331
  PAW double counting   =       228.69403340     -218.18290438
  entropy T*S    EENTRO =        -0.00000000
  eigenvalues    EBANDS =      -134.15029319
  atomic energy  EATOM  =       294.30319316
  Solvation  Ediel_sol  =         0.00000000
  ---------------------------------------------------
  free energy    TOTEN  =       -19.70008272 eV

  energy without entropy =      -19.70008272  energy(sigma->0) =      -19.70008272


--------------------------------------------------------------------------------------------------------




--------------------------------------- Iteration      1(   9)  ---------------------------------------


    EDDIAG:  cpu time    1.0588: real time    1.0739
  RMM-DIIS:  cpu time    3.9454: real time    4.0127
    ORTHCH:  cpu time    0.0520: real time    0.0530
       DOS:  cpu time    0.0010: real time    0.0006
    --------------------------------------------
      LOOP:  cpu time    5.0572: real time    5.1402

 eigenvalue-minimisations  :  3475
 total energy-change (2. order) :-0.2318743E-01  (-0.2022234E-01)
 number of electron       8.0000000 magnetization 
 augmentation part        8.0000000 magnetization 

 Free energy of the ion-electron system (eV)
  ---------------------------------------------------
  alpha Z        PSCENC =         1.37229745
  Ewald energy   TEWEN  =      2232.00673347
  -Hartree energ DENC   =     -2438.22894593
  -exchange      EXHF   =         0.00000000
  -V(xc)+E(xc)   XCENC  =        14.48580331
  PAW double counting   =       228.69403340     -218.18290438
  entropy T*S    EENTRO =        -0.00000000
  eigenvalues    EBANDS =      -134.17348062
  atomic energy  EATOM  =       294.30319316
  Solvation  Ediel_sol  =         0.00000000
  ---------------------------------------------------
  free energy    TOTEN  =       -19.72327015 eV

  energy without entropy =      -19.72327015  energy(sigma->0) =      -19.72327015


--------------------------------------------------------------------------------------------------------




--------------------------------------- Iteration      1(  10)  ---------------------------------------


    EDDIAG:  cpu time    1.0568: real time    1.0694
  RMM-DIIS:  cpu time    4.4243: real time    4.4336
    ORTHCH:  cpu time    0.0520: real time    0.0522
       DOS:  cpu time    0.0000: real time    0.0005
    --------------------------------------------
      LOOP:  cpu time    5.5342: real time    5.5557

 eigenvalue-minimisations  :  3555
 total energy-change (2. order) :-0.3745080E-02  (-0.3140236E-02)
 number of electron       8.0000000 magnetization 
 augmentation part        8.0000000 magnetization 

 Free energy of the ion-electron system (eV)
  ---------------------------------------------------
  alpha Z        PSCENC =         1.37229745
  Ewald energy   TEWEN  =      2232.00673347
  -Hartree energ DENC   =     -2438.22894593
  -exchange      EXHF   =         0.00000000
  -V(xc)+E(xc)   XCENC  =        14.48580331
  PAW double counting   =       228.69403340     -218.18290438
  entropy T*S    EENTRO =        -0.00000000
  eigenvalues    EBANDS =      -134.17722570
  atomic energy  EATOM  =       294.30319316
  Solvation  Ediel_sol  =         0.00000000
  ---------------------------------------------------
  free energy    TOTEN  =       -19.72701523 eV

  energy without entropy =      -19.72701523  energy(sigma->0) =      -19.72701523


--------------------------------------------------------------------------------------------------------




--------------------------------------- Iteration      1(  11)  ---------------------------------------


    EDDIAG:  cpu time    1.0588: real time    1.0736
  RMM-DIIS:  cpu time    3.9054: real time    3.9147
    ORTHCH:  cpu time    0.0520: real time    0.0520
       DOS:  cpu time    0.0000: real time    0.0005
    --------------------------------------------
      LOOP:  cpu time    5.0152: real time    5.0409

 eigenvalue-minimisations  :  3485
 total energy-change (2. order) :-0.1514661E-03  (-0.1167129E-03)
 number of electron       8.0000000 magnetization 
 augmentation part        8.0000000 magnetization 

 Free energy of the ion-electron system (eV)
  ---------------------------------------------------
  alpha Z        PSCENC =         1.37229745
  Ewald energy   TEWEN  =      2232.00673347
  -Hartree energ DENC   =     -2438.22894593
  -exchange      EXHF   =         0.00000000
  -V(xc)+E(xc)   XCENC  =        14.48580331
  PAW double counting   =       228.69403340     -218.18290438
  entropy T*S    EENTRO =        -0.00000000
  eigenvalues    EBANDS =      -134.17737717
  atomic energy  EATOM  =       294.30319316
  Solvation  Ediel_sol  =         0.00000000
  ---------------------------------------------------
  free energy    TOTEN  =       -19.72716669 eV

  energy without entropy =      -19.72716669  energy(sigma->0) =      -19.72716669


--------------------------------------------------------------------------------------------------------




--------------------------------------- Iteration      1(  12)  ---------------------------------------


    EDDIAG:  cpu time    1.0668: real time    1.1025
  RMM-DIIS:  cpu time    4.1764: real time    4.3598
    ORTHCH:  cpu time    0.0510: real time    0.0520
       DOS:  cpu time    0.0000: real time    0.0006
    CHARGE:  cpu time    0.2670: real time    0.2911
    MIXING:  cpu time    0.0030: real time    0.0146
    --------------------------------------------
      LOOP:  cpu time    5.5642: real time    5.8206

 eigenvalue-minimisations  :  3523
 total energy-change (2. order) :-0.2583631E-04  (-0.2081454E-04)
 number of electron       8.0000000 magnetization 
 augmentation part       -0.0156769 magnetization 

 Broyden mixing:
  rms(total) = 0.91109E+00    rms(broyden)= 0.91102E+00
  rms(prec ) = 0.92455E+00
  weight for this iteration     100.00

 Free energy of the ion-electron system (eV)
  ---------------------------------------------------
  alpha Z        PSCENC =         1.37229745
  Ewald energy   TEWEN  =      2232.00673347
  -Hartree energ DENC   =     -2438.22894593
  -exchange      EXHF   =         0.00000000
  -V(xc)+E(xc)   XCENC  =        14.48580331
  PAW double counting   =       228.69403340     -218.18290438
  entropy T*S    EENTRO =        -0.00000000
  eigenvalues    EBANDS =      -134.17740301
  atomic energy  EATOM  =       294.30319316
  Solvation  Ediel_sol  =         0.00000000
  ---------------------------------------------------
  free energy    TOTEN  =       -19.72719253 eV

  energy without entropy =      -19.72719253  energy(sigma->0) =      -19.72719253


--------------------------------------------------------------------------------------------------------




--------------------------------------- Iteration      1(  13)  ---------------------------------------


    POTLOK:  cpu time    0.0200: real time    0.0289
    SETDIJ:  cpu time    0.0020: real time    0.0017
    EDDIAG:  cpu time    1.0468: real time    1.0497
  RMM-DIIS:  cpu time    3.7684: real time    3.7780
    ORTHCH:  cpu time    0.0520: real time    0.0526
       DOS:  cpu time    0.0000: real time    0.0006
    CHARGE:  cpu time    0.2370: real time    0.2363
    MIXING:  cpu time    0.0030: real time    0.0178
    --------------------------------------------
      LOOP:  cpu time    5.1292: real time    5.1655

 eigenvalue-minimisations  :  3456
 total energy-change (2. order) : 0.8851757E+00  (-0.4399088E-01)
 number of electron       8.0000000 magnetization 
 augmentation part       -0.0180817 magnetization 

 Broyden mixing:
  rms(total) = 0.59390E+00    rms(broyden)= 0.59389E+00
  rms(prec ) = 0.60018E+00
  weight for this iteration     100.00

 eigenvalues of (default mixing * dielectric matrix)
  average eigenvalue GAMMA=   2.6439
  2.6439

 Free energy of the ion-electron system (eV)
  ---------------------------------------------------
  alpha Z        PSCENC =         1.37229745
  Ewald energy   TEWEN  =      2232.00673347
  -Hartree energ DENC   =     -2449.52738844
  -exchange      EXHF   =         0.00000000
  -V(xc)+E(xc)   XCENC  =        14.93161701
  PAW double counting   =       998.00074321     -987.61331840
  entropy T*S    EENTRO =        -0.00000000
  eigenvalues    EBANDS =      -122.31589433
  atomic energy  EATOM  =       294.30319316
  Solvation  Ediel_sol  =         0.00000000
  ---------------------------------------------------
  free energy    TOTEN  =       -18.84201687 eV

  energy without entropy =      -18.84201687  energy(sigma->0) =      -18.84201687


--------------------------------------------------------------------------------------------------------




--------------------------------------- Iteration      1(  14)  ---------------------------------------


    POTLOK:  cpu time    0.0190: real time    0.0288
    SETDIJ:  cpu time    0.0020: real time    0.0017
    EDDIAG:  cpu time    1.0468: real time    1.0487
  RMM-DIIS:  cpu time    3.8044: real time    3.8130
    ORTHCH:  cpu time    0.0510: real time    0.0520
       DOS:  cpu time    0.0000: real time    0.0006
    CHARGE:  cpu time    0.2370: real time    0.2363
    MIXING:  cpu time    0.0010: real time    0.0089
    --------------------------------------------
      LOOP:  cpu time    5.1622: real time    5.1900

 eigenvalue-minimisations  :  3456
 total energy-change (2. order) : 0.3330700E+00  (-0.9276539E-01)
 number of electron       8.0000000 magnetization 
 augmentation part       -0.0211226 magnetization 

 Broyden mixing:
  rms(total) = 0.11693E+00    rms(broyden)= 0.11692E+00
  rms(prec ) = 0.11949E+00
  weight for this iteration     100.00

 eigenvalues of (default mixing * dielectric matrix)
  average eigenvalue GAMMA=   2.2340
  2.2340  2.2340

 Free energy of the ion-electron system (eV)
  ---------------------------------------------------
  alpha Z        PSCENC =         1.37229745
  Ewald energy   TEWEN  =      2232.00673347
  -Hartree energ DENC   =     -2468.08158081
  -exchange      EXHF   =         0.00000000
  -V(xc)+E(xc)   XCENC  =        15.67798292
  PAW double counting   =      3854.36085887    -3844.08345355
  entropy T*S    EENTRO =        -0.00000000
  eigenvalues    EBANDS =      -104.06497840
  atomic energy  EATOM  =       294.30319316
  Solvation  Ediel_sol  =         0.00000000
  ---------------------------------------------------
  free energy    TOTEN  =       -18.50894687 eV

  energy without entropy =      -18.50894687  energy(sigma->0) =      -18.50894687


--------------------------------------------------------------------------------------------------------




--------------------------------------- Iteration      1(  15)  ---------------------------------------


    POTLOK:  cpu time    0.0210: real time    0.0352
    SETDIJ:  cpu time    0.0010: real time    0.0017
    EDDIAG:  cpu time    1.0458: real time    1.0485
  RMM-DIIS:  cpu time    3.8934: real time    3.9035
    ORTHCH:  cpu time    0.0530: real time    0.0527
       DOS:  cpu time    0.0010: real time    0.0006
    CHARGE:  cpu time    0.2350: real time    0.2364
    MIXING:  cpu time    0.0010: real time    0.0040
    --------------------------------------------
      LOOP:  cpu time    5.2502: real time    5.2825

 eigenvalue-minimisations  :  3468
 total energy-change (2. order) : 0.2061430E-01  (-0.2503960E-02)
 number of electron       8.0000000 magnetization 
 augmentation part       -0.0205832 magnetization 

 Broyden mixing:
  rms(total) = 0.12425E-01    rms(broyden)= 0.12423E-01
  rms(prec ) = 0.15962E-01
  weight for this iteration     100.00

 eigenvalues of (default mixing * dielectric matrix)
  average eigenvalue GAMMA=   1.9998
  1.3449  2.3272  2.3272

 Free energy of the ion-electron system (eV)
  ---------------------------------------------------
  alpha Z        PSCENC =         1.37229745
  Ewald energy   TEWEN  =      2232.00673347
  -Hartree energ DENC   =     -2467.18702787
  -exchange      EXHF   =         0.00000000
  -V(xc)+E(xc)   XCENC  =        15.56448744
  PAW double counting   =      4087.71680009    -4077.37922748
  entropy T*S    EENTRO =        -0.00000000
  eigenvalues    EBANDS =      -104.88558883
  atomic energy  EATOM  =       294.30319316
  Solvation  Ediel_sol  =         0.00000000
  ---------------------------------------------------
  free energy    TOTEN  =       -18.48833257 eV

  energy without entropy =      -18.48833257  energy(sigma->0) =      -18.48833257


--------------------------------------------------------------------------------------------------------




--------------------------------------- Iteration      1(  16)  ---------------------------------------


    POTLOK:  cpu time    0.0200: real time    0.0287
    SETDIJ:  cpu time    0.0010: real time    0.0017
    EDDIAG:  cpu time    1.0468: real time    1.0486
  RMM-DIIS:  cpu time    3.9824: real time    3.9927
    ORTHCH:  cpu time    0.0520: real time    0.0522
       DOS:  cpu time    0.0000: real time    0.0006
    CHARGE:  cpu time    0.2370: real time    0.2365
    MIXING:  cpu time    0.0010: real time    0.0008
    --------------------------------------------
      LOOP:  cpu time    5.3402: real time    5.3616

 eigenvalue-minimisations  :  3472
 total energy-change (2. order) : 0.1561233E-02  (-0.4275874E-04)
 number of electron       8.0000000 magnetization 
 augmentation part       -0.0205264 magnetization 

 Broyden mixing:
  rms(total) = 0.82468E-02    rms(broyden)= 0.82466E-02
  rms(prec ) = 0.11462E-01
  weight for this iteration     100.00

 eigenvalues of (default mixing * dielectric matrix)
  average eigenvalue GAMMA=   2.0877
  0.9940  2.5331  2.5331  2.2908

 Free energy of the ion-electron system (eV)
  ---------------------------------------------------
  alpha Z        PSCENC =         1.37229745
  Ewald energy   TEWEN  =      2232.00673347
  -Hartree energ DENC   =     -2468.38372084
  -exchange      EXHF   =         0.00000000
  -V(xc)+E(xc)   XCENC  =        15.57937285
  PAW double counting   =      4140.28440936    -4129.94422373
  entropy T*S    EENTRO =        -0.00000000
  eigenvalues    EBANDS =      -103.70483306
  atomic energy  EATOM  =       294.30319316
  Solvation  Ediel_sol  =         0.00000000
  ---------------------------------------------------
  free energy    TOTEN  =       -18.48677133 eV

  energy without entropy =      -18.48677133  energy(sigma->0) =      -18.48677133


--------------------------------------------------------------------------------------------------------




--------------------------------------- Iteration      1(  17)  ---------------------------------------


    POTLOK:  cpu time    0.0190: real time    0.0332
    SETDIJ:  cpu time    0.0020: real time    0.0017
    EDDIAG:  cpu time    1.0468: real time    1.0497
  RMM-DIIS:  cpu time    3.8654: real time    3.8748
    ORTHCH:  cpu time    0.0520: real time    0.0522
       DOS:  cpu time    0.0010: real time    0.0006
    CHARGE:  cpu time    0.2360: real time    0.2368
    MIXING:  cpu time    0.0000: real time    0.0009
    --------------------------------------------
      LOOP:  cpu time    5.2232: real time    5.2499

 eigenvalue-minimisations  :  3457
 total energy-change (2. order) : 0.1322370E-02  (-0.5713087E-04)
 number of electron       8.0000000 magnetization 
 augmentation part       -0.0205765 magnetization 

 Broyden mixing:
  rms(total) = 0.61048E-02    rms(broyden)= 0.61047E-02
  rms(prec ) = 0.75309E-02
  weight for this iteration     100.00

 eigenvalues of (default mixing * dielectric matrix)
  average eigenvalue GAMMA=   2.1128
  3.7615  2.3625  1.0340  1.8509  1.5550

 Free energy of the ion-electron system (eV)
  ---------------------------------------------------
  alpha Z        PSCENC =         1.37229745
  Ewald energy   TEWEN  =      2232.00673347
  -Hartree energ DENC   =     -2470.71870416
  -exchange      EXHF   =         0.00000000
  -V(xc)+E(xc)   XCENC  =        15.60641439
  PAW double counting   =      4082.30140417    -4071.96286620
  entropy T*S    EENTRO =        -0.00000000
  eigenvalues    EBANDS =      -101.39392125
  atomic energy  EATOM  =       294.30319316
  Solvation  Ediel_sol  =         0.00000000
  ---------------------------------------------------
  free energy    TOTEN  =       -18.48544897 eV

  energy without entropy =      -18.48544897  energy(sigma->0) =      -18.48544897


--------------------------------------------------------------------------------------------------------




--------------------------------------- Iteration      1(  18)  ---------------------------------------


    POTLOK:  cpu time    0.0300: real time    0.0291
    SETDIJ:  cpu time    0.0010: real time    0.0017
    EDDIAG:  cpu time    1.0488: real time    1.0521
  RMM-DIIS:  cpu time    3.8424: real time    3.8512
    ORTHCH:  cpu time    0.0520: real time    0.0522
       DOS:  cpu time    0.0000: real time    0.0006
    CHARGE:  cpu time    0.2360: real time    0.2365
    MIXING:  cpu time    0.0020: real time    0.0021
    --------------------------------------------
      LOOP:  cpu time    5.2112: real time    5.2254

 eigenvalue-minimisations  :  3456
 total energy-change (2. order) : 0.5446297E-04  (-0.1666075E-04)
 number of electron       8.0000000 magnetization 
 augmentation part       -0.0205610 magnetization 

 Broyden mixing:
  rms(total) = 0.57941E-02    rms(broyden)= 0.57941E-02
  rms(prec ) = 0.63613E-02
  weight for this iteration     100.00

 eigenvalues of (default mixing * dielectric matrix)
  average eigenvalue GAMMA=   2.5709
  5.9449  2.9200  2.3901  2.1925  0.9888  0.9888

 Free energy of the ion-electron system (eV)
  ---------------------------------------------------
  alpha Z        PSCENC =         1.37229745
  Ewald energy   TEWEN  =      2232.00673347
  -Hartree energ DENC   =     -2471.95691088
  -exchange      EXHF   =         0.00000000
  -V(xc)+E(xc)   XCENC  =        15.61155414
  PAW double counting   =      4124.59299885    -4114.24987623
  entropy T*S    EENTRO =        -0.00000000
  eigenvalues    EBANDS =      -100.16538447
  atomic energy  EATOM  =       294.30319316
  Solvation  Ediel_sol  =         0.00000000
  ---------------------------------------------------
  free energy    TOTEN  =       -18.48539450 eV

  energy without entropy =      -18.48539450  energy(sigma->0) =      -18.48539450


--------------------------------------------------------------------------------------------------------




--------------------------------------- Iteration      1(  19)  ---------------------------------------


    POTLOK:  cpu time    0.0180: real time    0.0305
    SETDIJ:  cpu time    0.0020: real time    0.0017
    EDDIAG:  cpu time    1.0508: real time    1.0531
  RMM-DIIS:  cpu time    3.8514: real time    3.8608
    ORTHCH:  cpu time    0.0520: real time    0.0521
       DOS:  cpu time    0.0010: real time    0.0006
    CHARGE:  cpu time    0.2350: real time    0.2366
    MIXING:  cpu time    0.0010: real time    0.0010
    --------------------------------------------
      LOOP:  cpu time    5.2112: real time    5.2363

 eigenvalue-minimisations  :  3456
 total energy-change (2. order) :-0.4696000E-03  (-0.1497572E-04)
 number of electron       8.0000000 magnetization 
 augmentation part       -0.0206002 magnetization 

 Broyden mixing:
  rms(total) = 0.15990E-02    rms(broyden)= 0.15989E-02
  rms(prec ) = 0.18695E-02
  weight for this iteration     100.00

 eigenvalues of (default mixing * dielectric matrix)
  average eigenvalue GAMMA=   2.3923
  6.0825  2.9601  2.3031  2.1414  1.3987  0.9974  0.8629

 Free energy of the ion-electron system (eV)
  ---------------------------------------------------
  alpha Z        PSCENC =         1.37229745
  Ewald energy   TEWEN  =      2232.00673347
  -Hartree energ DENC   =     -2473.20975195
  -exchange      EXHF   =         0.00000000
  -V(xc)+E(xc)   XCENC  =        15.61901069
  PAW double counting   =      4095.10045374    -4084.75964509
  entropy T*S    EENTRO =        -0.00000000
  eigenvalues    EBANDS =       -98.91815558
  atomic energy  EATOM  =       294.30319316
  Solvation  Ediel_sol  =         0.00000000
  ---------------------------------------------------
  free energy    TOTEN  =       -18.48586410 eV

  energy without entropy =      -18.48586410  energy(sigma->0) =      -18.48586410


--------------------------------------------------------------------------------------------------------




--------------------------------------- Iteration      1(  20)  ---------------------------------------


    POTLOK:  cpu time    0.0200: real time    0.0343
    SETDIJ:  cpu time    0.0010: real time    0.0017
    EDDIAG:  cpu time    1.0488: real time    1.0519
  RMM-DIIS:  cpu time    3.9404: real time    3.9501
    ORTHCH:  cpu time    0.0540: real time    0.0537
       DOS:  cpu time    0.0010: real time    0.0006
    CHARGE:  cpu time    0.2360: real time    0.2368
    MIXING:  cpu time    0.0010: real time    0.0010
    --------------------------------------------
      LOOP:  cpu time    5.3032: real time    5.3302

 eigenvalue-minimisations  :  3469
 total energy-change (2. order) :-0.2878034E-03  (-0.6007169E-06)
 number of electron       8.0000000 magnetization 
 augmentation part       -0.0206005 magnetization 

 Broyden mixing:
  rms(total) = 0.19551E-02    rms(broyden)= 0.19551E-02
  rms(prec ) = 0.20869E-02
  weight for this iteration     100.00

 eigenvalues of (default mixing * dielectric matrix)
  average eigenvalue GAMMA=   2.7596
  7.6754  4.1628  2.7041  2.2974  2.2974  0.9895  0.9895  0.9602

 Free energy of the ion-electron system (eV)
  ---------------------------------------------------
  alpha Z        PSCENC =         1.37229745
  Ewald energy   TEWEN  =      2232.00673347
  -Hartree energ DENC   =     -2473.32528448
  -exchange      EXHF   =         0.00000000
  -V(xc)+E(xc)   XCENC  =        15.61855895
  PAW double counting   =      4090.44878656    -4080.10802513
  entropy T*S    EENTRO =        -0.00000000
  eigenvalues    EBANDS =       -98.80241190
  atomic energy  EATOM  =       294.30319316
  Solvation  Ediel_sol  =         0.00000000
  ---------------------------------------------------
  free energy    TOTEN  =       -18.48615191 eV

  energy without entropy =      -18.48615191  energy(sigma->0) =      -18.48615191


--------------------------------------------------------------------------------------------------------




--------------------------------------- Iteration      1(  21)  ---------------------------------------


    POTLOK:  cpu time    0.0190: real time    0.0282
    SETDIJ:  cpu time    0.0010: real time    0.0017
    EDDIAG:  cpu time    1.0488: real time    1.0511
  RMM-DIIS:  cpu time    3.8654: real time    3.8769
    ORTHCH:  cpu time    0.0530: real time    0.0522
       DOS:  cpu time    0.0000: real time    0.0006
    CHARGE:  cpu time    0.2370: real time    0.2365
    MIXING:  cpu time    0.0010: real time    0.0010
    --------------------------------------------
      LOOP:  cpu time    5.2242: real time    5.2483

 eigenvalue-minimisations  :  3456
 total energy-change (2. order) :-0.5606836E-03  (-0.4544530E-05)
 number of electron       8.0000000 magnetization 
 augmentation part       -0.0205933 magnetization 

 Broyden mixing:
  rms(total) = 0.62272E-03    rms(broyden)= 0.62270E-03
  rms(prec ) = 0.65938E-03
  weight for this iteration     100.00

 eigenvalues of (default mixing * dielectric matrix)
  average eigenvalue GAMMA=   2.9436
  8.2682  4.9807  3.2035  2.6146  2.2412  2.2412  1.0012  0.9710  0.9710

 Free energy of the ion-electron system (eV)
  ---------------------------------------------------
  alpha Z        PSCENC =         1.37229745
  Ewald energy   TEWEN  =      2232.00673347
  -Hartree energ DENC   =     -2473.51552083
  -exchange      EXHF   =         0.00000000
  -V(xc)+E(xc)   XCENC  =        15.61674978
  PAW double counting   =      4103.20837064    -4092.86697474
  entropy T*S    EENTRO =        -0.00000000
  eigenvalues    EBANDS =       -98.61156152
  atomic energy  EATOM  =       294.30319316
  Solvation  Ediel_sol  =         0.00000000
  ---------------------------------------------------
  free energy    TOTEN  =       -18.48671259 eV

  energy without entropy =      -18.48671259  energy(sigma->0) =      -18.48671259


--------------------------------------------------------------------------------------------------------




--------------------------------------- Iteration      1(  22)  ---------------------------------------


    POTLOK:  cpu time    0.0190: real time    0.0308
    SETDIJ:  cpu time    0.0010: real time    0.0017
    EDDIAG:  cpu time    1.0488: real time    1.0513
  RMM-DIIS:  cpu time    3.7444: real time    3.7542
    ORTHCH:  cpu time    0.0520: real time    0.0520
       DOS:  cpu time    0.0000: real time    0.0006
    CHARGE:  cpu time    0.2370: real time    0.2366
    MIXING:  cpu time    0.0010: real time    0.0011
    --------------------------------------------
      LOOP:  cpu time    5.1032: real time    5.1283

 eigenvalue-minimisations  :  3358
 total energy-change (2. order) :-0.9444123E-04  (-0.2766988E-06)
 number of electron       8.0000000 magnetization 
 augmentation part       -0.0205923 magnetization 

 Broyden mixing:
  rms(total) = 0.25787E-03    rms(broyden)= 0.25787E-03
  rms(prec ) = 0.28086E-03
  weight for this iteration     100.00

 eigenvalues of (default mixing * dielectric matrix)
  average eigenvalue GAMMA=   2.7965
  8.4177  5.2598  3.2041  2.6289  2.2992  2.2992  0.9967  0.9782  0.9782  0.9026

 Free energy of the ion-electron system (eV)
  ---------------------------------------------------
  alpha Z        PSCENC =         1.37229745
  Ewald energy   TEWEN  =      2232.00673347
  -Hartree energ DENC   =     -2473.54492199
  -exchange      EXHF   =         0.00000000
  -V(xc)+E(xc)   XCENC  =        15.61660093
  PAW double counting   =      4100.06478166    -4089.72338005
  entropy T*S    EENTRO =        -0.00000000
  eigenvalues    EBANDS =       -98.58211167
  atomic energy  EATOM  =       294.30319316
  Solvation  Ediel_sol  =         0.00000000
  ---------------------------------------------------
  free energy    TOTEN  =       -18.48680703 eV

  energy without entropy =      -18.48680703  energy(sigma->0) =      -18.48680703


--------------------------------------------------------------------------------------------------------




--------------------------------------- Iteration      1(  23)  ---------------------------------------


    POTLOK:  cpu time    0.0180: real time    0.0309
    SETDIJ:  cpu time    0.0020: real time    0.0017
    EDDIAG:  cpu time    1.0488: real time    1.0517
  RMM-DIIS:  cpu time    3.8244: real time    3.8350
    ORTHCH:  cpu time    0.0530: real time    0.0524
       DOS:  cpu time    0.0000: real time    0.0006
    CHARGE:  cpu time    0.2590: real time    0.2597
    MIXING:  cpu time    0.0030: real time    0.0167
    --------------------------------------------
      LOOP:  cpu time    5.2082: real time    5.2486

 eigenvalue-minimisations  :  3456
 total energy-change (2. order) :-0.1970203E-04  (-0.4567475E-07)
 number of electron       8.0000000 magnetization 
 augmentation part       -0.0205937 magnetization 

 Broyden mixing:
  rms(total) = 0.78199E-04    rms(broyden)= 0.78195E-04
  rms(prec ) = 0.99034E-04
  weight for this iteration     100.00

 eigenvalues of (default mixing * dielectric matrix)
  average eigenvalue GAMMA=   2.9723
  8.7687  5.8612  4.1317  2.8865  2.5552  2.2791  2.2791  0.9967  0.9760  0.9805
  0.9805

 Free energy of the ion-electron system (eV)
  ---------------------------------------------------
  alpha Z        PSCENC =         1.37229745
  Ewald energy   TEWEN  =      2232.00673347
  -Hartree energ DENC   =     -2473.57610740
  -exchange      EXHF   =         0.00000000
  -V(xc)+E(xc)   XCENC  =        15.61697347
  PAW double counting   =      4099.11730605    -4088.77601975
  entropy T*S    EENTRO =        -0.00000000
  eigenvalues    EBANDS =       -98.55120320
  atomic energy  EATOM  =       294.30319316
  Solvation  Ediel_sol  =         0.00000000
  ---------------------------------------------------
  free energy    TOTEN  =       -18.48682673 eV

  energy without entropy =      -18.48682673  energy(sigma->0) =      -18.48682673


--------------------------------------------------------------------------------------------------------




--------------------------------------- Iteration      1(  24)  ---------------------------------------


    POTLOK:  cpu time    0.0190: real time    0.0316
    SETDIJ:  cpu time    0.0020: real time    0.0017
    EDDIAG:  cpu time    1.0478: real time    1.0516
  RMM-DIIS:  cpu time    3.7334: real time    3.7413
    ORTHCH:  cpu time    0.0520: real time    0.0520
       DOS:  cpu time    0.0000: real time    0.0006
    CHARGE:  cpu time    0.2600: real time    0.2598
    MIXING:  cpu time    0.0010: real time    0.0012
    --------------------------------------------
      LOOP:  cpu time    5.1152: real time    5.1397

 eigenvalue-minimisations  :  3240
 total energy-change (2. order) :-0.1435811E-04  (-0.1384907E-07)
 number of electron       8.0000000 magnetization 
 augmentation part       -0.0205940 magnetization 

 Broyden mixing:
  rms(total) = 0.38307E-04    rms(broyden)= 0.38306E-04
  rms(prec ) = 0.46640E-04
  weight for this iteration     100.00

 eigenvalues of (default mixing * dielectric matrix)
  average eigenvalue GAMMA=   2.8721
  8.7777  5.9296  4.0149  2.8034  2.4786  2.4786  2.2673  1.7647  0.9733  0.9733
  1.0015  1.0015

 Free energy of the ion-electron system (eV)
  ---------------------------------------------------
  alpha Z        PSCENC =         1.37229745
  Ewald energy   TEWEN  =      2232.00673347
  -Hartree energ DENC   =     -2473.59365514
  -exchange      EXHF   =         0.00000000
  -V(xc)+E(xc)   XCENC  =        15.61702923
  PAW double counting   =      4099.42280199    -4089.08153642
  entropy T*S    EENTRO =        -0.00000000
  eigenvalues    EBANDS =       -98.53370484
  atomic energy  EATOM  =       294.30319316
  Solvation  Ediel_sol  =         0.00000000
  ---------------------------------------------------
  free energy    TOTEN  =       -18.48684109 eV

  energy without entropy =      -18.48684109  energy(sigma->0) =      -18.48684109


--------------------------------------------------------------------------------------------------------




--------------------------------------- Iteration      1(  25)  ---------------------------------------


    POTLOK:  cpu time    0.0290: real time    0.0297
    SETDIJ:  cpu time    0.0020: real time    0.0017
[...]
     12       5.9815      0.00000
     13       6.1656      0.00000
     14       7.0468      0.00000
     15       7.4325      0.00000
     16       8.5957      0.00000
     17       9.0785      0.00000
     18      10.0205      0.00000
     19      10.4348      0.00000
     20      11.0906      0.00000
     21      12.3536      0.00000
     22      13.4351      0.00000
     23      13.7857      0.00000
     24      15.4974      0.00000

 k-point    60 :      -0.0417    0.3750    0.0000
  band No.  band energies     occupation 
      1     -19.7359      2.00000
      2     -13.3198      2.00000
      3      -9.2764      2.00000
      4      -7.3864      2.00000
      5       1.1497      0.00000
      6       4.1250      0.00000
      7       4.5690      0.00000
      8       4.9852      0.00000
      9       5.2684      0.00000
     10       5.5649      0.00000
     11       5.7789      0.00000
     12       6.4067      0.00000
     13       6.7039      0.00000
     14       7.6219      0.00000
     15       7.9946      0.00000
     16       9.1725      0.00000
     17       9.6421      0.00000
     18      11.0186      0.00000
     19      11.6362      0.00000
     20      12.1051      0.00000
     21      12.9009      0.00000
     22      13.7947      0.00000
     23      13.8984      0.00000
     24      13.9884      0.00000

 k-point    61 :       0.0417    0.4583    0.0000
  band No.  band energies     occupation 
      1     -17.5678      2.00000
      2     -16.1943      2.00000
      3      -9.7610      2.00000
      4      -5.5351      2.00000
      5      -1.4187      0.00000
      6       4.2836      0.00000
      7       7.4323      0.00000
      8       8.2731      0.00000
      9       8.6973      0.00000
     10       8.7208      0.00000
     11       8.9588      0.00000
     12       9.1930      0.00000
     13       9.5291      0.00000
     14       9.8086      0.00000
     15      10.0777      0.00000
     16      10.0944      0.00000
     17      10.3241      0.00000
     18      10.5590      0.00000
     19      10.8902      0.00000
     20      11.1565      0.00000
     21      11.3567      0.00000
     22      11.4447      0.00000
     23      12.0985      0.00000
     24      12.6311      0.00000

 k-point    62 :       0.1250    0.4583    0.0000
  band No.  band energies     occupation 
      1     -17.3512      2.00000
      2     -16.0013      2.00000
      3     -10.7240      2.00000
      4      -5.2392      2.00000
      5      -1.5199      0.00000
      6       5.6240      0.00000
      7       7.7441      0.00000
      8       8.3838      0.00000
      9       8.9808      0.00000
     10       9.0503      0.00000
     11       9.2342      0.00000
     12       9.5375      0.00000
     13       9.6137      0.00000
     14      10.1474      0.00000
     15      10.4097      0.00000
     16      10.4316      0.00000
     17      10.6086      0.00000
     18      10.8814      0.00000
     19      11.0406      0.00000
     20      11.4799      0.00000
     21      11.6777      0.00000
     22      11.7524      0.00000
     23      12.1002      0.00000
     24      12.9265      0.00000

 k-point    63 :       0.2083    0.4583    0.0000
  band No.  band energies     occupation 
      1     -17.6211      2.00000
      2     -14.8797      2.00000
      3     -12.0668      2.00000
      4      -5.1679      2.00000
      5      -1.2682      0.00000
      6       7.1824      0.00000
      7       7.6059      0.00000
      8       7.8224      0.00000
      9       8.4757      0.00000
     10       8.6460      0.00000
     11       8.9660      0.00000
     12       9.1958      0.00000
     13       9.8577      0.00000
     14       9.9398      0.00000
     15      10.3195      0.00000
     16      11.0360      0.00000
     17      11.1308      0.00000
     18      12.3160      0.00000
     19      12.5292      0.00000
     20      12.6732      0.00000
     21      12.7050      0.00000
     22      12.8266      0.00000
     23      13.0340      0.00000
     24      13.3425      0.00000

 k-point    64 :       0.2917    0.4583    0.0000
  band No.  band energies     occupation 
      1     -17.6913      2.00000
      2     -14.4043      2.00000
      3     -12.5847      2.00000
      4      -5.1720      2.00000
      5      -1.1733      0.00000
      6       7.0781      0.00000
      7       7.4117      0.00000
      8       8.3568      0.00000
      9       8.5173      0.00000
     10       8.8367      0.00000
     11       9.0536      0.00000
     12       9.0599      0.00000
     13       9.7314      0.00000
     14       9.8187      0.00000
     15       9.9756      0.00000
     16      10.9502      0.00000
     17      11.0221      0.00000
     18      12.4441      0.00000
     19      12.6173      0.00000
     20      13.2844      0.00000
     21      13.6073      0.00000
     22      13.8143      0.00000
     23      14.1435      0.00000
     24      14.3656      0.00000

 k-point    65 :       0.3750    0.4583    0.0000
  band No.  band energies     occupation 
      1     -17.5093      2.00000
      2     -15.4803      2.00000
      3     -11.3622      2.00000
      4      -5.1993      2.00000
      5      -1.4082      0.00000
      6       6.7204      0.00000
      7       7.4168      0.00000
      8       7.9483      0.00000
      9       8.6945      0.00000
     10       8.8828      0.00000
     11       9.1825      0.00000
     12       9.4445      0.00000
     13       9.7426      0.00000
     14      10.0867      0.00000
     15      10.1051      0.00000
     16      11.0440      0.00000
     17      11.3354      0.00000
     18      11.3990      0.00000
     19      11.5310      0.00000
     20      11.8308      0.00000
     21      11.9071      0.00000
     22      12.5609      0.00000
     23      12.5982      0.00000
     24      12.9956      0.00000

 k-point    66 :       0.4583    0.4583    0.0000
  band No.  band energies     occupation 
      1     -17.3479      2.00000
      2     -16.2992      2.00000
      3     -10.1261      2.00000
      4      -5.3785      2.00000
      5      -1.5335      0.00000
      6       4.8807      0.00000
      7       8.0717      0.00000
      8       8.2364      0.00000
      9       8.7571      0.00000
     10       9.1320      0.00000
     11       9.4664      0.00000
     12       9.4925      0.00000
     13       9.6999      0.00000
     14       9.7589      0.00000
     15       9.9475      0.00000
     16       9.9813      0.00000
     17      10.4117      0.00000
     18      10.5973      0.00000
     19      10.8330      0.00000
     20      10.8765      0.00000
     21      11.4239      0.00000
     22      11.8201      0.00000
     23      12.0736      0.00000
     24      12.1321      0.00000

 k-point    67 :      -0.4583    0.4583    0.0000
  band No.  band energies     occupation 
      1     -17.9535      2.00000
      2     -15.8412      2.00000
      3      -9.5607      2.00000
      4      -5.7787      2.00000
      5      -1.1787      0.00000
      6       4.1840      0.00000
      7       6.7719      0.00000
      8       7.6255      0.00000
      9       7.9955      0.00000
     10       8.2702      0.00000
     11       8.4916      0.00000
     12       9.0844      0.00000
     13       9.3077      0.00000
     14       9.4082      0.00000
     15      10.0966      0.00000
     16      10.3612      0.00000
     17      10.6727      0.00000
     18      10.7351      0.00000
     19      10.9783      0.00000
     20      11.2092      0.00000
     21      11.6381      0.00000
     22      11.8914      0.00000
     23      12.0823      0.00000
     24      12.2985      0.00000

 k-point    68 :      -0.3750    0.4583    0.0000
  band No.  band energies     occupation 
      1     -18.5897      2.00000
      2     -14.8256      2.00000
      3      -9.9574      2.00000
      4      -6.2252      2.00000
      5      -0.4525      0.00000
      6       4.9530      0.00000
      7       5.8081      0.00000
      8       6.6219      0.00000
      9       6.9745      0.00000
     10       7.2529      0.00000
     11       7.4764      0.00000
     12       8.0742      0.00000
     13       8.3912      0.00000
     14       9.2469      0.00000
     15       9.6701      0.00000
     16      10.6350      0.00000
     17      10.6775      0.00000
     18      11.3090      0.00000
     19      11.5033      0.00000
     20      12.4325      0.00000
     21      12.4958      0.00000
     22      12.7593      0.00000
     23      12.8465      0.00000
     24      13.3300      0.00000

 k-point    69 :      -0.2917    0.4583    0.0000
  band No.  band energies     occupation 
      1     -18.9640      2.00000
      2     -13.6452      2.00000
      3     -10.9832      2.00000
      4      -6.5253      2.00000
      5       0.2582      0.00000
      6       5.2451      0.00000
      7       6.0268      0.00000
      8       6.4081      0.00000
      9       6.6795      0.00000
     10       6.8596      0.00000
     11       6.9467      0.00000
     12       7.4913      0.00000
     13       7.8340      0.00000
     14       8.6425      0.00000
     15       9.1138      0.00000
     16       9.9899      0.00000
     17      10.4577      0.00000
     18      10.7793      0.00000
     19      11.2143      0.00000
     20      12.6466      0.00000
     21      12.7452      0.00000
     22      13.8786      0.00000
     23      14.4040      0.00000
     24      14.7933      0.00000

 k-point    70 :      -0.2083    0.4583    0.0000
  band No.  band energies     occupation 
      1     -19.0377      2.00000
      2     -13.1652      2.00000
      3     -11.4560      2.00000
      4      -6.5861      2.00000
      5       0.4471      0.00000
      6       5.1411      0.00000
      7       5.9020      0.00000
      8       6.2982      0.00000
      9       6.5658      0.00000
     10       6.8006      0.00000
     11       7.3733      0.00000
     12       7.7013      0.00000
     13       7.9967      0.00000
     14       8.5141      0.00000
     15       9.0074      0.00000
     16       9.4894      0.00000
     17       9.8332      0.00000
     18      10.6547      0.00000
     19      11.0597      0.00000
     20      12.5671      0.00000
     21      12.6394      0.00000
     22      14.6271      0.00000
     23      14.8478      0.00000
     24      14.9849      0.00000

 k-point    71 :      -0.1250    0.4583    0.0000
  band No.  band energies     occupation 
      1     -18.8058      2.00000
      2     -14.2188      2.00000
      3     -10.4637      2.00000
      4      -6.3913      2.00000
      5      -0.0570      0.00000
      6       5.4442      0.00000
      7       5.7875      0.00000
      8       6.2775      0.00000
      9       6.6439      0.00000
     10       6.9184      0.00000
     11       7.1476      0.00000
     12       7.7353      0.00000
     13       8.0643      0.00000
     14       8.8979      0.00000
     15       9.3451      0.00000
     16      10.2763      0.00000
     17      10.9485      0.00000
     18      11.1053      0.00000
     19      11.4584      0.00000
     20      12.7112      0.00000
     21      12.9600      0.00000
     22      13.3972      0.00000
     23      13.5785      0.00000
     24      13.5924      0.00000

 k-point    72 :      -0.0417    0.4583    0.0000
  band No.  band energies     occupation 
      1     -18.2843      2.00000
      2     -15.3579      2.00000
      3      -9.6782      2.00000
      4      -5.9926      2.00000
      5      -0.8370      0.00000
      6       4.3241      0.00000
      7       6.2507      0.00000
      8       7.0896      0.00000
      9       7.4444      0.00000
     10       7.7227      0.00000
     11       7.9440      0.00000
     12       8.5435      0.00000
     13       8.8557      0.00000
     14       9.7122      0.00000
     15      10.0268      0.00000
     16      10.1421      0.00000
     17      10.7975      0.00000
     18      11.3269      0.00000
     19      11.5607      0.00000
     20      11.7646      0.00000
     21      11.7982      0.00000
     22      12.0215      0.00000
     23      12.4828      0.00000
     24      12.8762      0.00000


--------------------------------------------------------------------------------------------------------


 soft charge-density along one line, spin component           1
         0         1         2         3         4         5         6         7         8         9
 total charge-density along one line
 
 pseudopotential strength for first ion, spin component:           1
 12.715  21.397   0.000  -0.000   0.000   0.000  -0.000   0.000
 21.397  36.006   0.000  -0.000   0.000   0.000  -0.000   0.000
  0.000   0.000  -3.175   0.000   0.000  -5.691   0.000   0.000
 -0.000  -0.000   0.000  -3.176  -0.000   0.000  -5.693  -0.000
  0.000   0.000   0.000  -0.000  -3.175   0.000  -0.000  -5.691
  0.000   0.000  -5.691   0.000   0.000 -10.179   0.000   0.000
 -0.000  -0.000   0.000  -5.693  -0.000   0.000 -10.182  -0.000
  0.000   0.000   0.000  -0.000  -5.691   0.000  -0.000 -10.179
 total augmentation occupancy for first ion, spin component:           1
  7.801  -2.729  -0.002   0.000  -0.021   0.001   0.000   0.009
 -2.729   0.992   0.001   0.000   0.009  -0.000   0.000  -0.004
 -0.002   0.001   7.372   0.000   0.002  -2.513   0.000   0.000
  0.000   0.000   0.000   3.307   0.000   0.000  -0.892   0.000
 -0.021   0.009   0.002   0.000   7.376   0.000   0.000  -2.514
  0.001  -0.000  -2.513   0.000   0.000   0.870   0.000  -0.000
  0.000   0.000   0.000  -0.892   0.000   0.000   0.247   0.000
  0.009  -0.004   0.000   0.000  -2.514  -0.000   0.000   0.871


------------------------ aborting loop because EDIFF is reached ----------------------------------------


    CHARGE:  cpu time    0.2350: real time    0.2359
    FORLOC:  cpu time    0.0010: real time    0.0006
    FORNL :  cpu time    0.1420: real time    0.1423
    STRESS:  cpu time    2.0067: real time    2.0091
    FORCOR:  cpu time    0.0130: real time    0.0137
    FORHAR:  cpu time    0.0040: real time    0.0033
    MIXING:  cpu time    0.0000: real time    0.0007
    OFIELD:  cpu time    0.0000: real time    0.0001

  Number of pair interactions contributing to vdW energy:   10161
  Edisp (eV):   -0.10827
    FORVDW:  cpu time    0.0020: real time    0.0014

  FORCE on cell =-STRESS in cart. coord.  units (eV):
  Direction    XX          YY          ZZ          XY          YZ          ZX
  --------------------------------------------------------------------------------------
  Alpha Z     1.37230     1.37230     1.37230
  Ewald    2500.66695  2500.56524 -2769.22604     0.05805     0.00000     0.00000
  Hartree  2462.29424  2462.27703 -2450.96907     0.02555    -0.00000    -0.00000
  E(xc)     -32.39915   -32.39942   -33.35836    -0.00249    -0.00000    -0.00000
  Local   -5078.51424 -5078.40552  5090.50186    -0.08529     0.00000    -0.00000
  n-local     8.25997     8.25766     6.82998    -0.02296     0.00000    -0.00000
  augment     0.14275     0.14272     0.11791     0.00031    -0.00000    -0.00000
  Kinetic   137.99617   138.03893   154.68475     0.18844    -0.00000     0.00000
  Fock        0.00000     0.00000     0.00000     0.00000     0.00000     0.00000
  vdW        -0.00393    -0.00381    -0.00007    -0.00082     0.00000     0.00000
  -------------------------------------------------------------------------------------
  Total      -0.18495    -0.15486    -0.04675     0.16080     0.00000     0.00000
  in kB      -1.85443    -1.55273    -0.46870     1.61230     0.00000     0.00000
  external pressure =       -1.29 kB  Pullay stress =        0.00 kB


 VOLUME and BASIS-vectors are now :
 -----------------------------------------------------------------------------
  energy-cutoff  :      875.00
  volume of cell :      159.79
      direct lattice vectors                 reciprocal lattice vectors
     1.237769769 -2.139771468  0.000000000     0.404729757 -0.233220112  0.000000000
     1.230644054  2.135657445  0.000000000     0.405509408  0.234570511  0.000000000
     0.000000000  0.000000000 30.282393743     0.000000000  0.000000000  0.033022489

  length of vectors
     2.471982188  2.464856489 30.282393743     0.467116470  0.468466866  0.033022489


 FORCES acting on ions
    electron-ion (+dipol)            ewald-force                    non-local-force                 convergence-correction
 -----------------------------------------------------------------------------------------------
   -.659E+00 -.497E-01 -.743E-07   0.596E+00 0.413E-01 0.000E+00   0.642E-01 0.792E-02 0.000E+00   0.149E-03 -.529E-04 -.960E-12
   0.659E+00 0.497E-01 0.273E-06   -.596E+00 -.413E-01 0.000E+00   -.642E-01 -.792E-02 0.000E+00   -.149E-03 0.529E-04 -.960E-12
 -----------------------------------------------------------------------------------------------
   -.128E-05 0.161E-04 0.199E-06   -.111E-14 0.144E-14 0.000E+00   0.000E+00 0.000E+00 0.000E+00   0.137E-09 0.736E-10 -.192E-11
 
 
 POSITION                                       TOTAL-FORCE (eV/Angst)
 -----------------------------------------------------------------------------------
      0.00038     -0.00012     15.14120        -0.000147     -0.000532      0.000000
      1.23502     -0.71452     15.14120         0.000147      0.000532      0.000000
 -----------------------------------------------------------------------------------
    total drift:                               -0.000001      0.000016      0.000000


--------------------------------------------------------------------------------------------------------



  FREE ENERGIE OF THE ION-ELECTRON SYSTEM (eV)
  ---------------------------------------------------
  free  energy   TOTEN  =       -18.59513784 eV

  energy  without entropy=      -18.59513784  energy(sigma->0) =      -18.59513784
 
 d Force = 0.3095102E-03[-0.265E-07, 0.619E-03]  d Energy = 0.3092206E-03 0.290E-06
 d Force =-0.8763882E-03[-0.188E-02, 0.129E-03]  d Ewald  =-0.8778127E-03 0.142E-05


--------------------------------------------------------------------------------------------------------


    POTLOK:  cpu time    0.0220: real time    0.0216


--------------------------------------------------------------------------------------------------------


 stress matrix after NEB project (eV)
     -0.18495      0.16080      0.00000
      0.16080     -0.15486      0.00000
      0.00000      0.00000     -0.04675
  FORCES: max atom, RMS     0.000552    0.000552
  FORCE total and by dimension    0.000781    0.000532
  Stress total and by dimension    0.334797    0.184951


--------------------------------------------------------------------------------------------------------


  
 reached required accuracy - stopping structural energy minimisation
     LOOP+:  cpu time   28.1617: real time   28.3065
    4ORBIT:  cpu time    0.0000: real time    0.0000

 total amount of memory used by VASP MPI-rank0    94597. kBytes
=======================================================================

   base      :      30000. kBytes
   nonl-proj :      43987. kBytes
   fftplans  :       1579. kBytes
   grid      :       8077. kBytes
   one-center:          6. kBytes
   wavefun   :      10948. kBytes
 
  
  
 General timing and accounting informations for this job:
 ========================================================
  
                  Total CPU time used (sec):      191.183
                            User time (sec):      189.757
                          System time (sec):        1.426
                         Elapsed time (sec):      193.493
  
                   Maximum memory used (kb):      208880.
                   Average memory used (kb):           0.
  
                          Minor page faults:       156161
                          Major page faults:          279
                 Voluntary context switches:         9754
