unknown system                          
           1
     1.237770   -2.139771    0.000000
     1.230644    2.135657    0.000000
     0.000000    0.000000   30.282394
   C 
   2
Direct configuration=     1
   0.00000262  0.99999738  0.50000000
   0.66666738  0.33333262  0.50000000
Direct configuration=     2
   0.00094387  0.00066856  0.50000000
   0.66572613  0.33266144  0.50000000
Direct configuration=     3
   0.00018157  0.00012498  0.50000000
   0.66648843  0.33320502  0.50000000
