   4   4   0   0
  0.1940382E+02  0.4497119E-09  0.4154382E-09  0.4154382E-09  0.2000000E-15
  1.000000000000000E-004
  CAR 
 unknown system                          
     17.69184265     -2.10252601  301      7.46140762      1.00000000
     -2.103  0.0000E+00  0.0000E+00
     -2.037  0.0000E+00  0.0000E+00
     -1.971  0.0000E+00  0.0000E+00
     -1.905  0.0000E+00  0.0000E+00
     -1.839  0.0000E+00  0.0000E+00
     -1.773  0.0000E+00  0.0000E+00
     -1.707  0.0000E+00  0.0000E+00
     -1.641  0.1266E-17  0.8355E-19
     -1.575  0.1158E-14  0.7650E-16
     -1.509  0.4590E-12  0.3036E-13
     -1.443  0.8034E-10  0.5331E-11
     -1.377  0.6375E-08  0.4259E-09
     -1.311  0.2375E-06  0.1610E-07
     -1.245  0.4339E-05  0.3024E-06
     -1.179  0.4060E-04  0.2981E-05
     -1.113  0.2030E-03  0.1637E-04
     -1.047  0.5702E-03  0.5400E-04
     -0.981  0.1012E-02  0.1207E-03
     -0.915  0.1437E-02  0.2156E-03
     -0.849  0.1855E-02  0.3380E-03
     -0.783  0.2014E-02  0.4709E-03
     -0.717  0.2197E-02  0.6158E-03
     -0.651  0.2612E-02  0.7882E-03
     -0.585  0.2858E-02  0.9768E-03
     -0.519  0.3040E-02  0.1177E-02
     -0.453  0.3162E-02  0.1386E-02
     -0.387  0.3138E-02  0.1593E-02
     -0.321  0.3538E-02  0.1826E-02
     -0.255  0.4143E-02  0.2100E-02
     -0.189  0.4264E-02  0.2381E-02
     -0.123  0.4140E-02  0.2654E-02
     -0.057  0.4074E-02  0.2923E-02
      0.009  0.4461E-02  0.3217E-02
      0.075  0.5132E-02  0.3556E-02
      0.141  0.5289E-02  0.3905E-02
      0.207  0.5192E-02  0.4248E-02
      0.273  0.5721E-02  0.4625E-02
      0.339  0.6210E-02  0.5035E-02
      0.405  0.6090E-02  0.5437E-02
      0.471  0.5890E-02  0.5825E-02
      0.537  0.6230E-02  0.6236E-02
      0.603  0.7286E-02  0.6717E-02
      0.669  0.8449E-02  0.7274E-02
      0.735  0.8477E-02  0.7834E-02
      0.801  0.7914E-02  0.8356E-02
      0.867  0.8422E-02  0.8912E-02
      0.933  0.9531E-02  0.9541E-02
      0.999  0.1070E-01  0.1025E-01
      1.065  0.1197E-01  0.1104E-01
      1.131  0.1322E-01  0.1191E-01
      1.197  0.1656E-01  0.1300E-01
      1.263  0.2224E-01  0.1447E-01
      1.328  0.2694E-01  0.1625E-01
      1.394  0.2994E-01  0.1822E-01
      1.460  0.3297E-01  0.2040E-01
      1.526  0.3673E-01  0.2282E-01
      1.592  0.4174E-01  0.2558E-01
      1.658  0.4782E-01  0.2873E-01
      1.724  0.5404E-01  0.3230E-01
      1.790  0.6187E-01  0.3638E-01
      1.856  0.7211E-01  0.4114E-01
      1.922  0.8019E-01  0.4643E-01
      1.988  0.8557E-01  0.5207E-01
      2.054  0.8902E-01  0.5795E-01
      2.120  0.8791E-01  0.6375E-01
      2.186  0.8534E-01  0.6938E-01
      2.252  0.8247E-01  0.7482E-01
      2.318  0.7902E-01  0.8003E-01
      2.384  0.7585E-01  0.8504E-01
      2.450  0.7160E-01  0.8976E-01
      2.516  0.6702E-01  0.9418E-01
      2.582  0.6287E-01  0.9833E-01
      2.648  0.6182E-01  0.1024E+00
      2.714  0.6793E-01  0.1069E+00
      2.780  0.7829E-01  0.1121E+00
      2.846  0.9024E-01  0.1180E+00
      2.912  0.1017E+00  0.1247E+00
      2.978  0.1065E+00  0.1318E+00
      3.044  0.1074E+00  0.1388E+00
      3.110  0.1098E+00  0.1461E+00
      3.176  0.1101E+00  0.1533E+00
      3.242  0.1055E+00  0.1603E+00
      3.308  0.9968E-01  0.1669E+00
      3.374  0.9879E-01  0.1734E+00
      3.440  0.1033E+00  0.1802E+00
      3.506  0.1089E+00  0.1874E+00
      3.572  0.1141E+00  0.1949E+00
      3.638  0.1186E+00  0.2028E+00
      3.704  0.1193E+00  0.2106E+00
      3.770  0.1165E+00  0.2183E+00
      3.836  0.1141E+00  0.2258E+00
      3.902  0.1094E+00  0.2331E+00
      3.968  0.1004E+00  0.2397E+00
      4.034  0.9191E-01  0.2458E+00
      4.100  0.8838E-01  0.2516E+00
      4.166  0.9186E-01  0.2577E+00
      4.232  0.9889E-01  0.2642E+00
      4.298  0.1038E+00  0.2710E+00
      4.364  0.1038E+00  0.2779E+00
      4.430  0.1010E+00  0.2845E+00
      4.496  0.1011E+00  0.2912E+00
      4.562  0.1019E+00  0.2979E+00
      4.628  0.9889E-01  0.3045E+00
      4.694  0.9574E-01  0.3108E+00
      4.760  0.9514E-01  0.3171E+00
      4.826  0.9461E-01  0.3233E+00
      4.891  0.9191E-01  0.3294E+00
      4.957  0.8771E-01  0.3352E+00
      5.023  0.8674E-01  0.3409E+00
      5.089  0.8885E-01  0.3467E+00
      5.155  0.8982E-01  0.3527E+00
      5.221  0.9252E-01  0.3588E+00
      5.287  0.1009E+00  0.3654E+00
      5.353  0.1135E+00  0.3729E+00
      5.419  0.1267E+00  0.3813E+00
      5.485  0.1355E+00  0.3902E+00
      5.551  0.1337E+00  0.3990E+00
      5.617  0.1157E+00  0.4067E+00
      5.683  0.8065E-01  0.4120E+00
      5.749  0.4830E-01  0.4152E+00
      5.815  0.3361E-01  0.4174E+00
      5.881  0.2664E-01  0.4192E+00
      5.947  0.2107E-01  0.4205E+00
      6.013  0.1914E-01  0.4218E+00
      6.079  0.1808E-01  0.4230E+00
      6.145  0.1679E-01  0.4241E+00
      6.211  0.1459E-01  0.4251E+00
      6.277  0.1104E-01  0.4258E+00
      6.343  0.8912E-02  0.4264E+00
      6.409  0.9999E-02  0.4270E+00
      6.475  0.1358E-01  0.4279E+00
      6.541  0.1568E-01  0.4290E+00
      6.607  0.1388E-01  0.4299E+00
      6.673  0.1073E-01  0.4306E+00
      6.739  0.8961E-02  0.4312E+00
      6.805  0.8953E-02  0.4318E+00
      6.871  0.1108E-01  0.4325E+00
      6.937  0.1465E-01  0.4335E+00
      7.003  0.1559E-01  0.4345E+00
      7.069  0.1347E-01  0.4354E+00
      7.135  0.1137E-01  0.4361E+00
      7.201  0.1043E-01  0.4368E+00
      7.267  0.1039E-01  0.4375E+00
      7.333  0.1183E-01  0.4383E+00
      7.399  0.1330E-01  0.4392E+00
      7.465  0.1312E-01  0.4400E+00
      7.531  0.1300E-01  0.4409E+00
      7.597  0.1312E-01  0.4418E+00
      7.663  0.1200E-01  0.4426E+00
      7.729  0.1084E-01  0.4433E+00
      7.795  0.1092E-01  0.4440E+00
      7.861  0.1191E-01  0.4448E+00
      7.927  0.1306E-01  0.4456E+00
      7.993  0.1315E-01  0.4465E+00
      8.059  0.1259E-01  0.4473E+00
      8.125  0.1206E-01  0.4481E+00
      8.191  0.1185E-01  0.4489E+00
      8.257  0.1174E-01  0.4497E+00
      8.323  0.1145E-01  0.4504E+00
      8.388  0.1176E-01  0.4512E+00
      8.454  0.1240E-01  0.4520E+00
      8.520  0.1249E-01  0.4529E+00
      8.586  0.1166E-01  0.4536E+00
      8.652  0.1152E-01  0.4544E+00
      8.718  0.1206E-01  0.4552E+00
      8.784  0.1176E-01  0.4560E+00
      8.850  0.1196E-01  0.4568E+00
      8.916  0.1253E-01  0.4576E+00
      8.982  0.1160E-01  0.4583E+00
      9.048  0.1024E-01  0.4590E+00
      9.114  0.1035E-01  0.4597E+00
      9.180  0.1160E-01  0.4605E+00
      9.246  0.1220E-01  0.4613E+00
      9.312  0.1162E-01  0.4620E+00
      9.378  0.1151E-01  0.4628E+00
      9.444  0.1216E-01  0.4636E+00
      9.510  0.1182E-01  0.4644E+00
      9.576  0.1121E-01  0.4651E+00
      9.642  0.1181E-01  0.4659E+00
      9.708  0.1194E-01  0.4667E+00
      9.774  0.1107E-01  0.4674E+00
      9.840  0.1140E-01  0.4682E+00
      9.906  0.1418E-01  0.4691E+00
      9.972  0.1791E-01  0.4703E+00
     10.038  0.2003E-01  0.4716E+00
     10.104  0.1880E-01  0.4729E+00
     10.170  0.1615E-01  0.4739E+00
     10.236  0.1586E-01  0.4750E+00
     10.302  0.1700E-01  0.4761E+00
     10.368  0.1714E-01  0.4772E+00
     10.434  0.1591E-01  0.4783E+00
     10.500  0.1380E-01  0.4792E+00
     10.566  0.1238E-01  0.4800E+00
     10.632  0.1156E-01  0.4808E+00
     10.698  0.1064E-01  0.4815E+00
     10.764  0.1147E-01  0.4822E+00
     10.830  0.1315E-01  0.4831E+00
     10.896  0.1402E-01  0.4840E+00
     10.962  0.1464E-01  0.4850E+00
     11.028  0.1381E-01  0.4859E+00
     11.094  0.1084E-01  0.4866E+00
     11.160  0.8843E-02  0.4872E+00
     11.226  0.9294E-02  0.4878E+00
     11.292  0.9672E-02  0.4884E+00
     11.358  0.9282E-02  0.4891E+00
     11.424  0.9587E-02  0.4897E+00
     11.490  0.1081E-01  0.4904E+00
     11.556  0.1244E-01  0.4912E+00
     11.622  0.1411E-01  0.4921E+00
     11.688  0.1420E-01  0.4931E+00
     11.754  0.1289E-01  0.4939E+00
     11.820  0.1280E-01  0.4948E+00
     11.885  0.1460E-01  0.4957E+00
     11.951  0.1535E-01  0.4968E+00
     12.017  0.1328E-01  0.4976E+00
     12.083  0.1161E-01  0.4984E+00
     12.149  0.1167E-01  0.4992E+00
     12.215  0.1227E-01  0.5000E+00
     12.281  0.1427E-01  0.5009E+00
     12.347  0.1608E-01  0.5020E+00
     12.413  0.1583E-01  0.5030E+00
     12.479  0.1529E-01  0.5040E+00
     12.545  0.1492E-01  0.5050E+00
     12.611  0.1384E-01  0.5059E+00
     12.677  0.1376E-01  0.5068E+00
     12.743  0.1505E-01  0.5078E+00
     12.809  0.1606E-01  0.5089E+00
     12.875  0.1595E-01  0.5099E+00
     12.941  0.1473E-01  0.5109E+00
     13.007  0.1463E-01  0.5119E+00
     13.073  0.1516E-01  0.5129E+00
     13.139  0.1424E-01  0.5138E+00
     13.205  0.1188E-01  0.5146E+00
     13.271  0.1026E-01  0.5153E+00
     13.337  0.1087E-01  0.5160E+00
     13.403  0.1131E-01  0.5167E+00
     13.469  0.1077E-01  0.5175E+00
     13.535  0.1090E-01  0.5182E+00
     13.601  0.1101E-01  0.5189E+00
     13.667  0.1025E-01  0.5196E+00
     13.733  0.8514E-02  0.5201E+00
     13.799  0.7507E-02  0.5206E+00
     13.865  0.9825E-02  0.5213E+00
     13.931  0.1416E-01  0.5222E+00
     13.997  0.1604E-01  0.5233E+00
     14.063  0.1430E-01  0.5242E+00
     14.129  0.1149E-01  0.5250E+00
     14.195  0.9130E-02  0.5256E+00
     14.261  0.8142E-02  0.5261E+00
     14.327  0.9375E-02  0.5267E+00
     14.393  0.1126E-01  0.5275E+00
     14.459  0.1200E-01  0.5283E+00
     14.525  0.1216E-01  0.5291E+00
     14.591  0.1173E-01  0.5299E+00
     14.657  0.1020E-01  0.5305E+00
     14.723  0.8578E-02  0.5311E+00
     14.789  0.7323E-02  0.5316E+00
     14.855  0.7044E-02  0.5320E+00
     14.921  0.8597E-02  0.5326E+00
     14.987  0.1100E-01  0.5333E+00
     15.053  0.1187E-01  0.5341E+00
     15.119  0.1110E-01  0.5348E+00
     15.185  0.1048E-01  0.5355E+00
     15.251  0.9897E-02  0.5362E+00
     15.317  0.8283E-02  0.5367E+00
     15.382  0.6375E-02  0.5372E+00
     15.448  0.5019E-02  0.5375E+00
     15.514  0.4151E-02  0.5378E+00
     15.580  0.3799E-02  0.5380E+00
     15.646  0.3989E-02  0.5383E+00
     15.712  0.4339E-02  0.5386E+00
     15.778  0.3939E-02  0.5388E+00
     15.844  0.2433E-02  0.5390E+00
     15.910  0.1387E-02  0.5391E+00
     15.976  0.1548E-02  0.5392E+00
     16.042  0.1869E-02  0.5393E+00
     16.108  0.1940E-02  0.5394E+00
     16.174  0.2233E-02  0.5396E+00
     16.240  0.2352E-02  0.5397E+00
     16.306  0.1699E-02  0.5398E+00
     16.372  0.7408E-03  0.5399E+00
     16.438  0.1770E-03  0.5399E+00
     16.504  0.4111E-04  0.5399E+00
     16.570  0.1300E-03  0.5399E+00
     16.636  0.3719E-03  0.5399E+00
     16.702  0.4980E-03  0.5400E+00
     16.768  0.3118E-03  0.5400E+00
     16.834  0.9133E-04  0.5400E+00
     16.900  0.1245E-04  0.5400E+00
     16.966  0.7811E-06  0.5400E+00
     17.032  0.2223E-07  0.5400E+00
     17.098  0.2827E-09  0.5400E+00
     17.164  0.1584E-11  0.5400E+00
     17.230  0.3870E-14  0.5400E+00
     17.296  0.4048E-17  0.5400E+00
     17.362  0.0000E+00  0.5400E+00
     17.428  0.0000E+00  0.5400E+00
     17.494  0.0000E+00  0.5400E+00
     17.560  0.0000E+00  0.5400E+00
     17.626  0.0000E+00  0.5400E+00
     17.692  0.0000E+00  0.5400E+00
