       N       E                     dE             d eps       ncg     rms          rms(c)
DAV:   1     0.267382766316E+03    0.26738E+03   -0.22352E+04 91881   0.150E+03
DAV:   2    -0.868179005711E+01   -0.27606E+03   -0.26774E+03106263   0.318E+02
DAV:   3    -0.136750471943E+02   -0.49933E+01   -0.49522E+01101430   0.446E+01
DAV:   4    -0.137066190424E+02   -0.31572E-01   -0.31552E-01104895   0.370E+00
DAV:   5    -0.137069424458E+02   -0.32340E-03   -0.32338E-03107091   0.383E-01    0.126E+01
RMM:   6    -0.127444557494E+02    0.96249E+00   -0.27246E+00 91160   0.106E+01    0.859E+00
RMM:   7    -0.127023684767E+02    0.42087E-01   -0.23448E-01 91252   0.293E+00    0.458E+00
RMM:   8    -0.126967490891E+02    0.56194E-02   -0.92895E-03 91212   0.623E-01    0.486E-01
RMM:   9    -0.126965905170E+02    0.15857E-03   -0.44680E-04 91195   0.123E-01    0.369E-02
RMM:  10    -0.126966133494E+02   -0.22832E-04   -0.28922E-05 91248   0.394E-02    0.180E-02
RMM:  11    -0.126966143185E+02   -0.96912E-06   -0.13830E-06 51339   0.656E-03
   1 F= -.12696614E+02 E0= -.12693390E+02  d E =-.126966E+02
