   4   4   0   0
  0.1838990E+02  0.4189992E-09  0.4189991E-09  0.4189991E-09  0.2000000E-15
  1.000000000000000E-004
  CAR 
 unknown system                          
     18.33317481     -1.82118991  301      8.29075121      1.00000000
     -1.821  0.0000E+00  0.0000E+00
     -1.754  0.0000E+00  0.0000E+00
     -1.687  0.0000E+00  0.0000E+00
     -1.620  0.0000E+00  0.0000E+00
     -1.552  0.0000E+00  0.0000E+00
     -1.485  0.0000E+00  0.0000E+00
     -1.418  0.0000E+00  0.0000E+00
     -1.351  0.3090E-17  0.2076E-18
     -1.284  0.2815E-14  0.1893E-15
     -1.217  0.1083E-11  0.7298E-13
     -1.149  0.1789E-09  0.1209E-10
     -1.082  0.1306E-07  0.8896E-09
     -1.015  0.4394E-06  0.3041E-07
     -0.948  0.7160E-05  0.5114E-06
     -0.881  0.5938E-04  0.4501E-05
     -0.813  0.2620E-03  0.2210E-04
     -0.746  0.6505E-03  0.6580E-04
     -0.679  0.1051E-02  0.1364E-03
     -0.612  0.1462E-02  0.2347E-03
     -0.545  0.1845E-02  0.3586E-03
     -0.478  0.1892E-02  0.4857E-03
     -0.410  0.2098E-02  0.6267E-03
     -0.343  0.2603E-02  0.8015E-03
     -0.276  0.2777E-02  0.9881E-03
     -0.209  0.2867E-02  0.1181E-02
     -0.142  0.2941E-02  0.1378E-02
     -0.074  0.2894E-02  0.1573E-02
     -0.007  0.3480E-02  0.1807E-02
      0.060  0.4105E-02  0.2082E-02
      0.127  0.4200E-02  0.2364E-02
      0.194  0.3811E-02  0.2620E-02
      0.261  0.3362E-02  0.2846E-02
      0.329  0.4152E-02  0.3125E-02
      0.396  0.5301E-02  0.3481E-02
      0.463  0.5447E-02  0.3847E-02
      0.530  0.5052E-02  0.4187E-02
      0.597  0.4856E-02  0.4513E-02
      0.665  0.5363E-02  0.4873E-02
      0.732  0.5839E-02  0.5266E-02
      0.799  0.5886E-02  0.5661E-02
      0.866  0.6065E-02  0.6068E-02
      0.933  0.6968E-02  0.6537E-02
      1.000  0.8059E-02  0.7078E-02
      1.068  0.7834E-02  0.7604E-02
      1.135  0.7289E-02  0.8094E-02
      1.202  0.7149E-02  0.8574E-02
      1.269  0.8250E-02  0.9129E-02
      1.336  0.1093E-01  0.9863E-02
      1.404  0.1240E-01  0.1070E-01
      1.471  0.1151E-01  0.1147E-01
      1.538  0.1299E-01  0.1234E-01
      1.605  0.1885E-01  0.1361E-01
      1.672  0.2458E-01  0.1526E-01
      1.739  0.2790E-01  0.1713E-01
      1.807  0.2861E-01  0.1906E-01
      1.874  0.2989E-01  0.2106E-01
      1.941  0.3611E-01  0.2349E-01
      2.008  0.4343E-01  0.2641E-01
      2.075  0.4898E-01  0.2970E-01
      2.143  0.5510E-01  0.3340E-01
      2.210  0.6359E-01  0.3767E-01
      2.277  0.7232E-01  0.4253E-01
      2.344  0.7859E-01  0.4781E-01
      2.411  0.8207E-01  0.5332E-01
      2.478  0.8155E-01  0.5880E-01
      2.546  0.8043E-01  0.6421E-01
      2.613  0.7779E-01  0.6943E-01
      2.680  0.7324E-01  0.7435E-01
      2.747  0.7305E-01  0.7926E-01
      2.814  0.7181E-01  0.8408E-01
      2.881  0.6809E-01  0.8866E-01
      2.949  0.6480E-01  0.9301E-01
      3.016  0.5797E-01  0.9691E-01
      3.083  0.5457E-01  0.1006E+00
      3.150  0.5809E-01  0.1045E+00
      3.217  0.6364E-01  0.1087E+00
      3.285  0.7094E-01  0.1135E+00
      3.352  0.7931E-01  0.1188E+00
      3.419  0.8593E-01  0.1246E+00
      3.486  0.8973E-01  0.1306E+00
      3.553  0.8936E-01  0.1366E+00
      3.620  0.8724E-01  0.1425E+00
      3.688  0.8982E-01  0.1485E+00
      3.755  0.9344E-01  0.1548E+00
      3.822  0.9360E-01  0.1611E+00
      3.889  0.9346E-01  0.1674E+00
      3.956  0.9753E-01  0.1739E+00
      4.024  0.1071E+00  0.1811E+00
      4.091  0.1218E+00  0.1893E+00
      4.158  0.1364E+00  0.1985E+00
      4.225  0.1450E+00  0.2082E+00
      4.292  0.1406E+00  0.2177E+00
      4.359  0.1194E+00  0.2257E+00
      4.427  0.9872E-01  0.2323E+00
      4.494  0.8800E-01  0.2382E+00
      4.561  0.8091E-01  0.2437E+00
      4.628  0.7700E-01  0.2488E+00
      4.695  0.7407E-01  0.2538E+00
      4.763  0.7214E-01  0.2587E+00
      4.830  0.7389E-01  0.2636E+00
      4.897  0.7968E-01  0.2690E+00
      4.964  0.8832E-01  0.2749E+00
      5.031  0.9369E-01  0.2812E+00
      5.098  0.9417E-01  0.2875E+00
      5.166  0.9627E-01  0.2940E+00
      5.233  0.9834E-01  0.3006E+00
      5.300  0.9420E-01  0.3069E+00
      5.367  0.8648E-01  0.3127E+00
      5.434  0.8418E-01  0.3184E+00
      5.502  0.8436E-01  0.3241E+00
      5.569  0.8018E-01  0.3295E+00
      5.636  0.7357E-01  0.3344E+00
      5.703  0.7078E-01  0.3392E+00
      5.770  0.7417E-01  0.3441E+00
      5.837  0.7831E-01  0.3494E+00
      5.905  0.7799E-01  0.3546E+00
      5.972  0.7978E-01  0.3600E+00
      6.039  0.8811E-01  0.3659E+00
      6.106  0.9436E-01  0.3723E+00
      6.173  0.1045E+00  0.3793E+00
      6.241  0.1253E+00  0.3877E+00
      6.308  0.1343E+00  0.3967E+00
      6.375  0.1169E+00  0.4046E+00
      6.442  0.8860E-01  0.4105E+00
      6.509  0.6215E-01  0.4147E+00
      6.576  0.4479E-01  0.4177E+00
      6.644  0.3475E-01  0.4200E+00
      6.711  0.2604E-01  0.4218E+00
      6.778  0.1565E-01  0.4228E+00
      6.845  0.8035E-02  0.4234E+00
      6.912  0.6861E-02  0.4238E+00
      6.980  0.9762E-02  0.4245E+00
      7.047  0.1405E-01  0.4254E+00
      7.114  0.1546E-01  0.4265E+00
      7.181  0.1289E-01  0.4273E+00
      7.248  0.9689E-02  0.4280E+00
      7.315  0.8572E-02  0.4286E+00
      7.383  0.1070E-01  0.4293E+00
      7.450  0.1429E-01  0.4302E+00
      7.517  0.1497E-01  0.4313E+00
      7.584  0.1268E-01  0.4321E+00
      7.651  0.1023E-01  0.4328E+00
      7.719  0.8752E-02  0.4334E+00
      7.786  0.9412E-02  0.4340E+00
      7.853  0.1230E-01  0.4348E+00
      7.920  0.1536E-01  0.4359E+00
      7.987  0.1516E-01  0.4369E+00
      8.054  0.1265E-01  0.4377E+00
      8.122  0.1084E-01  0.4385E+00
      8.189  0.9653E-02  0.4391E+00
      8.256  0.8642E-02  0.4397E+00
      8.323  0.9052E-02  0.4403E+00
      8.390  0.1190E-01  0.4411E+00
      8.458  0.1480E-01  0.4421E+00
      8.525  0.1551E-01  0.4431E+00
      8.592  0.1520E-01  0.4442E+00
      8.659  0.1312E-01  0.4450E+00
      8.726  0.9067E-02  0.4457E+00
      8.793  0.7372E-02  0.4462E+00
      8.861  0.9177E-02  0.4468E+00
      8.928  0.1098E-01  0.4475E+00
      8.995  0.1245E-01  0.4483E+00
      9.062  0.1364E-01  0.4493E+00
      9.129  0.1301E-01  0.4501E+00
      9.197  0.1229E-01  0.4510E+00
      9.264  0.1183E-01  0.4518E+00
      9.331  0.1085E-01  0.4525E+00
      9.398  0.1046E-01  0.4532E+00
      9.465  0.1202E-01  0.4540E+00
      9.532  0.1295E-01  0.4549E+00
      9.600  0.1114E-01  0.4556E+00
      9.667  0.1023E-01  0.4563E+00
      9.734  0.1135E-01  0.4571E+00
      9.801  0.1149E-01  0.4578E+00
      9.868  0.1141E-01  0.4586E+00
      9.936  0.1146E-01  0.4594E+00
     10.003  0.1075E-01  0.4601E+00
     10.070  0.1008E-01  0.4608E+00
     10.137  0.1125E-01  0.4615E+00
     10.204  0.1328E-01  0.4624E+00
     10.271  0.1233E-01  0.4632E+00
     10.339  0.9892E-02  0.4639E+00
     10.406  0.9184E-02  0.4645E+00
     10.473  0.9807E-02  0.4652E+00
     10.540  0.1052E-01  0.4659E+00
     10.607  0.1131E-01  0.4667E+00
     10.675  0.1160E-01  0.4674E+00
     10.742  0.1101E-01  0.4682E+00
     10.809  0.9660E-02  0.4688E+00
     10.876  0.9356E-02  0.4694E+00
     10.943  0.1447E-01  0.4704E+00
     11.010  0.2171E-01  0.4719E+00
     11.078  0.2226E-01  0.4734E+00
     11.145  0.1764E-01  0.4746E+00
     11.212  0.1365E-01  0.4755E+00
     11.279  0.1327E-01  0.4764E+00
     11.346  0.1560E-01  0.4774E+00
     11.414  0.1581E-01  0.4785E+00
     11.481  0.1393E-01  0.4794E+00
     11.548  0.1391E-01  0.4803E+00
     11.615  0.1473E-01  0.4813E+00
     11.682  0.1326E-01  0.4822E+00
     11.749  0.1010E-01  0.4829E+00
     11.817  0.7806E-02  0.4834E+00
     11.884  0.9080E-02  0.4840E+00
     11.951  0.1287E-01  0.4849E+00
     12.018  0.1391E-01  0.4858E+00
     12.085  0.1199E-01  0.4866E+00
     12.153  0.1055E-01  0.4874E+00
     12.220  0.9933E-02  0.4880E+00
     12.287  0.9223E-02  0.4886E+00
     12.354  0.8298E-02  0.4892E+00
     12.421  0.8815E-02  0.4898E+00
     12.488  0.1065E-01  0.4905E+00
     12.556  0.1213E-01  0.4913E+00
     12.623  0.1322E-01  0.4922E+00
     12.690  0.1356E-01  0.4931E+00
     12.757  0.1367E-01  0.4940E+00
     12.824  0.1329E-01  0.4949E+00
     12.891  0.1088E-01  0.4957E+00
     12.959  0.1063E-01  0.4964E+00
     13.026  0.1480E-01  0.4974E+00
     13.093  0.1759E-01  0.4986E+00
     13.160  0.1615E-01  0.4996E+00
     13.227  0.1293E-01  0.5005E+00
     13.295  0.1122E-01  0.5013E+00
     13.362  0.1213E-01  0.5021E+00
     13.429  0.1435E-01  0.5030E+00
     13.496  0.1677E-01  0.5042E+00
     13.563  0.1781E-01  0.5054E+00
     13.630  0.1619E-01  0.5065E+00
     13.698  0.1625E-01  0.5075E+00
     13.765  0.1776E-01  0.5087E+00
     13.832  0.1570E-01  0.5098E+00
     13.899  0.1220E-01  0.5106E+00
     13.966  0.9350E-02  0.5112E+00
     14.034  0.7944E-02  0.5118E+00
     14.101  0.8860E-02  0.5124E+00
     14.168  0.1137E-01  0.5131E+00
     14.235  0.1423E-01  0.5141E+00
     14.302  0.1417E-01  0.5150E+00
     14.369  0.1075E-01  0.5158E+00
     14.437  0.8785E-02  0.5164E+00
     14.504  0.8519E-02  0.5169E+00
     14.571  0.8394E-02  0.5175E+00
     14.638  0.1017E-01  0.5182E+00
     14.705  0.1365E-01  0.5191E+00
     14.773  0.1427E-01  0.5200E+00
     14.840  0.1228E-01  0.5209E+00
     14.907  0.1099E-01  0.5216E+00
     14.974  0.1050E-01  0.5223E+00
     15.041  0.1059E-01  0.5230E+00
     15.108  0.1184E-01  0.5238E+00
     15.176  0.1388E-01  0.5248E+00
     15.243  0.1314E-01  0.5256E+00
     15.310  0.9201E-02  0.5263E+00
     15.377  0.7783E-02  0.5268E+00
     15.444  0.9797E-02  0.5274E+00
     15.512  0.1056E-01  0.5281E+00
     15.579  0.9009E-02  0.5288E+00
     15.646  0.8430E-02  0.5293E+00
     15.713  0.1098E-01  0.5301E+00
     15.780  0.1619E-01  0.5311E+00
     15.847  0.1814E-01  0.5324E+00
     15.915  0.1345E-01  0.5333E+00
     15.982  0.8950E-02  0.5339E+00
     16.049  0.8558E-02  0.5344E+00
     16.116  0.8368E-02  0.5350E+00
     16.183  0.6861E-02  0.5355E+00
     16.251  0.6124E-02  0.5359E+00
     16.318  0.7512E-02  0.5364E+00
     16.385  0.1010E-01  0.5371E+00
     16.452  0.9550E-02  0.5377E+00
     16.519  0.5563E-02  0.5381E+00
     16.586  0.2338E-02  0.5382E+00
     16.654  0.1453E-02  0.5383E+00
     16.721  0.2127E-02  0.5385E+00
     16.788  0.2759E-02  0.5387E+00
     16.855  0.3076E-02  0.5389E+00
     16.922  0.3350E-02  0.5391E+00
     16.990  0.3206E-02  0.5393E+00
     17.057  0.2683E-02  0.5395E+00
     17.124  0.2071E-02  0.5396E+00
     17.191  0.1408E-02  0.5397E+00
     17.258  0.1377E-02  0.5398E+00
     17.325  0.1562E-02  0.5399E+00
     17.393  0.9490E-03  0.5400E+00
     17.460  0.2612E-03  0.5400E+00
     17.527  0.3225E-04  0.5400E+00
     17.594  0.1800E-05  0.5400E+00
     17.661  0.4591E-07  0.5400E+00
     17.729  0.5363E-09  0.5400E+00
     17.796  0.2844E-11  0.5400E+00
     17.863  0.6710E-14  0.5400E+00
     17.930  0.6875E-17  0.5400E+00
     17.997  0.0000E+00  0.5400E+00
     18.064  0.0000E+00  0.5400E+00
     18.132  0.0000E+00  0.5400E+00
     18.199  0.0000E+00  0.5400E+00
     18.266  0.0000E+00  0.5400E+00
     18.333  0.0000E+00  0.5400E+00
