 vasp.5.4.4.18Apr17-6-g9f103f2a35 (build Jan 14 2019 14:48:31) complex          
  
 executed on             LinuxIFC date 2019.11.19  22:32:35
 running on   24 total cores
 distrk:  each k-point on   24 cores,    1 groups
 distr:  one band on NCORES_PER_BAND=   8 cores,    3 groups


--------------------------------------------------------------------------------------------------------


 INCAR:
 POTCAR:    PAW_PBE Au 04Oct2007                  
 POTCAR:    PAW_PBE Au 04Oct2007                  
   VRHFIN =Au: s1d10                                                            
   LEXCH  = PE                                                                  
   EATOM  =   926.0867 eV,   68.0654 Ry                                         
                                                                                
   TITEL  = PAW_PBE Au 04Oct2007                                                
   LULTRA =        F    use ultrasoft PP ?                                      
   IUNSCR =        1    unscreen: 0-lin 1-nonlin 2-no                           
   RPACOR =    2.330    partial core radius                                     
   POMASS =  196.966; ZVAL   =   11.000    mass and valenz                      
   RCORE  =    2.500    outmost cutoff radius                                   
   RWIGS  =    2.840; RWIGS  =    1.503    wigner-seitz radius (au A)           
   ENMAX  =  229.943; ENMIN  =  172.457 eV                                      
   ICORE  =        3    local potential                                         
   LCOR   =        T    correct aug charges                                     
   LPAW   =        T    paw PP                                                  
   EAUG   =  356.670                                                            
   DEXC   =    0.000                                                            
   RMAX   =    2.562    core radius for proj-oper                               
   RAUG   =    1.300    factor for augmentation sphere                          
   RDEP   =    2.598    radius for radial grids                                 
   RDEPT  =    2.193    core radius for aug-charge                              
                                                                                
   Atomic configuration                                                         
   16 entries                                                                   
     n  l   j            E        occ.                                          
     1  0  0.50    -80748.5001   2.0000                                         
     2  0  0.50    -14244.7466   2.0000                                         
     2  1  1.50    -12310.9591   6.0000                                         
     3  0  0.50     -3362.1768   2.0000                                         
     3  1  1.50     -2801.5463   6.0000                                         
     3  2  2.50     -2203.8206  10.0000                                         
     4  0  0.50      -729.8168   2.0000                                         
     4  1  1.50      -546.0527   6.0000                                         
     4  2  2.50      -325.7302  10.0000                                         
     4  3  3.50       -81.1472  14.0000                                         
     5  0  0.50      -108.3201   2.0000                                         
     5  1  1.50       -59.7479   6.0000                                         
     5  2  2.50        -6.8783  10.0000                                         
     6  0  0.50        -5.7602   1.0000                                         
     6  1  1.50        -6.8029   0.0000                                         
     5  3  2.50        -1.3606   0.0000                                         
   Description                                                                  
     l       E           TYP  RCUT    TYP  RCUT                                 
     2     -6.8782861     23  2.500                                             
     2     -8.2388687     23  2.500                                             
     0     -5.7601759     23  2.500                                             
     0     -0.8493231     23  2.500                                             
     1     -2.7211652     23  2.500                                             
     1     27.2116520     23  2.500                                             
     3     -1.3605826     23  2.500                                             
  local pseudopotential read in
  partial core-charges read in
  partial kinetic energy density read in
  atomic valenz-charges read in
  non local Contribution for L=           2  read in
    real space projection operators read in
  non local Contribution for L=           2  read in
    real space projection operators read in
  non local Contribution for L=           0  read in
    real space projection operators read in
  non local Contribution for L=           0  read in
    real space projection operators read in
  non local Contribution for L=           1  read in
    real space projection operators read in
  non local Contribution for L=           1  read in
    real space projection operators read in
    PAW grid and wavefunctions read in
 
   number of l-projection  operators is LMAX  =           6
   number of lm-projection operators is LMMAX =          18
 
  PAW_PBE Au 04Oct2007                  :
 energy of atom  1       EATOM= -926.0867
 kinetic energy error for atom=    0.0042 (will be added to EATOM!!)
 
 
 POSCAR: Au4                                     
  positions in direct lattice
  velocities in cartesian coordinates
 exchange correlation table for  LEXCH =        8
   RHO(1)=    0.500       N(1)  =     2000
   RHO(2)=  100.500       N(2)  =     4000

 VTST: version 3.1, (03/28/14)

 CHAIN: initializing optimizer
 
 OPT: Using VASP Conjugate-Gradient optimizer
 CHAIN: Read ICHAIN            0
 
 POSCAR: Au4                                     
  positions in direct lattice
  velocities in cartesian coordinates
 


--------------------------------------------------------------------------------------------------------


 ion  position               nearest neighbor table
   1  1.000  0.000  0.000-   2 2.96   2 2.96   3 2.96   2 2.96   4 2.96   4 2.96   2 2.96   3 2.96
                             4 2.96   4 2.96   3 2.96   3 2.96
   2  0.000  0.500  0.500-   1 2.96   1 2.96   4 2.96   1 2.96   3 2.96   3 2.96   1 2.96   4 2.96
                             3 2.96   3 2.96   4 2.96   4 2.96
   3  0.500  1.000  0.500-   4 2.96   4 2.96   1 2.96   4 2.96   2 2.96   2 2.96   4 2.96   1 2.96
                             2 2.96   2 2.96   1 2.96   1 2.96
   4  0.500  0.500  1.000-   3 2.96   3 2.96   2 2.96   3 2.96   1 2.96   1 2.96   3 2.96   2 2.96
                             1 2.96   1 2.96   2 2.96   2 2.96
 

IMPORTANT INFORMATION: All symmetrisations will be switched off!
NOSYMM: (Re-)initialisation of all symmetry stuff for point group C_1.

 
 
 KPOINTS: automatic-generation                    

Automatic generation of k-mesh.
Space group operators:
 irot       det(A)        alpha          n_x          n_y          n_z        tau_x        tau_y        tau_z
    1     1.000000     0.000000     1.000000     0.000000     0.000000     0.000000     0.000000     0.000000
 
 Subroutine IBZKPT returns following result:
 ===========================================
 
 Found   1688 irreducible k-points:
 
 Following reciprocal coordinates:
            Coordinates               Weight
  0.000000  0.000000  0.000000      1.000000
  0.066667  0.000000  0.000000      2.000000
  0.133333  0.000000 -0.000000      2.000000
  0.200000  0.000000  0.000000      2.000000
  0.266667  0.000000  0.000000      2.000000
  0.333333  0.000000  0.000000      2.000000
  0.400000  0.000000  0.000000      2.000000
  0.466667  0.000000  0.000000      2.000000
  0.000000  0.066667  0.000000      2.000000
  0.066667  0.066667  0.000000      2.000000
  0.133333  0.066667  0.000000      2.000000
  0.200000  0.066667  0.000000      2.000000
  0.266667  0.066667  0.000000      2.000000
  0.333333  0.066667  0.000000      2.000000
  0.400000  0.066667  0.000000      2.000000
  0.466667  0.066667  0.000000      2.000000
 -0.466667  0.066667 -0.000000      2.000000
 -0.400000  0.066667 -0.000000      2.000000
 -0.333333  0.066667 -0.000000      2.000000
 -0.266667  0.066667 -0.000000      2.000000
 -0.200000  0.066667  0.000000      2.000000
 -0.133333  0.066667  0.000000      2.000000
 -0.066667  0.066667  0.000000      2.000000
  0.000000  0.133333 -0.000000      2.000000
  0.066667  0.133333 -0.000000      2.000000
  0.133333  0.133333 -0.000000      2.000000
  0.200000  0.133333  0.000000      2.000000
  0.266667  0.133333  0.000000      2.000000
  0.333333  0.133333  0.000000      2.000000
  0.400000  0.133333  0.000000      2.000000
  0.466667  0.133333  0.000000      2.000000
 -0.466667  0.133333 -0.000000      2.000000
 -0.400000  0.133333 -0.000000      2.000000
 -0.333333  0.133333 -0.000000      2.000000
 -0.266667  0.133333 -0.000000      2.000000
 -0.200000  0.133333 -0.000000      2.000000
 -0.133333  0.133333  0.000000      2.000000
 -0.066667  0.133333  0.000000      2.000000
  0.000000  0.200000 -0.000000      2.000000
  0.066667  0.200000  0.000000      2.000000
  0.133333  0.200000 -0.000000      2.000000
  0.200000  0.200000  0.000000      2.000000
  0.266667  0.200000  0.000000      2.000000
  0.333333  0.200000 -0.000000      2.000000
  0.400000  0.200000  0.000000      2.000000
  0.466667  0.200000  0.000000      2.000000
 -0.466667  0.200000 -0.000000      2.000000
 -0.400000  0.200000 -0.000000      2.000000
 -0.333333  0.200000 -0.000000      2.000000
 -0.266667  0.200000 -0.000000      2.000000
 -0.200000  0.200000  0.000000      2.000000
 -0.133333  0.200000  0.000000      2.000000
 -0.066667  0.200000  0.000000      2.000000
  0.000000  0.266667 -0.000000      2.000000
  0.066667  0.266667  0.000000      2.000000
  0.133333  0.266667  0.000000      2.000000
  0.200000  0.266667 -0.000000      2.000000
  0.266667  0.266667  0.000000      2.000000
  0.333333  0.266667  0.000000      2.000000
  0.400000  0.266667  0.000000      2.000000
  0.466667  0.266667  0.000000      2.000000
 -0.466667  0.266667  0.000000      2.000000
 -0.400000  0.266667  0.000000      2.000000
 -0.333333  0.266667  0.000000      2.000000
 -0.266667  0.266667 -0.000000      2.000000
 -0.200000  0.266667  0.000000      2.000000
 -0.133333  0.266667  0.000000      2.000000
 -0.066667  0.266667 -0.000000      2.000000
  0.000000  0.333333  0.000000      2.000000
  0.066667  0.333333  0.000000      2.000000
  0.133333  0.333333  0.000000      2.000000
  0.200000  0.333333 -0.000000      2.000000
  0.266667  0.333333 -0.000000      2.000000
  0.333333  0.333333  0.000000      2.000000
  0.400000  0.333333 -0.000000      2.000000
  0.466667  0.333333 -0.000000      2.000000
 -0.466667  0.333333 -0.000000      2.000000
 -0.400000  0.333333  0.000000      2.000000
 -0.333333  0.333333 -0.000000      2.000000
 -0.266667  0.333333  0.000000      2.000000
 -0.200000  0.333333 -0.000000      2.000000
 -0.133333  0.333333 -0.000000      2.000000
 -0.066667  0.333333 -0.000000      2.000000
  0.000000  0.400000 -0.000000      2.000000
  0.066667  0.400000  0.000000      2.000000
  0.133333  0.400000  0.000000      2.000000
  0.200000  0.400000 -0.000000      2.000000
  0.266667  0.400000 -0.000000      2.000000
  0.333333  0.400000  0.000000      2.000000
  0.400000  0.400000  0.000000      2.000000
  0.466667  0.400000 -0.000000      2.000000
 -0.466667  0.400000 -0.000000      2.000000
 -0.400000  0.400000  0.000000      2.000000
 -0.333333  0.400000 -0.000000      2.000000
 -0.266667  0.400000  0.000000      2.000000
 -0.200000  0.400000  0.000000      2.000000
 -0.133333  0.400000 -0.000000      2.000000
 -0.066667  0.400000 -0.000000      2.000000
  0.000000  0.466667 -0.000000      2.000000
  0.066667  0.466667 -0.000000      2.000000
  0.133333  0.466667 -0.000000      2.000000
  0.200000  0.466667 -0.000000      2.000000
  0.266667  0.466667 -0.000000      2.000000
  0.333333  0.466667  0.000000      2.000000
  0.400000  0.466667 -0.000000      2.000000
  0.466667  0.466667 -0.000000      2.000000
 -0.466667  0.466667  0.000000      2.000000
 -0.400000  0.466667 -0.000000      2.000000
 -0.333333  0.466667  0.000000      2.000000
 -0.266667  0.466667 -0.000000      2.000000
 -0.200000  0.466667 -0.000000      2.000000
 -0.133333  0.466667  0.000000      2.000000
 -0.066667  0.466667  0.000000      2.000000
  0.000000  0.000000  0.066667      2.000000
  0.066667  0.000000  0.066667      2.000000
  0.133333  0.000000  0.066667      2.000000
  0.200000  0.000000  0.066667      2.000000
  0.266667  0.000000  0.066667      2.000000
  0.333333  0.000000  0.066667      2.000000
  0.400000  0.000000  0.066667      2.000000
  0.466667  0.000000  0.066667      2.000000
 -0.466667 -0.000000  0.066667      2.000000
 -0.400000 -0.000000  0.066667      2.000000
 -0.333333 -0.000000  0.066667      2.000000
 -0.266667 -0.000000  0.066667      2.000000
 -0.200000 -0.000000  0.066667      2.000000
 -0.133333  0.000000  0.066667      2.000000
 -0.066667 -0.000000  0.066667      2.000000
  0.000000  0.066667  0.066667      2.000000
  0.066667  0.066667  0.066667      2.000000
  0.133333  0.066667  0.066667      2.000000
  0.200000  0.066667  0.066667      2.000000
  0.266667  0.066667  0.066667      2.000000
  0.333333  0.066667  0.066667      2.000000
  0.400000  0.066667  0.066667      2.000000
  0.466667  0.066667  0.066667      2.000000
 -0.466667  0.066667  0.066667      2.000000
 -0.400000  0.066667  0.066667      2.000000
 -0.333333  0.066667  0.066667      2.000000
 -0.266667  0.066667  0.066667      2.000000
 -0.200000  0.066667  0.066667      2.000000
 -0.133333  0.066667  0.066667      2.000000
 -0.066667  0.066667  0.066667      2.000000
  0.000000  0.133333  0.066667      2.000000
  0.066667  0.133333  0.066667      2.000000
  0.133333  0.133333  0.066667      2.000000
  0.200000  0.133333  0.066667      2.000000
  0.266667  0.133333  0.066667      2.000000
  0.333333  0.133333  0.066667      2.000000
  0.400000  0.133333  0.066667      2.000000
  0.466667  0.133333  0.066667      2.000000
 -0.466667  0.133333  0.066667      2.000000
 -0.400000  0.133333  0.066667      2.000000
 -0.333333  0.133333  0.066667      2.000000
 -0.266667  0.133333  0.066667      2.000000
 -0.200000  0.133333  0.066667      2.000000
 -0.133333  0.133333  0.066667      2.000000
 -0.066667  0.133333  0.066667      2.000000
  0.000000  0.200000  0.066667      2.000000
  0.066667  0.200000  0.066667      2.000000
  0.133333  0.200000  0.066667      2.000000
  0.200000  0.200000  0.066667      2.000000
  0.266667  0.200000  0.066667      2.000000
  0.333333  0.200000  0.066667      2.000000
  0.400000  0.200000  0.066667      2.000000
  0.466667  0.200000  0.066667      2.000000
 -0.466667  0.200000  0.066667      2.000000
 -0.400000  0.200000  0.066667      2.000000
 -0.333333  0.200000  0.066667      2.000000
 -0.266667  0.200000  0.066667      2.000000
 -0.200000  0.200000  0.066667      2.000000
 -0.133333  0.200000  0.066667      2.000000
 -0.066667  0.200000  0.066667      2.000000
  0.000000  0.266667  0.066667      2.000000
  0.066667  0.266667  0.066667      2.000000
  0.133333  0.266667  0.066667      2.000000
  0.200000  0.266667  0.066667      2.000000
  0.266667  0.266667  0.066667      2.000000
  0.333333  0.266667  0.066667      2.000000
  0.400000  0.266667  0.066667      2.000000
  0.466667  0.266667  0.066667      2.000000
 -0.466667  0.266667  0.066667      2.000000
 -0.400000  0.266667  0.066667      2.000000
 -0.333333  0.266667  0.066667      2.000000
 -0.266667  0.266667  0.066667      2.000000
 -0.200000  0.266667  0.066667      2.000000
 -0.133333  0.266667  0.066667      2.000000
 -0.066667  0.266667  0.066667      2.000000
  0.000000  0.333333  0.066667      2.000000
  0.066667  0.333333  0.066667      2.000000
  0.133333  0.333333  0.066667      2.000000
  0.200000  0.333333  0.066667      2.000000
  0.266667  0.333333  0.066667      2.000000
  0.333333  0.333333  0.066667      2.000000
  0.400000  0.333333  0.066667      2.000000
  0.466667  0.333333  0.066667      2.000000
 -0.466667  0.333333  0.066667      2.000000
 -0.400000  0.333333  0.066667      2.000000
 -0.333333  0.333333  0.066667      2.000000
 -0.266667  0.333333  0.066667      2.000000
 -0.200000  0.333333  0.066667      2.000000
 -0.133333  0.333333  0.066667      2.000000
 -0.066667  0.333333  0.066667      2.000000
  0.000000  0.400000  0.066667      2.000000
  0.066667  0.400000  0.066667      2.000000
  0.133333  0.400000  0.066667      2.000000
  0.200000  0.400000  0.066667      2.000000
  0.266667  0.400000  0.066667      2.000000
  0.333333  0.400000  0.066667      2.000000
  0.400000  0.400000  0.066667      2.000000
  0.466667  0.400000  0.066667      2.000000
 -0.466667  0.400000  0.066667      2.000000
 -0.400000  0.400000  0.066667      2.000000
 -0.333333  0.400000  0.066667      2.000000
 -0.266667  0.400000  0.066667      2.000000
 -0.200000  0.400000  0.066667      2.000000
 -0.133333  0.400000  0.066667      2.000000
 -0.066667  0.400000  0.066667      2.000000
  0.000000  0.466667  0.066667      2.000000
  0.066667  0.466667  0.066667      2.000000
  0.133333  0.466667  0.066667      2.000000
  0.200000  0.466667  0.066667      2.000000
  0.266667  0.466667  0.066667      2.000000
  0.333333  0.466667  0.066667      2.000000
  0.400000  0.466667  0.066667      2.000000
  0.466667  0.466667  0.066667      2.000000
 -0.466667  0.466667  0.066667      2.000000
 -0.400000  0.466667  0.066667      2.000000
 -0.333333  0.466667  0.066667      2.000000
 -0.266667  0.466667  0.066667      2.000000
 -0.200000  0.466667  0.066667      2.000000
 -0.133333  0.466667  0.066667      2.000000
 -0.066667  0.466667  0.066667      2.000000
 -0.000000 -0.466667  0.066667      2.000000
  0.066667 -0.466667  0.066667      2.000000
  0.133333 -0.466667  0.066667      2.000000
  0.200000 -0.466667  0.066667      2.000000
  0.266667 -0.466667  0.066667      2.000000
  0.333333 -0.466667  0.066667      2.000000
  0.400000 -0.466667  0.066667      2.000000
  0.466667 -0.466667  0.066667      2.000000
 -0.466667 -0.466667  0.066667      2.000000
 -0.400000 -0.466667  0.066667      2.000000
 -0.333333 -0.466667  0.066667      2.000000
 -0.266667 -0.466667  0.066667      2.000000
 -0.200000 -0.466667  0.066667      2.000000
 -0.133333 -0.466667  0.066667      2.000000
 -0.066667 -0.466667  0.066667      2.000000
 -0.000000 -0.400000  0.066667      2.000000
  0.066667 -0.400000  0.066667      2.000000
  0.133333 -0.400000  0.066667      2.000000
  0.200000 -0.400000  0.066667      2.000000
  0.266667 -0.400000  0.066667      2.000000
  0.333333 -0.400000  0.066667      2.000000
  0.400000 -0.400000  0.066667      2.000000
  0.466667 -0.400000  0.066667      2.000000
 -0.466667 -0.400000  0.066667      2.000000
 -0.400000 -0.400000  0.066667      2.000000
 -0.333333 -0.400000  0.066667      2.000000
 -0.266667 -0.400000  0.066667      2.000000
 -0.200000 -0.400000  0.066667      2.000000
 -0.133333 -0.400000  0.066667      2.000000
 -0.066667 -0.400000  0.066667      2.000000
 -0.000000 -0.333333  0.066667      2.000000
  0.066667 -0.333333  0.066667      2.000000
  0.133333 -0.333333  0.066667      2.000000
  0.200000 -0.333333  0.066667      2.000000
  0.266667 -0.333333  0.066667      2.000000
  0.333333 -0.333333  0.066667      2.000000
  0.400000 -0.333333  0.066667      2.000000
  0.466667 -0.333333  0.066667      2.000000
 -0.466667 -0.333333  0.066667      2.000000
 -0.400000 -0.333333  0.066667      2.000000
 -0.333333 -0.333333  0.066667      2.000000
 -0.266667 -0.333333  0.066667      2.000000
 -0.200000 -0.333333  0.066667      2.000000
 -0.133333 -0.333333  0.066667      2.000000
 -0.066667 -0.333333  0.066667      2.000000
 -0.000000 -0.266667  0.066667      2.000000
  0.066667 -0.266667  0.066667      2.000000
  0.133333 -0.266667  0.066667      2.000000
  0.200000 -0.266667  0.066667      2.000000
  0.266667 -0.266667  0.066667      2.000000
  0.333333 -0.266667  0.066667      2.000000
  0.400000 -0.266667  0.066667      2.000000
  0.466667 -0.266667  0.066667      2.000000
 -0.466667 -0.266667  0.066667      2.000000
 -0.400000 -0.266667  0.066667      2.000000
 -0.333333 -0.266667  0.066667      2.000000
 -0.266667 -0.266667  0.066667      2.000000
 -0.200000 -0.266667  0.066667      2.000000
 -0.133333 -0.266667  0.066667      2.000000
 -0.066667 -0.266667  0.066667      2.000000
  0.000000 -0.200000  0.066667      2.000000
  0.066667 -0.200000  0.066667      2.000000
  0.133333 -0.200000  0.066667      2.000000
  0.200000 -0.200000  0.066667      2.000000
  0.266667 -0.200000  0.066667      2.000000
  0.333333 -0.200000  0.066667      2.000000
  0.400000 -0.200000  0.066667      2.000000
  0.466667 -0.200000  0.066667      2.000000
 -0.466667 -0.200000  0.066667      2.000000
 -0.400000 -0.200000  0.066667      2.000000
 -0.333333 -0.200000  0.066667      2.000000
 -0.266667 -0.200000  0.066667      2.000000
 -0.200000 -0.200000  0.066667      2.000000
 -0.133333 -0.200000  0.066667      2.000000
 -0.066667 -0.200000  0.066667      2.000000
  0.000000 -0.133333  0.066667      2.000000
  0.066667 -0.133333  0.066667      2.000000
  0.133333 -0.133333  0.066667      2.000000
  0.200000 -0.133333  0.066667      2.000000
  0.266667 -0.133333  0.066667      2.000000
  0.333333 -0.133333  0.066667      2.000000
  0.400000 -0.133333  0.066667      2.000000
  0.466667 -0.133333  0.066667      2.000000
 -0.466667 -0.133333  0.066667      2.000000
 -0.400000 -0.133333  0.066667      2.000000
 -0.333333 -0.133333  0.066667      2.000000
 -0.266667 -0.133333  0.066667      2.000000
 -0.200000 -0.133333  0.066667      2.000000
 -0.133333 -0.133333  0.066667      2.000000
 -0.066667 -0.133333  0.066667      2.000000
 -0.000000 -0.066667  0.066667      2.000000
  0.066667 -0.066667  0.066667      2.000000
  0.133333 -0.066667  0.066667      2.000000
  0.200000 -0.066667  0.066667      2.000000
  0.266667 -0.066667  0.066667      2.000000
  0.333333 -0.066667  0.066667      2.000000
  0.400000 -0.066667  0.066667      2.000000
  0.466667 -0.066667  0.066667      2.000000
 -0.466667 -0.066667  0.066667      2.000000
 -0.400000 -0.066667  0.066667      2.000000
 -0.333333 -0.066667  0.066667      2.000000
 -0.266667 -0.066667  0.066667      2.000000
 -0.200000 -0.066667  0.066667      2.000000
 -0.133333 -0.066667  0.066667      2.000000
 -0.066667 -0.066667  0.066667      2.000000
  0.000000  0.000000  0.133333      2.000000
  0.066667  0.000000  0.133333      2.000000
  0.133333  0.000000  0.133333      2.000000
  0.200000  0.000000  0.133333      2.000000
  0.266667  0.000000  0.133333      2.000000
  0.333333  0.000000  0.133333      2.000000
  0.400000  0.000000  0.133333      2.000000
  0.466667  0.000000  0.133333      2.000000
 -0.466667  0.000000  0.133333      2.000000
 -0.400000 -0.000000  0.133333      2.000000
 -0.333333 -0.000000  0.133333      2.000000
 -0.266667 -0.000000  0.133333      2.000000
 -0.200000  0.000000  0.133333      2.000000
 -0.133333 -0.000000  0.133333      2.000000
 -0.066667 -0.000000  0.133333      2.000000
 -0.000000  0.066667  0.133333      2.000000
  0.066667  0.066667  0.133333      2.000000
  0.133333  0.066667  0.133333      2.000000
  0.200000  0.066667  0.133333      2.000000
  0.266667  0.066667  0.133333      2.000000
  0.333333  0.066667  0.133333      2.000000
  0.400000  0.066667  0.133333      2.000000
  0.466667  0.066667  0.133333      2.000000
 -0.466667  0.066667  0.133333      2.000000
 -0.400000  0.066667  0.133333      2.000000
 -0.333333  0.066667  0.133333      2.000000
 -0.266667  0.066667  0.133333      2.000000
 -0.200000  0.066667  0.133333      2.000000
 -0.133333  0.066667  0.133333      2.000000
 -0.066667  0.066667  0.133333      2.000000
  0.000000  0.133333  0.133333      2.000000
  0.066667  0.133333  0.133333      2.000000
  0.133333  0.133333  0.133333      2.000000
  0.200000  0.133333  0.133333      2.000000
  0.266667  0.133333  0.133333      2.000000
  0.333333  0.133333  0.133333      2.000000
  0.400000  0.133333  0.133333      2.000000
  0.466667  0.133333  0.133333      2.000000
 -0.466667  0.133333  0.133333      2.000000
 -0.400000  0.133333  0.133333      2.000000
 -0.333333  0.133333  0.133333      2.000000
 -0.266667  0.133333  0.133333      2.000000
 -0.200000  0.133333  0.133333      2.000000
 -0.133333  0.133333  0.133333      2.000000
 -0.066667  0.133333  0.133333      2.000000
  0.000000  0.200000  0.133333      2.000000
  0.066667  0.200000  0.133333      2.000000
  0.133333  0.200000  0.133333      2.000000
  0.200000  0.200000  0.133333      2.000000
  0.266667  0.200000  0.133333      2.000000
  0.333333  0.200000  0.133333      2.000000
  0.400000  0.200000  0.133333      2.000000
  0.466667  0.200000  0.133333      2.000000
 -0.466667  0.200000  0.133333      2.000000
 -0.400000  0.200000  0.133333      2.000000
 -0.333333  0.200000  0.133333      2.000000
 -0.266667  0.200000  0.133333      2.000000
 -0.200000  0.200000  0.133333      2.000000
 -0.133333  0.200000  0.133333      2.000000
 -0.066667  0.200000  0.133333      2.000000
  0.000000  0.266667  0.133333      2.000000
  0.066667  0.266667  0.133333      2.000000
  0.133333  0.266667  0.133333      2.000000
  0.200000  0.266667  0.133333      2.000000
  0.266667  0.266667  0.133333      2.000000
  0.333333  0.266667  0.133333      2.000000
  0.400000  0.266667  0.133333      2.000000
  0.466667  0.266667  0.133333      2.000000
 -0.466667  0.266667  0.133333      2.000000
 -0.400000  0.266667  0.133333      2.000000
 -0.333333  0.266667  0.133333      2.000000
 -0.266667  0.266667  0.133333      2.000000
 -0.200000  0.266667  0.133333      2.000000
 -0.133333  0.266667  0.133333      2.000000
 -0.066667  0.266667  0.133333      2.000000
  0.000000  0.333333  0.133333      2.000000
  0.066667  0.333333  0.133333      2.000000
  0.133333  0.333333  0.133333      2.000000
  0.200000  0.333333  0.133333      2.000000
  0.266667  0.333333  0.133333      2.000000
  0.333333  0.333333  0.133333      2.000000
  0.400000  0.333333  0.133333      2.000000
  0.466667  0.333333  0.133333      2.000000
 -0.466667  0.333333  0.133333      2.000000
 -0.400000  0.333333  0.133333      2.000000
 -0.333333  0.333333  0.133333      2.000000
 -0.266667  0.333333  0.133333      2.000000
 -0.200000  0.333333  0.133333      2.000000
 -0.133333  0.333333  0.133333      2.000000
 -0.066667  0.333333  0.133333      2.000000
  0.000000  0.400000  0.133333      2.000000
  0.066667  0.400000  0.133333      2.000000
  0.133333  0.400000  0.133333      2.000000
  0.200000  0.400000  0.133333      2.000000
  0.266667  0.400000  0.133333      2.000000
  0.333333  0.400000  0.133333      2.000000
  0.400000  0.400000  0.133333      2.000000
  0.466667  0.400000  0.133333      2.000000
 -0.466667  0.400000  0.133333      2.000000
 -0.400000  0.400000  0.133333      2.000000
 -0.333333  0.400000  0.133333      2.000000
 -0.266667  0.400000  0.133333      2.000000
 -0.200000  0.400000  0.133333      2.000000
 -0.133333  0.400000  0.133333      2.000000
 -0.066667  0.400000  0.133333      2.000000
  0.000000  0.466667  0.133333      2.000000
  0.066667  0.466667  0.133333      2.000000
  0.133333  0.466667  0.133333      2.000000
  0.200000  0.466667  0.133333      2.000000
  0.266667  0.466667  0.133333      2.000000
  0.333333  0.466667  0.133333      2.000000
  0.400000  0.466667  0.133333      2.000000
  0.466667  0.466667  0.133333      2.000000
 -0.466667  0.466667  0.133333      2.000000
 -0.400000  0.466667  0.133333      2.000000
 -0.333333  0.466667  0.133333      2.000000
 -0.266667  0.466667  0.133333      2.000000
 -0.200000  0.466667  0.133333      2.000000
 -0.133333  0.466667  0.133333      2.000000
 -0.066667  0.466667  0.133333      2.000000
  0.000000 -0.466667  0.133333      2.000000
  0.066667 -0.466667  0.133333      2.000000
  0.133333 -0.466667  0.133333      2.000000
  0.200000 -0.466667  0.133333      2.000000
  0.266667 -0.466667  0.133333      2.000000
  0.333333 -0.466667  0.133333      2.000000
  0.400000 -0.466667  0.133333      2.000000
  0.466667 -0.466667  0.133333      2.000000
 -0.466667 -0.466667  0.133333      2.000000
 -0.400000 -0.466667  0.133333      2.000000
 -0.333333 -0.466667  0.133333      2.000000
 -0.266667 -0.466667  0.133333      2.000000
 -0.200000 -0.466667  0.133333      2.000000
 -0.133333 -0.466667  0.133333      2.000000
 -0.066667 -0.466667  0.133333      2.000000
 -0.000000 -0.400000  0.133333      2.000000
  0.066667 -0.400000  0.133333      2.000000
  0.133333 -0.400000  0.133333      2.000000
  0.200000 -0.400000  0.133333      2.000000
  0.266667 -0.400000  0.133333      2.000000
  0.333333 -0.400000  0.133333      2.000000
  0.400000 -0.400000  0.133333      2.000000
  0.466667 -0.400000  0.133333      2.000000
 -0.466667 -0.400000  0.133333      2.000000
 -0.400000 -0.400000  0.133333      2.000000
 -0.333333 -0.400000  0.133333      2.000000
 -0.266667 -0.400000  0.133333      2.000000
 -0.200000 -0.400000  0.133333      2.000000
 -0.133333 -0.400000  0.133333      2.000000
 -0.066667 -0.400000  0.133333      2.000000
 -0.000000 -0.333333  0.133333      2.000000
  0.066667 -0.333333  0.133333      2.000000
  0.133333 -0.333333  0.133333      2.000000
  0.200000 -0.333333  0.133333      2.000000
  0.266667 -0.333333  0.133333      2.000000
  0.333333 -0.333333  0.133333      2.000000
  0.400000 -0.333333  0.133333      2.000000
  0.466667 -0.333333  0.133333      2.000000
 -0.466667 -0.333333  0.133333      2.000000
 -0.400000 -0.333333  0.133333      2.000000
 -0.333333 -0.333333  0.133333      2.000000
 -0.266667 -0.333333  0.133333      2.000000
 -0.200000 -0.333333  0.133333      2.000000
 -0.133333 -0.333333  0.133333      2.000000
 -0.066667 -0.333333  0.133333      2.000000
  0.000000 -0.266667  0.133333      2.000000
  0.066667 -0.266667  0.133333      2.000000
  0.133333 -0.266667  0.133333      2.000000
  0.200000 -0.266667  0.133333      2.000000
  0.266667 -0.266667  0.133333      2.000000
  0.333333 -0.266667  0.133333      2.000000
  0.400000 -0.266667  0.133333      2.000000
  0.466667 -0.266667  0.133333      2.000000
 -0.466667 -0.266667  0.133333      2.000000
 -0.400000 -0.266667  0.133333      2.000000
 -0.333333 -0.266667  0.133333      2.000000
 -0.266667 -0.266667  0.133333      2.000000
 -0.200000 -0.266667  0.133333      2.000000
 -0.133333 -0.266667  0.133333      2.000000
 -0.066667 -0.266667  0.133333      2.000000
  0.000000 -0.200000  0.133333      2.000000
  0.066667 -0.200000  0.133333      2.000000
  0.133333 -0.200000  0.133333      2.000000
  0.200000 -0.200000  0.133333      2.000000
  0.266667 -0.200000  0.133333      2.000000
  0.333333 -0.200000  0.133333      2.000000
  0.400000 -0.200000  0.133333      2.000000
  0.466667 -0.200000  0.133333      2.000000
 -0.466667 -0.200000  0.133333      2.000000
 -0.400000 -0.200000  0.133333      2.000000
 -0.333333 -0.200000  0.133333      2.000000
 -0.266667 -0.200000  0.133333      2.000000
 -0.200000 -0.200000  0.133333      2.000000
 -0.133333 -0.200000  0.133333      2.000000
 -0.066667 -0.200000  0.133333      2.000000
 -0.000000 -0.133333  0.133333      2.000000
  0.066667 -0.133333  0.133333      2.000000
  0.133333 -0.133333  0.133333      2.000000
  0.200000 -0.133333  0.133333      2.000000
  0.266667 -0.133333  0.133333      2.000000
  0.333333 -0.133333  0.133333      2.000000
  0.400000 -0.133333  0.133333      2.000000
  0.466667 -0.133333  0.133333      2.000000
 -0.466667 -0.133333  0.133333      2.000000
 -0.400000 -0.133333  0.133333      2.000000
 -0.333333 -0.133333  0.133333      2.000000
 -0.266667 -0.133333  0.133333      2.000000
 -0.200000 -0.133333  0.133333      2.000000
 -0.133333 -0.133333  0.133333      2.000000
 -0.066667 -0.133333  0.133333      2.000000
  0.000000 -0.066667  0.133333      2.000000
  0.066667 -0.066667  0.133333      2.000000
  0.133333 -0.066667  0.133333      2.000000
  0.200000 -0.066667  0.133333      2.000000
  0.266667 -0.066667  0.133333      2.000000
  0.333333 -0.066667  0.133333      2.000000
  0.400000 -0.066667  0.133333      2.000000
  0.466667 -0.066667  0.133333      2.000000
 -0.466667 -0.066667  0.133333      2.000000
 -0.400000 -0.066667  0.133333      2.000000
 -0.333333 -0.066667  0.133333      2.000000
 -0.266667 -0.066667  0.133333      2.000000
 -0.200000 -0.066667  0.133333      2.000000
 -0.133333 -0.066667  0.133333      2.000000
 -0.066667 -0.066667  0.133333      2.000000
  0.000000  0.000000  0.200000      2.000000
  0.066667  0.000000  0.200000      2.000000
  0.133333  0.000000  0.200000      2.000000
  0.200000  0.000000  0.200000      2.000000
  0.266667  0.000000  0.200000      2.000000
  0.333333  0.000000  0.200000      2.000000
  0.400000  0.000000  0.200000      2.000000
  0.466667  0.000000  0.200000      2.000000
 -0.466667 -0.000000  0.200000      2.000000
 -0.400000 -0.000000  0.200000      2.000000
 -0.333333  0.000000  0.200000      2.000000
 -0.266667  0.000000  0.200000      2.000000
 -0.200000 -0.000000  0.200000      2.000000
 -0.133333 -0.000000  0.200000      2.000000
 -0.066667 -0.000000  0.200000      2.000000
 -0.000000  0.066667  0.200000      2.000000
  0.066667  0.066667  0.200000      2.000000
  0.133333  0.066667  0.200000      2.000000
  0.200000  0.066667  0.200000      2.000000
  0.266667  0.066667  0.200000      2.000000
  0.333333  0.066667  0.200000      2.000000
  0.400000  0.066667  0.200000      2.000000
  0.466667  0.066667  0.200000      2.000000
 -0.466667  0.066667  0.200000      2.000000
 -0.400000  0.066667  0.200000      2.000000
 -0.333333  0.066667  0.200000      2.000000
 -0.266667  0.066667  0.200000      2.000000
 -0.200000  0.066667  0.200000      2.000000
 -0.133333  0.066667  0.200000      2.000000
 -0.066667  0.066667  0.200000      2.000000
  0.000000  0.133333  0.200000      2.000000
  0.066667  0.133333  0.200000      2.000000
  0.133333  0.133333  0.200000      2.000000
  0.200000  0.133333  0.200000      2.000000
  0.266667  0.133333  0.200000      2.000000
  0.333333  0.133333  0.200000      2.000000
  0.400000  0.133333  0.200000      2.000000
  0.466667  0.133333  0.200000      2.000000
 -0.466667  0.133333  0.200000      2.000000
 -0.400000  0.133333  0.200000      2.000000
 -0.333333  0.133333  0.200000      2.000000
 -0.266667  0.133333  0.200000      2.000000
 -0.200000  0.133333  0.200000      2.000000
 -0.133333  0.133333  0.200000      2.000000
 -0.066667  0.133333  0.200000      2.000000
  0.000000  0.200000  0.200000      2.000000
  0.066667  0.200000  0.200000      2.000000
  0.133333  0.200000  0.200000      2.000000
  0.200000  0.200000  0.200000      2.000000
  0.266667  0.200000  0.200000      2.000000
  0.333333  0.200000  0.200000      2.000000
  0.400000  0.200000  0.200000      2.000000
  0.466667  0.200000  0.200000      2.000000
 -0.466667  0.200000  0.200000      2.000000
 -0.400000  0.200000  0.200000      2.000000
 -0.333333  0.200000  0.200000      2.000000
 -0.266667  0.200000  0.200000      2.000000
 -0.200000  0.200000  0.200000      2.000000
 -0.133333  0.200000  0.200000      2.000000
 -0.066667  0.200000  0.200000      2.000000
 -0.000000  0.266667  0.200000      2.000000
  0.066667  0.266667  0.200000      2.000000
  0.133333  0.266667  0.200000      2.000000
  0.200000  0.266667  0.200000      2.000000
  0.266667  0.266667  0.200000      2.000000
  0.333333  0.266667  0.200000      2.000000
  0.400000  0.266667  0.200000      2.000000
  0.466667  0.266667  0.200000      2.000000
 -0.466667  0.266667  0.200000      2.000000
 -0.400000  0.266667  0.200000      2.000000
 -0.333333  0.266667  0.200000      2.000000
 -0.266667  0.266667  0.200000      2.000000
 -0.200000  0.266667  0.200000      2.000000
 -0.133333  0.266667  0.200000      2.000000
 -0.066667  0.266667  0.200000      2.000000
  0.000000  0.333333  0.200000      2.000000
  0.066667  0.333333  0.200000      2.000000
  0.133333  0.333333  0.200000      2.000000
  0.200000  0.333333  0.200000      2.000000
  0.266667  0.333333  0.200000      2.000000
  0.333333  0.333333  0.200000      2.000000
  0.400000  0.333333  0.200000      2.000000
  0.466667  0.333333  0.200000      2.000000
 -0.466667  0.333333  0.200000      2.000000
 -0.400000  0.333333  0.200000      2.000000
 -0.333333  0.333333  0.200000      2.000000
 -0.266667  0.333333  0.200000      2.000000
 -0.200000  0.333333  0.200000      2.000000
 -0.133333  0.333333  0.200000      2.000000
 -0.066667  0.333333  0.200000      2.000000
  0.000000  0.400000  0.200000      2.000000
  0.066667  0.400000  0.200000      2.000000
  0.133333  0.400000  0.200000      2.000000
  0.200000  0.400000  0.200000      2.000000
  0.266667  0.400000  0.200000      2.000000
  0.333333  0.400000  0.200000      2.000000
  0.400000  0.400000  0.200000      2.000000
  0.466667  0.400000  0.200000      2.000000
 -0.466667  0.400000  0.200000      2.000000
 -0.400000  0.400000  0.200000      2.000000
 -0.333333  0.400000  0.200000      2.000000
 -0.266667  0.400000  0.200000      2.000000
 -0.200000  0.400000  0.200000      2.000000
 -0.133333  0.400000  0.200000      2.000000
 -0.066667  0.400000  0.200000      2.000000
  0.000000  0.466667  0.200000      2.000000
  0.066667  0.466667  0.200000      2.000000
  0.133333  0.466667  0.200000      2.000000
  0.200000  0.466667  0.200000      2.000000
  0.266667  0.466667  0.200000      2.000000
  0.333333  0.466667  0.200000      2.000000
  0.400000  0.466667  0.200000      2.000000
  0.466667  0.466667  0.200000      2.000000
 -0.466667  0.466667  0.200000      2.000000
 -0.400000  0.466667  0.200000      2.000000
 -0.333333  0.466667  0.200000      2.000000
 -0.266667  0.466667  0.200000      2.000000
 -0.200000  0.466667  0.200000      2.000000
 -0.133333  0.466667  0.200000      2.000000
 -0.066667  0.466667  0.200000      2.000000
  0.000000 -0.466667  0.200000      2.000000
  0.066667 -0.466667  0.200000      2.000000
  0.133333 -0.466667  0.200000      2.000000
  0.200000 -0.466667  0.200000      2.000000
  0.266667 -0.466667  0.200000      2.000000
  0.333333 -0.466667  0.200000      2.000000
  0.400000 -0.466667  0.200000      2.000000
  0.466667 -0.466667  0.200000      2.000000
 -0.466667 -0.466667  0.200000      2.000000
 -0.400000 -0.466667  0.200000      2.000000
 -0.333333 -0.466667  0.200000      2.000000
 -0.266667 -0.466667  0.200000      2.000000
 -0.200000 -0.466667  0.200000      2.000000
 -0.133333 -0.466667  0.200000      2.000000
 -0.066667 -0.466667  0.200000      2.000000
 -0.000000 -0.400000  0.200000      2.000000
  0.066667 -0.400000  0.200000      2.000000
  0.133333 -0.400000  0.200000      2.000000
  0.200000 -0.400000  0.200000      2.000000
  0.266667 -0.400000  0.200000      2.000000
  0.333333 -0.400000  0.200000      2.000000
  0.400000 -0.400000  0.200000      2.000000
  0.466667 -0.400000  0.200000      2.000000
 -0.466667 -0.400000  0.200000      2.000000
 -0.400000 -0.400000  0.200000      2.000000
 -0.333333 -0.400000  0.200000      2.000000
 -0.266667 -0.400000  0.200000      2.000000
 -0.200000 -0.400000  0.200000      2.000000
 -0.133333 -0.400000  0.200000      2.000000
 -0.066667 -0.400000  0.200000      2.000000
 -0.000000 -0.333333  0.200000      2.000000
  0.066667 -0.333333  0.200000      2.000000
  0.133333 -0.333333  0.200000      2.000000
  0.200000 -0.333333  0.200000      2.000000
  0.266667 -0.333333  0.200000      2.000000
  0.333333 -0.333333  0.200000      2.000000
  0.400000 -0.333333  0.200000      2.000000
  0.466667 -0.333333  0.200000      2.000000
 -0.466667 -0.333333  0.200000      2.000000
 -0.400000 -0.333333  0.200000      2.000000
 -0.333333 -0.333333  0.200000      2.000000
 -0.266667 -0.333333  0.200000      2.000000
 -0.200000 -0.333333  0.200000      2.000000
 -0.133333 -0.333333  0.200000      2.000000
 -0.066667 -0.333333  0.200000      2.000000
  0.000000 -0.266667  0.200000      2.000000
  0.066667 -0.266667  0.200000      2.000000
  0.133333 -0.266667  0.200000      2.000000
  0.200000 -0.266667  0.200000      2.000000
  0.266667 -0.266667  0.200000      2.000000
  0.333333 -0.266667  0.200000      2.000000
  0.400000 -0.266667  0.200000      2.000000
  0.466667 -0.266667  0.200000      2.000000
 -0.466667 -0.266667  0.200000      2.000000
 -0.400000 -0.266667  0.200000      2.000000
 -0.333333 -0.266667  0.200000      2.000000
 -0.266667 -0.266667  0.200000      2.000000
 -0.200000 -0.266667  0.200000      2.000000
 -0.133333 -0.266667  0.200000      2.000000
 -0.066667 -0.266667  0.200000      2.000000
  0.000000 -0.200000  0.200000      2.000000
  0.066667 -0.200000  0.200000      2.000000
  0.133333 -0.200000  0.200000      2.000000
  0.200000 -0.200000  0.200000      2.000000
  0.266667 -0.200000  0.200000      2.000000
  0.333333 -0.200000  0.200000      2.000000
  0.400000 -0.200000  0.200000      2.000000
  0.466667 -0.200000  0.200000      2.000000
 -0.466667 -0.200000  0.200000      2.000000
 -0.400000 -0.200000  0.200000      2.000000
 -0.333333 -0.200000  0.200000      2.000000
 -0.266667 -0.200000  0.200000      2.000000
 -0.200000 -0.200000  0.200000      2.000000
 -0.133333 -0.200000  0.200000      2.000000
 -0.066667 -0.200000  0.200000      2.000000
 -0.000000 -0.133333  0.200000      2.000000
  0.066667 -0.133333  0.200000      2.000000
  0.133333 -0.133333  0.200000      2.000000
  0.200000 -0.133333  0.200000      2.000000
  0.266667 -0.133333  0.200000      2.000000
  0.333333 -0.133333  0.200000      2.000000
  0.400000 -0.133333  0.200000      2.000000
  0.466667 -0.133333  0.200000      2.000000
 -0.466667 -0.133333  0.200000      2.000000
 -0.400000 -0.133333  0.200000      2.000000
 -0.333333 -0.133333  0.200000      2.000000
 -0.266667 -0.133333  0.200000      2.000000
 -0.200000 -0.133333  0.200000      2.000000
 -0.133333 -0.133333  0.200000      2.000000
 -0.066667 -0.133333  0.200000      2.000000
  0.000000 -0.066667  0.200000      2.000000
  0.066667 -0.066667  0.200000      2.000000
  0.133333 -0.066667  0.200000      2.000000
  0.200000 -0.066667  0.200000      2.000000
  0.266667 -0.066667  0.200000      2.000000
  0.333333 -0.066667  0.200000      2.000000
  0.400000 -0.066667  0.200000      2.000000
  0.466667 -0.066667  0.200000      2.000000
 -0.466667 -0.066667  0.200000      2.000000
 -0.400000 -0.066667  0.200000      2.000000
 -0.333333 -0.066667  0.200000      2.000000
 -0.266667 -0.066667  0.200000      2.000000
 -0.200000 -0.066667  0.200000      2.000000
 -0.133333 -0.066667  0.200000      2.000000
 -0.066667 -0.066667  0.200000      2.000000
  0.000000  0.000000  0.266667      2.000000
  0.066667  0.000000  0.266667      2.000000
  0.133333  0.000000  0.266667      2.000000
  0.200000  0.000000  0.266667      2.000000
  0.266667  0.000000  0.266667      2.000000
  0.333333 -0.000000  0.266667      2.000000
  0.400000 -0.000000  0.266667      2.000000
  0.466667  0.000000  0.266667      2.000000
 -0.466667 -0.000000  0.266667      2.000000
 -0.400000 -0.000000  0.266667      2.000000
 -0.333333 -0.000000  0.266667      2.000000
 -0.266667 -0.000000  0.266667      2.000000
 -0.200000 -0.000000  0.266667      2.000000
 -0.133333 -0.000000  0.266667      2.000000
 -0.066667  0.000000  0.266667      2.000000
  0.000000  0.066667  0.266667      2.000000
  0.066667  0.066667  0.266667      2.000000
  0.133333  0.066667  0.266667      2.000000
  0.200000  0.066667  0.266667      2.000000
  0.266667  0.066667  0.266667      2.000000
  0.333333  0.066667  0.266667      2.000000
  0.400000  0.066667  0.266667      2.000000
  0.466667  0.066667  0.266667      2.000000
 -0.466667  0.066667  0.266667      2.000000
 -0.400000  0.066667  0.266667      2.000000
 -0.333333  0.066667  0.266667      2.000000
 -0.266667  0.066667  0.266667      2.000000
 -0.200000  0.066667  0.266667      2.000000
 -0.133333  0.066667  0.266667      2.000000
 -0.066667  0.066667  0.266667      2.000000
 -0.000000  0.133333  0.266667      2.000000
  0.066667  0.133333  0.266667      2.000000
  0.133333  0.133333  0.266667      2.000000
  0.200000  0.133333  0.266667      2.000000
  0.266667  0.133333  0.266667      2.000000
  0.333333  0.133333  0.266667      2.000000
  0.400000  0.133333  0.266667      2.000000
  0.466667  0.133333  0.266667      2.000000
 -0.466667  0.133333  0.266667      2.000000
 -0.400000  0.133333  0.266667      2.000000
 -0.333333  0.133333  0.266667      2.000000
 -0.266667  0.133333  0.266667      2.000000
 -0.200000  0.133333  0.266667      2.000000
 -0.133333  0.133333  0.266667      2.000000
 -0.066667  0.133333  0.266667      2.000000
  0.000000  0.200000  0.266667      2.000000
  0.066667  0.200000  0.266667      2.000000
  0.133333  0.200000  0.266667      2.000000
  0.200000  0.200000  0.266667      2.000000
  0.266667  0.200000  0.266667      2.000000
  0.333333  0.200000  0.266667      2.000000
  0.400000  0.200000  0.266667      2.000000
  0.466667  0.200000  0.266667      2.000000
 -0.466667  0.200000  0.266667      2.000000
 -0.400000  0.200000  0.266667      2.000000
 -0.333333  0.200000  0.266667      2.000000
 -0.266667  0.200000  0.266667      2.000000
 -0.200000  0.200000  0.266667      2.000000
 -0.133333  0.200000  0.266667      2.000000
 -0.066667  0.200000  0.266667      2.000000
  0.000000  0.266667  0.266667      2.000000
  0.066667  0.266667  0.266667      2.000000
  0.133333  0.266667  0.266667      2.000000
  0.200000  0.266667  0.266667      2.000000
  0.266667  0.266667  0.266667      2.000000
  0.333333  0.266667  0.266667      2.000000
  0.400000  0.266667  0.266667      2.000000
  0.466667  0.266667  0.266667      2.000000
 -0.466667  0.266667  0.266667      2.000000
 -0.400000  0.266667  0.266667      2.000000
 -0.333333  0.266667  0.266667      2.000000
 -0.266667  0.266667  0.266667      2.000000
 -0.200000  0.266667  0.266667      2.000000
 -0.133333  0.266667  0.266667      2.000000
 -0.066667  0.266667  0.266667      2.000000
  0.000000  0.333333  0.266667      2.000000
  0.066667  0.333333  0.266667      2.000000
  0.133333  0.333333  0.266667      2.000000
  0.200000  0.333333  0.266667      2.000000
  0.266667  0.333333  0.266667      2.000000
  0.333333  0.333333  0.266667      2.000000
  0.400000  0.333333  0.266667      2.000000
  0.466667  0.333333  0.266667      2.000000
 -0.466667  0.333333  0.266667      2.000000
 -0.400000  0.333333  0.266667      2.000000
 -0.333333  0.333333  0.266667      2.000000
 -0.266667  0.333333  0.266667      2.000000
 -0.200000  0.333333  0.266667      2.000000
 -0.133333  0.333333  0.266667      2.000000
 -0.066667  0.333333  0.266667      2.000000
  0.000000  0.400000  0.266667      2.000000
  0.066667  0.400000  0.266667      2.000000
  0.133333  0.400000  0.266667      2.000000
  0.200000  0.400000  0.266667      2.000000
  0.266667  0.400000  0.266667      2.000000
  0.333333  0.400000  0.266667      2.000000
  0.400000  0.400000  0.266667      2.000000
  0.466667  0.400000  0.266667      2.000000
 -0.466667  0.400000  0.266667      2.000000
 -0.400000  0.400000  0.266667      2.000000
 -0.333333  0.400000  0.266667      2.000000
 -0.266667  0.400000  0.266667      2.000000
 -0.200000  0.400000  0.266667      2.000000
 -0.133333  0.400000  0.266667      2.000000
 -0.066667  0.400000  0.266667      2.000000
  0.000000  0.466667  0.266667      2.000000
  0.066667  0.466667  0.266667      2.000000
  0.133333  0.466667  0.266667      2.000000
  0.200000  0.466667  0.266667      2.000000
  0.266667  0.466667  0.266667      2.000000
  0.333333  0.466667  0.266667      2.000000
  0.400000  0.466667  0.266667      2.000000
  0.466667  0.466667  0.266667      2.000000
 -0.466667  0.466667  0.266667      2.000000
 -0.400000  0.466667  0.266667      2.000000
 -0.333333  0.466667  0.266667      2.000000
 -0.266667  0.466667  0.266667      2.000000
 -0.200000  0.466667  0.266667      2.000000
 -0.133333  0.466667  0.266667      2.000000
 -0.066667  0.466667  0.266667      2.000000
  0.000000 -0.466667  0.266667      2.000000
  0.066667 -0.466667  0.266667      2.000000
  0.133333 -0.466667  0.266667      2.000000
  0.200000 -0.466667  0.266667      2.000000
  0.266667 -0.466667  0.266667      2.000000
  0.333333 -0.466667  0.266667      2.000000
  0.400000 -0.466667  0.266667      2.000000
  0.466667 -0.466667  0.266667      2.000000
 -0.466667 -0.466667  0.266667      2.000000
 -0.400000 -0.466667  0.266667      2.000000
 -0.333333 -0.466667  0.266667      2.000000
 -0.266667 -0.466667  0.266667      2.000000
 -0.200000 -0.466667  0.266667      2.000000
 -0.133333 -0.466667  0.266667      2.000000
 -0.066667 -0.466667  0.266667      2.000000
  0.000000 -0.400000  0.266667      2.000000
  0.066667 -0.400000  0.266667      2.000000
  0.133333 -0.400000  0.266667      2.000000
  0.200000 -0.400000  0.266667      2.000000
  0.266667 -0.400000  0.266667      2.000000
  0.333333 -0.400000  0.266667      2.000000
  0.400000 -0.400000  0.266667      2.000000
  0.466667 -0.400000  0.266667      2.000000
 -0.466667 -0.400000  0.266667      2.000000
 -0.400000 -0.400000  0.266667      2.000000
 -0.333333 -0.400000  0.266667      2.000000
 -0.266667 -0.400000  0.266667      2.000000
 -0.200000 -0.400000  0.266667      2.000000
 -0.133333 -0.400000  0.266667      2.000000
 -0.066667 -0.400000  0.266667      2.000000
  0.000000 -0.333333  0.266667      2.000000
  0.066667 -0.333333  0.266667      2.000000
  0.133333 -0.333333  0.266667      2.000000
  0.200000 -0.333333  0.266667      2.000000
  0.266667 -0.333333  0.266667      2.000000
  0.333333 -0.333333  0.266667      2.000000
  0.400000 -0.333333  0.266667      2.000000
  0.466667 -0.333333  0.266667      2.000000
 -0.466667 -0.333333  0.266667      2.000000
 -0.400000 -0.333333  0.266667      2.000000
 -0.333333 -0.333333  0.266667      2.000000
 -0.266667 -0.333333  0.266667      2.000000
 -0.200000 -0.333333  0.266667      2.000000
 -0.133333 -0.333333  0.266667      2.000000
 -0.066667 -0.333333  0.266667      2.000000
  0.000000 -0.266667  0.266667      2.000000
  0.066667 -0.266667  0.266667      2.000000
  0.133333 -0.266667  0.266667      2.000000
  0.200000 -0.266667  0.266667      2.000000
  0.266667 -0.266667  0.266667      2.000000
  0.333333 -0.266667  0.266667      2.000000
  0.400000 -0.266667  0.266667      2.000000
  0.466667 -0.266667  0.266667      2.000000
 -0.466667 -0.266667  0.266667      2.000000
 -0.400000 -0.266667  0.266667      2.000000
 -0.333333 -0.266667  0.266667      2.000000
 -0.266667 -0.266667  0.266667      2.000000
 -0.200000 -0.266667  0.266667      2.000000
 -0.133333 -0.266667  0.266667      2.000000
 -0.066667 -0.266667  0.266667      2.000000
  0.000000 -0.200000  0.266667      2.000000
  0.066667 -0.200000  0.266667      2.000000
  0.133333 -0.200000  0.266667      2.000000
  0.200000 -0.200000  0.266667      2.000000
  0.266667 -0.200000  0.266667      2.000000
  0.333333 -0.200000  0.266667      2.000000
  0.400000 -0.200000  0.266667      2.000000
  0.466667 -0.200000  0.266667      2.000000
 -0.466667 -0.200000  0.266667      2.000000
 -0.400000 -0.200000  0.266667      2.000000
 -0.333333 -0.200000  0.266667      2.000000
 -0.266667 -0.200000  0.266667      2.000000
 -0.200000 -0.200000  0.266667      2.000000
 -0.133333 -0.200000  0.266667      2.000000
 -0.066667 -0.200000  0.266667      2.000000
  0.000000 -0.133333  0.266667      2.000000
  0.066667 -0.133333  0.266667      2.000000
  0.133333 -0.133333  0.266667      2.000000
  0.200000 -0.133333  0.266667      2.000000
  0.266667 -0.133333  0.266667      2.000000
  0.333333 -0.133333  0.266667      2.000000
  0.400000 -0.133333  0.266667      2.000000
  0.466667 -0.133333  0.266667      2.000000
 -0.466667 -0.133333  0.266667      2.000000
 -0.400000 -0.133333  0.266667      2.000000
 -0.333333 -0.133333  0.266667      2.000000
 -0.266667 -0.133333  0.266667      2.000000
 -0.200000 -0.133333  0.266667      2.000000
 -0.133333 -0.133333  0.266667      2.000000
 -0.066667 -0.133333  0.266667      2.000000
  0.000000 -0.066667  0.266667      2.000000
  0.066667 -0.066667  0.266667      2.000000
  0.133333 -0.066667  0.266667      2.000000
  0.200000 -0.066667  0.266667      2.000000
  0.266667 -0.066667  0.266667      2.000000
  0.333333 -0.066667  0.266667      2.000000
  0.400000 -0.066667  0.266667      2.000000
  0.466667 -0.066667  0.266667      2.000000
 -0.466667 -0.066667  0.266667      2.000000
 -0.400000 -0.066667  0.266667      2.000000
 -0.333333 -0.066667  0.266667      2.000000
 -0.266667 -0.066667  0.266667      2.000000
 -0.200000 -0.066667  0.266667      2.000000
 -0.133333 -0.066667  0.266667      2.000000
 -0.066667 -0.066667  0.266667      2.000000
  0.000000  0.000000  0.333333      2.000000
  0.066667 -0.000000  0.333333      2.000000
  0.133333  0.000000  0.333333      2.000000
  0.200000  0.000000  0.333333      2.000000
  0.266667  0.000000  0.333333      2.000000
  0.333333 -0.000000  0.333333      2.000000
  0.400000 -0.000000  0.333333      2.000000
  0.466667  0.000000  0.333333      2.000000
 -0.466667 -0.000000  0.333333      2.000000
 -0.400000  0.000000  0.333333      2.000000
 -0.333333  0.000000  0.333333      2.000000
 -0.266667 -0.000000  0.333333      2.000000
 -0.200000 -0.000000  0.333333      2.000000
 -0.133333 -0.000000  0.333333      2.000000
 -0.066667  0.000000  0.333333      2.000000
  0.000000  0.066667  0.333333      2.000000
  0.066667  0.066667  0.333333      2.000000
  0.133333  0.066667  0.333333      2.000000
  0.200000  0.066667  0.333333      2.000000
  0.266667  0.066667  0.333333      2.000000
  0.333333  0.066667  0.333333      2.000000
  0.400000  0.066667  0.333333      2.000000
  0.466667  0.066667  0.333333      2.000000
 -0.466667  0.066667  0.333333      2.000000
 -0.400000  0.066667  0.333333      2.000000
 -0.333333  0.066667  0.333333      2.000000
 -0.266667  0.066667  0.333333      2.000000
 -0.200000  0.066667  0.333333      2.000000
 -0.133333  0.066667  0.333333      2.000000
 -0.066667  0.066667  0.333333      2.000000
  0.000000  0.133333  0.333333      2.000000
  0.066667  0.133333  0.333333      2.000000
  0.133333  0.133333  0.333333      2.000000
  0.200000  0.133333  0.333333      2.000000
  0.266667  0.133333  0.333333      2.000000
  0.333333  0.133333  0.333333      2.000000
  0.400000  0.133333  0.333333      2.000000
  0.466667  0.133333  0.333333      2.000000
 -0.466667  0.133333  0.333333      2.000000
 -0.400000  0.133333  0.333333      2.000000
 -0.333333  0.133333  0.333333      2.000000
 -0.266667  0.133333  0.333333      2.000000
 -0.200000  0.133333  0.333333      2.000000
 -0.133333  0.133333  0.333333      2.000000
 -0.066667  0.133333  0.333333      2.000000
  0.000000  0.200000  0.333333      2.000000
  0.066667  0.200000  0.333333      2.000000
  0.133333  0.200000  0.333333      2.000000
  0.200000  0.200000  0.333333      2.000000
  0.266667  0.200000  0.333333      2.000000
  0.333333  0.200000  0.333333      2.000000
  0.400000  0.200000  0.333333      2.000000
  0.466667  0.200000  0.333333      2.000000
 -0.466667  0.200000  0.333333      2.000000
 -0.400000  0.200000  0.333333      2.000000
 -0.333333  0.200000  0.333333      2.000000
 -0.266667  0.200000  0.333333      2.000000
 -0.200000  0.200000  0.333333      2.000000
 -0.133333  0.200000  0.333333      2.000000
 -0.066667  0.200000  0.333333      2.000000
  0.000000  0.266667  0.333333      2.000000
  0.066667  0.266667  0.333333      2.000000
  0.133333  0.266667  0.333333      2.000000
  0.200000  0.266667  0.333333      2.000000
  0.266667  0.266667  0.333333      2.000000
  0.333333  0.266667  0.333333      2.000000
  0.400000  0.266667  0.333333      2.000000
  0.466667  0.266667  0.333333      2.000000
 -0.466667  0.266667  0.333333      2.000000
 -0.400000  0.266667  0.333333      2.000000
 -0.333333  0.266667  0.333333      2.000000
 -0.266667  0.266667  0.333333      2.000000
 -0.200000  0.266667  0.333333      2.000000
 -0.133333  0.266667  0.333333      2.000000
 -0.066667  0.266667  0.333333      2.000000
  0.000000  0.333333  0.333333      2.000000
  0.066667  0.333333  0.333333      2.000000
  0.133333  0.333333  0.333333      2.000000
  0.200000  0.333333  0.333333      2.000000
  0.266667  0.333333  0.333333      2.000000
  0.333333  0.333333  0.333333      2.000000
  0.400000  0.333333  0.333333      2.000000
  0.466667  0.333333  0.333333      2.000000
 -0.466667  0.333333  0.333333      2.000000
 -0.400000  0.333333  0.333333      2.000000
 -0.333333  0.333333  0.333333      2.000000
 -0.266667  0.333333  0.333333      2.000000
 -0.200000  0.333333  0.333333      2.000000
 -0.133333  0.333333  0.333333      2.000000
 -0.066667  0.333333  0.333333      2.000000
  0.000000  0.400000  0.333333      2.000000
  0.066667  0.400000  0.333333      2.000000
  0.133333  0.400000  0.333333      2.000000
  0.200000  0.400000  0.333333      2.000000
  0.266667  0.400000  0.333333      2.000000
  0.333333  0.400000  0.333333      2.000000
  0.400000  0.400000  0.333333      2.000000
  0.466667  0.400000  0.333333      2.000000
 -0.466667  0.400000  0.333333      2.000000
 -0.400000  0.400000  0.333333      2.000000
 -0.333333  0.400000  0.333333      2.000000
 -0.266667  0.400000  0.333333      2.000000
 -0.200000  0.400000  0.333333      2.000000
 -0.133333  0.400000  0.333333      2.000000
 -0.066667  0.400000  0.333333      2.000000
 -0.000000  0.466667  0.333333      2.000000
  0.066667  0.466667  0.333333      2.000000
  0.133333  0.466667  0.333333      2.000000
  0.200000  0.466667  0.333333      2.000000
  0.266667  0.466667  0.333333      2.000000
  0.333333  0.466667  0.333333      2.000000
  0.400000  0.466667  0.333333      2.000000
  0.466667  0.466667  0.333333      2.000000
 -0.466667  0.466667  0.333333      2.000000
 -0.400000  0.466667  0.333333      2.000000
 -0.333333  0.466667  0.333333      2.000000
 -0.266667  0.466667  0.333333      2.000000
 -0.200000  0.466667  0.333333      2.000000
 -0.133333  0.466667  0.333333      2.000000
 -0.066667  0.466667  0.333333      2.000000
 -0.000000 -0.466667  0.333333      2.000000
  0.066667 -0.466667  0.333333      2.000000
  0.133333 -0.466667  0.333333      2.000000
  0.200000 -0.466667  0.333333      2.000000
  0.266667 -0.466667  0.333333      2.000000
  0.333333 -0.466667  0.333333      2.000000
  0.400000 -0.466667  0.333333      2.000000
  0.466667 -0.466667  0.333333      2.000000
 -0.466667 -0.466667  0.333333      2.000000
 -0.400000 -0.466667  0.333333      2.000000
 -0.333333 -0.466667  0.333333      2.000000
 -0.266667 -0.466667  0.333333      2.000000
 -0.200000 -0.466667  0.333333      2.000000
 -0.133333 -0.466667  0.333333      2.000000
 -0.066667 -0.466667  0.333333      2.000000
 -0.000000 -0.400000  0.333333      2.000000
  0.066667 -0.400000  0.333333      2.000000
  0.133333 -0.400000  0.333333      2.000000
  0.200000 -0.400000  0.333333      2.000000
  0.266667 -0.400000  0.333333      2.000000
  0.333333 -0.400000  0.333333      2.000000
  0.400000 -0.400000  0.333333      2.000000
  0.466667 -0.400000  0.333333      2.000000
 -0.466667 -0.400000  0.333333      2.000000
 -0.400000 -0.400000  0.333333      2.000000
 -0.333333 -0.400000  0.333333      2.000000
 -0.266667 -0.400000  0.333333      2.000000
 -0.200000 -0.400000  0.333333      2.000000
 -0.133333 -0.400000  0.333333      2.000000
 -0.066667 -0.400000  0.333333      2.000000
 -0.000000 -0.333333  0.333333      2.000000
  0.066667 -0.333333  0.333333      2.000000
  0.133333 -0.333333  0.333333      2.000000
  0.200000 -0.333333  0.333333      2.000000
  0.266667 -0.333333  0.333333      2.000000
  0.333333 -0.333333  0.333333      2.000000
  0.400000 -0.333333  0.333333      2.000000
  0.466667 -0.333333  0.333333      2.000000
 -0.466667 -0.333333  0.333333      2.000000
 -0.400000 -0.333333  0.333333      2.000000
 -0.333333 -0.333333  0.333333      2.000000
 -0.266667 -0.333333  0.333333      2.000000
 -0.200000 -0.333333  0.333333      2.000000
 -0.133333 -0.333333  0.333333      2.000000
 -0.066667 -0.333333  0.333333      2.000000
 -0.000000 -0.266667  0.333333      2.000000
  0.066667 -0.266667  0.333333      2.000000
  0.133333 -0.266667  0.333333      2.000000
  0.200000 -0.266667  0.333333      2.000000
  0.266667 -0.266667  0.333333      2.000000
  0.333333 -0.266667  0.333333      2.000000
  0.400000 -0.266667  0.333333      2.000000
  0.466667 -0.266667  0.333333      2.000000
 -0.466667 -0.266667  0.333333      2.000000
 -0.400000 -0.266667  0.333333      2.000000
 -0.333333 -0.266667  0.333333      2.000000
 -0.266667 -0.266667  0.333333      2.000000
 -0.200000 -0.266667  0.333333      2.000000
 -0.133333 -0.266667  0.333333      2.000000
 -0.066667 -0.266667  0.333333      2.000000
  0.000000 -0.200000  0.333333      2.000000
  0.066667 -0.200000  0.333333      2.000000
  0.133333 -0.200000  0.333333      2.000000
  0.200000 -0.200000  0.333333      2.000000
  0.266667 -0.200000  0.333333      2.000000
  0.333333 -0.200000  0.333333      2.000000
  0.400000 -0.200000  0.333333      2.000000
  0.466667 -0.200000  0.333333      2.000000
 -0.466667 -0.200000  0.333333      2.000000
 -0.400000 -0.200000  0.333333      2.000000
 -0.333333 -0.200000  0.333333      2.000000
 -0.266667 -0.200000  0.333333      2.000000
 -0.200000 -0.200000  0.333333      2.000000
 -0.133333 -0.200000  0.333333      2.000000
 -0.066667 -0.200000  0.333333      2.000000
  0.000000 -0.133333  0.333333      2.000000
  0.066667 -0.133333  0.333333      2.000000
  0.133333 -0.133333  0.333333      2.000000
  0.200000 -0.133333  0.333333      2.000000
  0.266667 -0.133333  0.333333      2.000000
  0.333333 -0.133333  0.333333      2.000000
  0.400000 -0.133333  0.333333      2.000000
  0.466667 -0.133333  0.333333      2.000000
 -0.466667 -0.133333  0.333333      2.000000
 -0.400000 -0.133333  0.333333      2.000000
 -0.333333 -0.133333  0.333333      2.000000
 -0.266667 -0.133333  0.333333      2.000000
 -0.200000 -0.133333  0.333333      2.000000
 -0.133333 -0.133333  0.333333      2.000000
 -0.066667 -0.133333  0.333333      2.000000
  0.000000 -0.066667  0.333333      2.000000
  0.066667 -0.066667  0.333333      2.000000
  0.133333 -0.066667  0.333333      2.000000
  0.200000 -0.066667  0.333333      2.000000
  0.266667 -0.066667  0.333333      2.000000
  0.333333 -0.066667  0.333333      2.000000
  0.400000 -0.066667  0.333333      2.000000
  0.466667 -0.066667  0.333333      2.000000
 -0.466667 -0.066667  0.333333      2.000000
 -0.400000 -0.066667  0.333333      2.000000
 -0.333333 -0.066667  0.333333      2.000000
 -0.266667 -0.066667  0.333333      2.000000
 -0.200000 -0.066667  0.333333      2.000000
 -0.133333 -0.066667  0.333333      2.000000
 -0.066667 -0.066667  0.333333      2.000000
  0.000000  0.000000  0.400000      2.000000
  0.066667 -0.000000  0.400000      2.000000
  0.133333  0.000000  0.400000      2.000000
  0.200000  0.000000  0.400000      2.000000
  0.266667  0.000000  0.400000      2.000000
  0.333333 -0.000000  0.400000      2.000000
  0.400000  0.000000  0.400000      2.000000
  0.466667  0.000000  0.400000      2.000000
 -0.466667  0.000000  0.400000      2.000000
 -0.400000 -0.000000  0.400000      2.000000
 -0.333333  0.000000  0.400000      2.000000
 -0.266667  0.000000  0.400000      2.000000
 -0.200000 -0.000000  0.400000      2.000000
 -0.133333  0.000000  0.400000      2.000000
 -0.066667  0.000000  0.400000      2.000000
 -0.000000  0.066667  0.400000      2.000000
  0.066667  0.066667  0.400000      2.000000
  0.133333  0.066667  0.400000      2.000000
  0.200000  0.066667  0.400000      2.000000
  0.266667  0.066667  0.400000      2.000000
  0.333333  0.066667  0.400000      2.000000
  0.400000  0.066667  0.400000      2.000000
  0.466667  0.066667  0.400000      2.000000
 -0.466667  0.066667  0.400000      2.000000
 -0.400000  0.066667  0.400000      2.000000
 -0.333333  0.066667  0.400000      2.000000
 -0.266667  0.066667  0.400000      2.000000
 -0.200000  0.066667  0.400000      2.000000
 -0.133333  0.066667  0.400000      2.000000
 -0.066667  0.066667  0.400000      2.000000
 -0.000000  0.133333  0.400000      2.000000
  0.066667  0.133333  0.400000      2.000000
  0.133333  0.133333  0.400000      2.000000
  0.200000  0.133333  0.400000      2.000000
  0.266667  0.133333  0.400000      2.000000
  0.333333  0.133333  0.400000      2.000000
  0.400000  0.133333  0.400000      2.000000
  0.466667  0.133333  0.400000      2.000000
 -0.466667  0.133333  0.400000      2.000000
 -0.400000  0.133333  0.400000      2.000000
 -0.333333  0.133333  0.400000      2.000000
 -0.266667  0.133333  0.400000      2.000000
 -0.200000  0.133333  0.400000      2.000000
 -0.133333  0.133333  0.400000      2.000000
 -0.066667  0.133333  0.400000      2.000000
 -0.000000  0.200000  0.400000      2.000000
  0.066667  0.200000  0.400000      2.000000
  0.133333  0.200000  0.400000      2.000000
  0.200000  0.200000  0.400000      2.000000
  0.266667  0.200000  0.400000      2.000000
  0.333333  0.200000  0.400000      2.000000
  0.400000  0.200000  0.400000      2.000000
  0.466667  0.200000  0.400000      2.000000
 -0.466667  0.200000  0.400000      2.000000
 -0.400000  0.200000  0.400000      2.000000
 -0.333333  0.200000  0.400000      2.000000
 -0.266667  0.200000  0.400000      2.000000
 -0.200000  0.200000  0.400000      2.000000
 -0.133333  0.200000  0.400000      2.000000
 -0.066667  0.200000  0.400000      2.000000
  0.000000  0.266667  0.400000      2.000000
  0.066667  0.266667  0.400000      2.000000
  0.133333  0.266667  0.400000      2.000000
  0.200000  0.266667  0.400000      2.000000
  0.266667  0.266667  0.400000      2.000000
  0.333333  0.266667  0.400000      2.000000
  0.400000  0.266667  0.400000      2.000000
  0.466667  0.266667  0.400000      2.000000
 -0.466667  0.266667  0.400000      2.000000
 -0.400000  0.266667  0.400000      2.000000
 -0.333333  0.266667  0.400000      2.000000
 -0.266667  0.266667  0.400000      2.000000
 -0.200000  0.266667  0.400000      2.000000
 -0.133333  0.266667  0.400000      2.000000
 -0.066667  0.266667  0.400000      2.000000
  0.000000  0.333333  0.400000      2.000000
  0.066667  0.333333  0.400000      2.000000
  0.133333  0.333333  0.400000      2.000000
  0.200000  0.333333  0.400000      2.000000
  0.266667  0.333333  0.400000      2.000000
  0.333333  0.333333  0.400000      2.000000
  0.400000  0.333333  0.400000      2.000000
  0.466667  0.333333  0.400000      2.000000
 -0.466667  0.333333  0.400000      2.000000
 -0.400000  0.333333  0.400000      2.000000
 -0.333333  0.333333  0.400000      2.000000
 -0.266667  0.333333  0.400000      2.000000
 -0.200000  0.333333  0.400000      2.000000
 -0.133333  0.333333  0.400000      2.000000
 -0.066667  0.333333  0.400000      2.000000
  0.000000  0.400000  0.400000      2.000000
  0.066667  0.400000  0.400000      2.000000
  0.133333  0.400000  0.400000      2.000000
  0.200000  0.400000  0.400000      2.000000
  0.266667  0.400000  0.400000      2.000000
  0.333333  0.400000  0.400000      2.000000
  0.400000  0.400000  0.400000      2.000000
  0.466667  0.400000  0.400000      2.000000
 -0.466667  0.400000  0.400000      2.000000
 -0.400000  0.400000  0.400000      2.000000
 -0.333333  0.400000  0.400000      2.000000
 -0.266667  0.400000  0.400000      2.000000
 -0.200000  0.400000  0.400000      2.000000
 -0.133333  0.400000  0.400000      2.000000
 -0.066667  0.400000  0.400000      2.000000
  0.000000  0.466667  0.400000      2.000000
  0.066667  0.466667  0.400000      2.000000
  0.133333  0.466667  0.400000      2.000000
  0.200000  0.466667  0.400000      2.000000
  0.266667  0.466667  0.400000      2.000000
  0.333333  0.466667  0.400000      2.000000
  0.400000  0.466667  0.400000      2.000000
  0.466667  0.466667  0.400000      2.000000
 -0.466667  0.466667  0.400000      2.000000
 -0.400000  0.466667  0.400000      2.000000
 -0.333333  0.466667  0.400000      2.000000
 -0.266667  0.466667  0.400000      2.000000
 -0.200000  0.466667  0.400000      2.000000
 -0.133333  0.466667  0.400000      2.000000
 -0.066667  0.466667  0.400000      2.000000
 -0.000000 -0.466667  0.400000      2.000000
  0.066667 -0.466667  0.400000      2.000000
  0.133333 -0.466667  0.400000      2.000000
  0.200000 -0.466667  0.400000      2.000000
  0.266667 -0.466667  0.400000      2.000000
  0.333333 -0.466667  0.400000      2.000000
  0.400000 -0.466667  0.400000      2.000000
  0.466667 -0.466667  0.400000      2.000000
 -0.466667 -0.466667  0.400000      2.000000
 -0.400000 -0.466667  0.400000      2.000000
 -0.333333 -0.466667  0.400000      2.000000
 -0.266667 -0.466667  0.400000      2.000000
 -0.200000 -0.466667  0.400000      2.000000
 -0.133333 -0.466667  0.400000      2.000000
 -0.066667 -0.466667  0.400000      2.000000
  0.000000 -0.400000  0.400000      2.000000
  0.066667 -0.400000  0.400000      2.000000
  0.133333 -0.400000  0.400000      2.000000
  0.200000 -0.400000  0.400000      2.000000
  0.266667 -0.400000  0.400000      2.000000
  0.333333 -0.400000  0.400000      2.000000
  0.400000 -0.400000  0.400000      2.000000
  0.466667 -0.400000  0.400000      2.000000
 -0.466667 -0.400000  0.400000      2.000000
 -0.400000 -0.400000  0.400000      2.000000
 -0.333333 -0.400000  0.400000      2.000000
 -0.266667 -0.400000  0.400000      2.000000
 -0.200000 -0.400000  0.400000      2.000000
 -0.133333 -0.400000  0.400000      2.000000
 -0.066667 -0.400000  0.400000      2.000000
  0.000000 -0.333333  0.400000      2.000000
  0.066667 -0.333333  0.400000      2.000000
  0.133333 -0.333333  0.400000      2.000000
  0.200000 -0.333333  0.400000      2.000000
  0.266667 -0.333333  0.400000      2.000000
  0.333333 -0.333333  0.400000      2.000000
  0.400000 -0.333333  0.400000      2.000000
  0.466667 -0.333333  0.400000      2.000000
 -0.466667 -0.333333  0.400000      2.000000
 -0.400000 -0.333333  0.400000      2.000000
 -0.333333 -0.333333  0.400000      2.000000
 -0.266667 -0.333333  0.400000      2.000000
 -0.200000 -0.333333  0.400000      2.000000
 -0.133333 -0.333333  0.400000      2.000000
 -0.066667 -0.333333  0.400000      2.000000
 -0.000000 -0.266667  0.400000      2.000000
  0.066667 -0.266667  0.400000      2.000000
  0.133333 -0.266667  0.400000      2.000000
  0.200000 -0.266667  0.400000      2.000000
  0.266667 -0.266667  0.400000      2.000000
  0.333333 -0.266667  0.400000      2.000000
  0.400000 -0.266667  0.400000      2.000000
  0.466667 -0.266667  0.400000      2.000000
 -0.466667 -0.266667  0.400000      2.000000
 -0.400000 -0.266667  0.400000      2.000000
 -0.333333 -0.266667  0.400000      2.000000
 -0.266667 -0.266667  0.400000      2.000000
 -0.200000 -0.266667  0.400000      2.000000
 -0.133333 -0.266667  0.400000      2.000000
 -0.066667 -0.266667  0.400000      2.000000
  0.000000 -0.200000  0.400000      2.000000
  0.066667 -0.200000  0.400000      2.000000
  0.133333 -0.200000  0.400000      2.000000
  0.200000 -0.200000  0.400000      2.000000
  0.266667 -0.200000  0.400000      2.000000
  0.333333 -0.200000  0.400000      2.000000
  0.400000 -0.200000  0.400000      2.000000
  0.466667 -0.200000  0.400000      2.000000
 -0.466667 -0.200000  0.400000      2.000000
 -0.400000 -0.200000  0.400000      2.000000
 -0.333333 -0.200000  0.400000      2.000000
 -0.266667 -0.200000  0.400000      2.000000
 -0.200000 -0.200000  0.400000      2.000000
 -0.133333 -0.200000  0.400000      2.000000
 -0.066667 -0.200000  0.400000      2.000000
  0.000000 -0.133333  0.400000      2.000000
  0.066667 -0.133333  0.400000      2.000000
  0.133333 -0.133333  0.400000      2.000000
  0.200000 -0.133333  0.400000      2.000000
  0.266667 -0.133333  0.400000      2.000000
  0.333333 -0.133333  0.400000      2.000000
  0.400000 -0.133333  0.400000      2.000000
  0.466667 -0.133333  0.400000      2.000000
 -0.466667 -0.133333  0.400000      2.000000
 -0.400000 -0.133333  0.400000      2.000000
 -0.333333 -0.133333  0.400000      2.000000
 -0.266667 -0.133333  0.400000      2.000000
 -0.200000 -0.133333  0.400000      2.000000
 -0.133333 -0.133333  0.400000      2.000000
 -0.066667 -0.133333  0.400000      2.000000
 -0.000000 -0.066667  0.400000      2.000000
  0.066667 -0.066667  0.400000      2.000000
  0.133333 -0.066667  0.400000      2.000000
  0.200000 -0.066667  0.400000      2.000000
  0.266667 -0.066667  0.400000      2.000000
  0.333333 -0.066667  0.400000      2.000000
  0.400000 -0.066667  0.400000      2.000000
  0.466667 -0.066667  0.400000      2.000000
 -0.466667 -0.066667  0.400000      2.000000
 -0.400000 -0.066667  0.400000      2.000000
 -0.333333 -0.066667  0.400000      2.000000
 -0.266667 -0.066667  0.400000      2.000000
 -0.200000 -0.066667  0.400000      2.000000
 -0.133333 -0.066667  0.400000      2.000000
 -0.066667 -0.066667  0.400000      2.000000
  0.000000  0.000000  0.466667      2.000000
  0.066667 -0.000000  0.466667      2.000000
  0.133333  0.000000  0.466667      2.000000
  0.200000  0.000000  0.466667      2.000000
  0.266667  0.000000  0.466667      2.000000
  0.333333 -0.000000  0.466667      2.000000
  0.400000  0.000000  0.466667      2.000000
  0.466667  0.000000  0.466667      2.000000
 -0.466667  0.000000  0.466667      2.000000
 -0.400000 -0.000000  0.466667      2.000000
 -0.333333  0.000000  0.466667      2.000000
 -0.266667 -0.000000  0.466667      2.000000
 -0.200000 -0.000000  0.466667      2.000000
 -0.133333  0.000000  0.466667      2.000000
 -0.066667 -0.000000  0.466667      2.000000
 -0.000000  0.066667  0.466667      2.000000
  0.066667  0.066667  0.466667      2.000000
  0.133333  0.066667  0.466667      2.000000
  0.200000  0.066667  0.466667      2.000000
  0.266667  0.066667  0.466667      2.000000
  0.333333  0.066667  0.466667      2.000000
  0.400000  0.066667  0.466667      2.000000
  0.466667  0.066667  0.466667      2.000000
 -0.466667  0.066667  0.466667      2.000000
 -0.400000  0.066667  0.466667      2.000000
 -0.333333  0.066667  0.466667      2.000000
 -0.266667  0.066667  0.466667      2.000000
 -0.200000  0.066667  0.466667      2.000000
 -0.133333  0.066667  0.466667      2.000000
 -0.066667  0.066667  0.466667      2.000000
  0.000000  0.133333  0.466667      2.000000
  0.066667  0.133333  0.466667      2.000000
  0.133333  0.133333  0.466667      2.000000
  0.200000  0.133333  0.466667      2.000000
  0.266667  0.133333  0.466667      2.000000
  0.333333  0.133333  0.466667      2.000000
  0.400000  0.133333  0.466667      2.000000
  0.466667  0.133333  0.466667      2.000000
 -0.466667  0.133333  0.466667      2.000000
 -0.400000  0.133333  0.466667      2.000000
 -0.333333  0.133333  0.466667      2.000000
 -0.266667  0.133333  0.466667      2.000000
 -0.200000  0.133333  0.466667      2.000000
 -0.133333  0.133333  0.466667      2.000000
 -0.066667  0.133333  0.466667      2.000000
 -0.000000  0.200000  0.466667      2.000000
  0.066667  0.200000  0.466667      2.000000
  0.133333  0.200000  0.466667      2.000000
  0.200000  0.200000  0.466667      2.000000
  0.266667  0.200000  0.466667      2.000000
  0.333333  0.200000  0.466667      2.000000
  0.400000  0.200000  0.466667      2.000000
  0.466667  0.200000  0.466667      2.000000
 -0.466667  0.200000  0.466667      2.000000
 -0.400000  0.200000  0.466667      2.000000
 -0.333333  0.200000  0.466667      2.000000
 -0.266667  0.200000  0.466667      2.000000
 -0.200000  0.200000  0.466667      2.000000
 -0.133333  0.200000  0.466667      2.000000
 -0.066667  0.200000  0.466667      2.000000
  0.000000  0.266667  0.466667      2.000000
  0.066667  0.266667  0.466667      2.000000
  0.133333  0.266667  0.466667      2.000000
  0.200000  0.266667  0.466667      2.000000
  0.266667  0.266667  0.466667      2.000000
  0.333333  0.266667  0.466667      2.000000
  0.400000  0.266667  0.466667      2.000000
  0.466667  0.266667  0.466667      2.000000
 -0.466667  0.266667  0.466667      2.000000
 -0.400000  0.266667  0.466667      2.000000
 -0.333333  0.266667  0.466667      2.000000
 -0.266667  0.266667  0.466667      2.000000
 -0.200000  0.266667  0.466667      2.000000
 -0.133333  0.266667  0.466667      2.000000
 -0.066667  0.266667  0.466667      2.000000
  0.000000  0.333333  0.466667      2.000000
  0.066667  0.333333  0.466667      2.000000
  0.133333  0.333333  0.466667      2.000000
  0.200000  0.333333  0.466667      2.000000
  0.266667  0.333333  0.466667      2.000000
  0.333333  0.333333  0.466667      2.000000
  0.400000  0.333333  0.466667      2.000000
  0.466667  0.333333  0.466667      2.000000
 -0.466667  0.333333  0.466667      2.000000
 -0.400000  0.333333  0.466667      2.000000
 -0.333333  0.333333  0.466667      2.000000
 -0.266667  0.333333  0.466667      2.000000
 -0.200000  0.333333  0.466667      2.000000
 -0.133333  0.333333  0.466667      2.000000
 -0.066667  0.333333  0.466667      2.000000
  0.000000  0.400000  0.466667      2.000000
  0.066667  0.400000  0.466667      2.000000
  0.133333  0.400000  0.466667      2.000000
  0.200000  0.400000  0.466667      2.000000
  0.266667  0.400000  0.466667      2.000000
  0.333333  0.400000  0.466667      2.000000
  0.400000  0.400000  0.466667      2.000000
  0.466667  0.400000  0.466667      2.000000
 -0.466667  0.400000  0.466667      2.000000
 -0.400000  0.400000  0.466667      2.000000
 -0.333333  0.400000  0.466667      2.000000
 -0.266667  0.400000  0.466667      2.000000
 -0.200000  0.400000  0.466667      2.000000
 -0.133333  0.400000  0.466667      2.000000
 -0.066667  0.400000  0.466667      2.000000
  0.000000  0.466667  0.466667      2.000000
  0.066667  0.466667  0.466667      2.000000
  0.133333  0.466667  0.466667      2.000000
  0.200000  0.466667  0.466667      2.000000
  0.266667  0.466667  0.466667      2.000000
  0.333333  0.466667  0.466667      2.000000
  0.400000  0.466667  0.466667      2.000000
  0.466667  0.466667  0.466667      2.000000
 -0.466667  0.466667  0.466667      2.000000
 -0.400000  0.466667  0.466667      2.000000
 -0.333333  0.466667  0.466667      2.000000
 -0.266667  0.466667  0.466667      2.000000
 -0.200000  0.466667  0.466667      2.000000
 -0.133333  0.466667  0.466667      2.000000
 -0.066667  0.466667  0.466667      2.000000
  0.000000 -0.466667  0.466667      2.000000
  0.066667 -0.466667  0.466667      2.000000
  0.133333 -0.466667  0.466667      2.000000
  0.200000 -0.466667  0.466667      2.000000
  0.266667 -0.466667  0.466667      2.000000
  0.333333 -0.466667  0.466667      2.000000
  0.400000 -0.466667  0.466667      2.000000
  0.466667 -0.466667  0.466667      2.000000
 -0.466667 -0.466667  0.466667      2.000000
 -0.400000 -0.466667  0.466667      2.000000
 -0.333333 -0.466667  0.466667      2.000000
 -0.266667 -0.466667  0.466667      2.000000
 -0.200000 -0.466667  0.466667      2.000000
 -0.133333 -0.466667  0.466667      2.000000
 -0.066667 -0.466667  0.466667      2.000000
  0.000000 -0.400000  0.466667      2.000000
  0.066667 -0.400000  0.466667      2.000000
  0.133333 -0.400000  0.466667      2.000000
  0.200000 -0.400000  0.466667      2.000000
  0.266667 -0.400000  0.466667      2.000000
  0.333333 -0.400000  0.466667      2.000000
  0.400000 -0.400000  0.466667      2.000000
  0.466667 -0.400000  0.466667      2.000000
 -0.466667 -0.400000  0.466667      2.000000
 -0.400000 -0.400000  0.466667      2.000000
[...]
      7       3.4189      2.00000
      8       3.4434      2.00000
      9       3.6869      2.00000
     10       3.8110      2.00000
     11       3.8762      2.00000
     12       3.9756      2.00000
     13       4.6925      2.00000
     14       4.8630      2.00000
     15       4.9732      2.00000
     16       5.0290      2.00000
     17       5.1713      2.00000
     18       5.4031      2.00000
     19       5.8184      2.00000
     20       5.8400      2.00000
     21       6.6794      2.00000
     22       7.0624      2.00000
     23       9.0565      0.00000
     24       9.5339      0.00000
     25      14.2264      0.00000
     26      14.6869      0.00000
     27      16.8623      0.00000

 k-point  1680 :       0.4000   -0.0667    0.4667
  band No.  band energies     occupation 
      1       2.2047      2.00000
      2       2.4769      2.00000
      3       2.7841      2.00000
      4       2.7907      2.00000
      5       3.5002      2.00000
      6       3.5134      2.00000
      7       3.5141      2.00000
      8       3.5394      2.00000
      9       3.7460      2.00000
     10       3.7830      2.00000
     11       3.9020      2.00000
     12       3.9563      2.00000
     13       4.6421      2.00000
     14       4.7835      2.00000
     15       4.8370      2.00000
     16       4.8714      2.00000
     17       5.1710      2.00000
     18       5.3728      2.00000
     19       5.6036      2.00000
     20       5.6550      2.00000
     21       7.0494      2.00000
     22       7.4721      2.00000
     23       8.4334      0.04373
     24       8.9163      0.00000
     25      14.6667      0.00000
     26      15.1785      0.00000
     27      16.3808      0.00000

 k-point  1681 :       0.4667   -0.0667    0.4667
  band No.  band energies     occupation 
      1       2.4157      2.00000
      2       2.6079      2.00000
      3       2.6079      2.00000
      4       2.7079      2.00000
      5       3.5701      2.00000
      6       3.5761      2.00000
      7       3.5761      2.00000
      8       3.5846      2.00000
      9       3.8475      2.00000
     10       3.8475      2.00000
     11       3.9065      2.00000
     12       3.9304      2.00000
     13       4.6328      2.00000
     14       4.7191      2.00000
     15       4.7191      2.00000
     16       4.7323      2.00000
     17       5.2513      2.00000
     18       5.4044      2.00000
     19       5.4044      2.00000
     20       5.5024      2.00000
     21       7.4528      2.00000
     22       7.9060      2.00000
     23       7.9060      2.00000
     24       8.3799      0.20740
     25      15.1668      0.00000
     26      15.7351      0.00000
     27      15.7354      0.00000

 k-point  1682 :      -0.4667   -0.0667    0.4667
  band No.  band energies     occupation 
      1       2.4157      2.00000
      2       2.6079      2.00000
      3       2.6079      2.00000
      4       2.7079      2.00000
      5       3.5701      2.00000
      6       3.5761      2.00000
      7       3.5761      2.00000
      8       3.5846      2.00000
      9       3.8475      2.00000
     10       3.8475      2.00000
     11       3.9065      2.00000
     12       3.9304      2.00000
     13       4.6328      2.00000
     14       4.7191      2.00000
     15       4.7191      2.00000
     16       4.7323      2.00000
     17       5.2513      2.00000
     18       5.4044      2.00000
     19       5.4044      2.00000
     20       5.5024      2.00000
     21       7.4528      2.00000
     22       7.9060      2.00000
     23       7.9060      2.00000
     24       8.3799      0.20740
     25      15.1668      0.00000
     26      15.7351      0.00000
     27      15.7352      0.00000

 k-point  1683 :      -0.4000   -0.0667    0.4667
  band No.  band energies     occupation 
      1       2.2047      2.00000
      2       2.4769      2.00000
      3       2.7841      2.00000
      4       2.7907      2.00000
      5       3.5002      2.00000
      6       3.5134      2.00000
      7       3.5141      2.00000
      8       3.5394      2.00000
      9       3.7460      2.00000
     10       3.7830      2.00000
     11       3.9020      2.00000
     12       3.9563      2.00000
     13       4.6421      2.00000
     14       4.7835      2.00000
     15       4.8370      2.00000
     16       4.8714      2.00000
     17       5.1710      2.00000
     18       5.3728      2.00000
     19       5.6036      2.00000
     20       5.6550      2.00000
     21       7.0494      2.00000
     22       7.4721      2.00000
     23       8.4334      0.04373
     24       8.9163      0.00000
     25      14.6667      0.00000
     26      15.1785      0.00000
     27      16.3809      0.00000

 k-point  1684 :      -0.3333   -0.0667    0.4667
  band No.  band energies     occupation 
      1       1.9810      2.00000
      2       2.3125      2.00000
      3       2.8665      2.00000
      4       2.9491      2.00000
      5       3.3509      2.00000
      6       3.3773      2.00000
      7       3.4189      2.00000
      8       3.4434      2.00000
      9       3.6869      2.00000
     10       3.8110      2.00000
     11       3.8762      2.00000
     12       3.9756      2.00000
     13       4.6925      2.00000
     14       4.8630      2.00000
     15       4.9732      2.00000
     16       5.0290      2.00000
     17       5.1713      2.00000
     18       5.4031      2.00000
     19       5.8184      2.00000
     20       5.8400      2.00000
     21       6.6794      2.00000
     22       7.0624      2.00000
     23       9.0565      0.00000
     24       9.5339      0.00000
     25      14.2264      0.00000
     26      14.6869      0.00000
     27      16.8539      0.00000

 k-point  1685 :      -0.2667   -0.0667    0.4667
  band No.  band energies     occupation 
      1       1.7611      2.00000
      2       2.1303      2.00000
      3       2.9317      2.00000
      4       3.1014      2.00000
      5       3.1941      2.00000
      6       3.2171      2.00000
      7       3.3120      2.00000
      8       3.3368      2.00000
      9       3.6606      2.00000
     10       3.8474      2.00000
     11       3.9170      2.00000
     12       4.0320      2.00000
     13       4.7349      2.00000
     14       4.9258      2.00000
     15       5.0885      2.00000
     16       5.1479      2.00000
     17       5.2244      2.00000
     18       5.4719      2.00000
     19       6.0303      2.00000
     20       6.0367      2.00000
     21       6.3393      2.00000
     22       6.6712      2.00000
     23       9.7804      0.00000
     24      10.2339      0.00000
     25      13.8481      0.00000
     26      14.2635      0.00000
     27      16.4070      0.00000

 k-point  1686 :      -0.2000   -0.0667    0.4667
  band No.  band energies     occupation 
      1       1.5659      2.00000
      2       1.9564      2.00000
      3       2.9578      2.00000
      4       3.0642      2.00000
      5       3.0699      2.00000
      6       3.2153      2.00000
      7       3.2318      2.00000
      8       3.2805      2.00000
      9       3.6596      2.00000
     10       3.8126      2.00000
     11       4.0761      2.00000
     12       4.1322      2.00000
     13       4.7668      2.00000
     14       4.9729      2.00000
     15       5.1607      2.00000
     16       5.2077      2.00000
     17       5.2734      2.00000
     18       5.5408      2.00000
     19       6.0436      2.00000
     20       6.2293      2.00000
     21       6.2294      2.00000
     22       6.3070      2.00000
     23      10.5841      0.00000
     24      10.9819      0.00000
     25      13.5630      0.00000
     26      13.9246      0.00000
     27      16.0287      0.00000

 k-point  1687 :      -0.1333   -0.0667    0.4667
  band No.  band energies     occupation 
      1       1.4135      2.00000
      2       1.8155      2.00000
      3       2.9273      2.00000
      4       2.9571      2.00000
      5       2.9700      2.00000
      6       3.1408      2.00000
      7       3.3049      2.00000
      8       3.3185      2.00000
      9       3.6884      2.00000
     10       3.7715      2.00000
     11       4.2653      2.00000
     12       4.2657      2.00000
     13       4.7977      2.00000
     14       5.0164      2.00000
     15       5.1918      2.00000
     16       5.2155      2.00000
     17       5.2498      2.00000
     18       5.5529      2.00000
     19       5.8357      2.00000
     20       6.0106      2.00000
     21       6.3983      2.00000
     22       6.3993      2.00000
     23      11.4030      0.00000
     24      11.6671      0.00000
     25      13.4732      0.00000
     26      13.7181      0.00000
     27      15.6574      0.00000

 k-point  1688 :      -0.0667   -0.0667    0.4667
  band No.  band energies     occupation 
      1       1.3171      2.00000
      2       1.7245      2.00000
      3       2.8860      2.00000
      4       2.8860      2.00000
      5       2.9132      2.00000
      6       3.0943      2.00000
      7       3.3592      2.00000
      8       3.3592      2.00000
      9       3.7317      2.00000
     10       3.7317      2.00000
     11       4.3995      2.00000
     12       4.4433      2.00000
     13       4.8430      2.00000
     14       5.0788      2.00000
     15       5.1210      2.00000
     16       5.1986      2.00000
     17       5.1987      2.00000
     18       5.4219      2.00000
     19       5.7498      2.00000
     20       5.8750      2.00000
     21       6.5163      2.00000
     22       6.5163      2.00000
     23      12.0675      0.00000
     24      12.0675      0.00000
     25      13.7619      0.00000
     26      13.7619      0.00000
     27      15.2057      0.00000


--------------------------------------------------------------------------------------------------------


 soft charge-density along one line, spin component           1
         0         1         2         3         4         5         6         7         8         9
 total charge-density along one line
 
 pseudopotential strength for first ion, spin component:           1
 -4.166   0.000   0.000   0.000  -0.000  -4.399   0.000   0.000
  0.000  -4.166   0.000  -0.000  -0.000   0.000  -4.399   0.000
  0.000   0.000  -4.152   0.000   0.000   0.000   0.000  -4.386
  0.000  -0.000   0.000  -4.166   0.000   0.000  -0.000   0.000
 -0.000  -0.000   0.000   0.000  -4.152  -0.000  -0.000   0.000
 -4.399   0.000   0.000   0.000  -0.000  -4.614   0.000   0.000
  0.000  -4.399   0.000  -0.000  -0.000   0.000  -4.614   0.000
  0.000   0.000  -4.386   0.000   0.000   0.000   0.000  -4.601
  0.000  -0.000   0.000  -4.399   0.000   0.000  -0.000   0.000
 -0.000  -0.000   0.000   0.000  -4.386  -0.000  -0.000   0.000
 -0.000  -0.000   0.000  -0.000  -0.000  -0.000  -0.000   0.000
 -0.000  -0.000   0.000  -0.000  -0.000  -0.000  -0.000   0.000
 -0.000   0.000  -0.000  -0.000  -0.000  -0.000   0.000  -0.000
 -0.000   0.000   0.000  -0.000  -0.000  -0.000   0.000   0.000
  0.000  -0.000   0.000   0.000  -0.000   0.000  -0.000   0.000
 -0.000   0.000  -0.000  -0.000  -0.000  -0.000   0.000  -0.000
 -0.000   0.000   0.000  -0.000  -0.000  -0.000   0.000   0.000
  0.000  -0.000   0.000   0.000  -0.000   0.000  -0.000   0.000
 total augmentation occupancy for first ion, spin component:           1
  4.472   0.000  -0.000  -0.000  -0.000  -2.421  -0.000   0.000   0.000   0.000   0.000  -0.000  -0.000  -0.000  -0.000   0.000
  0.000   4.472  -0.000  -0.000  -0.000  -0.000  -2.421   0.000   0.000   0.000   0.000  -0.000  -0.000  -0.000   0.000   0.000
 -0.000  -0.000   4.301  -0.000   0.000   0.000   0.000  -2.061   0.000  -0.000   0.000  -0.000   0.000  -0.000   0.000   0.000
 -0.000  -0.000  -0.000   4.472  -0.000   0.000   0.000   0.000  -2.421   0.000   0.000  -0.000   0.000   0.000   0.000  -0.000
 -0.000  -0.000   0.000  -0.000   4.301   0.000  -0.000  -0.000   0.000  -2.061  -0.000   0.000   0.000  -0.000   0.000  -0.000
 -2.421  -0.000   0.000   0.000   0.000   2.286   0.000  -0.000  -0.000  -0.000   0.000  -0.000   0.000   0.000   0.000  -0.000
 -0.000  -2.421   0.000   0.000  -0.000   0.000   2.286  -0.000  -0.000   0.000  -0.000   0.000  -0.000  -0.000  -0.000  -0.000
  0.000   0.000  -2.061   0.000  -0.000  -0.000  -0.000   1.788  -0.000   0.000  -0.000   0.000  -0.000   0.000  -0.000  -0.000
  0.000   0.000   0.000  -2.421   0.000  -0.000  -0.000  -0.000   2.286  -0.000   0.000   0.000   0.000  -0.000  -0.000   0.000
  0.000   0.000  -0.000   0.000  -2.061  -0.000   0.000   0.000  -0.000   1.788   0.000  -0.000  -0.000   0.000  -0.000   0.000
  0.000   0.000   0.000   0.000  -0.000   0.000  -0.000  -0.000   0.000   0.000   2.387  -0.594   0.000   0.000  -0.000   0.000
 -0.000  -0.000  -0.000  -0.000   0.000  -0.000   0.000   0.000   0.000  -0.000  -0.594   0.192  -0.000  -0.000   0.000   0.000
 -0.000  -0.000   0.000   0.000   0.000   0.000  -0.000  -0.000   0.000  -0.000   0.000  -0.000   0.159  -0.000   0.000  -0.006
 -0.000  -0.000  -0.000   0.000  -0.000   0.000  -0.000   0.000  -0.000   0.000   0.000  -0.000  -0.000   0.159   0.000  -0.000
 -0.000   0.000   0.000   0.000   0.000   0.000  -0.000  -0.000  -0.000  -0.000  -0.000   0.000   0.000   0.000   0.159  -0.000
  0.000   0.000   0.000  -0.000  -0.000  -0.000  -0.000  -0.000   0.000   0.000   0.000   0.000  -0.006  -0.000  -0.000   0.000
 -0.000   0.000   0.000  -0.000   0.000   0.000   0.000  -0.000  -0.000   0.000   0.000   0.000   0.000  -0.006   0.000  -0.000
  0.000  -0.000   0.000   0.000  -0.000  -0.000   0.000  -0.000  -0.000  -0.000  -0.000   0.000  -0.000   0.000  -0.006   0.000


------------------------ aborting loop because EDIFF is reached ----------------------------------------


    CHARGE:  cpu time    0.9439: real time    0.9456
    FORLOC:  cpu time    0.0010: real time    0.0047
    FORNL :  cpu time    2.7466: real time    2.7654
    STRESS:  cpu time    5.1032: real time    5.1211
    FORCOR:  cpu time    0.0080: real time    0.0162
    FORHAR:  cpu time    0.0030: real time    0.0053
    MIXING:  cpu time    0.0000: real time    0.0005
    OFIELD:  cpu time    0.0010: real time    0.0025

  FORCE on cell =-STRESS in cart. coord.  units (eV):
  Direction    XX          YY          ZZ          XY          YZ          ZX
  --------------------------------------------------------------------------------------
  Alpha Z   253.35559   253.35559   253.35559
  Ewald   -1271.05262 -1271.05261 -1271.05261     0.00001    -0.00005     0.00002
  Hartree   163.92266   163.92266   163.92266     0.00001    -0.00002     0.00001
  E(xc)    -197.91323  -197.91323  -197.91323    -0.00000    -0.00000     0.00000
  Local     171.25806   171.25804   171.25805    -0.00002     0.00007    -0.00003
  n-local    -5.21463    -5.21463    -5.21463     0.00000    -0.00000    -0.00000
  augment   271.47741   271.47741   271.47741     0.00000     0.00000    -0.00000
  Kinetic   612.69014   612.69014   612.69014     0.00000     0.00000    -0.00000
  Fock        0.00000     0.00000     0.00000     0.00000     0.00000     0.00000
  -------------------------------------------------------------------------------------
  Total      -1.47663    -1.47663    -1.47663     0.00000    -0.00000     0.00000
  in kB     -32.16194   -32.16189   -32.16188     0.00004    -0.00003     0.00001
  external pressure =      -32.16 kB  Pullay stress =        0.00 kB


 VOLUME and BASIS-vectors are now :
 -----------------------------------------------------------------------------
  energy-cutoff  :      500.00
  volume of cell :       73.56
      direct lattice vectors                 reciprocal lattice vectors
     4.189991608 -0.000000030 -0.000000062     0.238663963  0.000000002  0.000000004
    -0.000000030  4.189991201  0.000000139     0.000000002  0.238663986 -0.000000008
    -0.000000062  0.000000139  4.189991266     0.000000004 -0.000000008  0.238663982

  length of vectors
     4.189991608  4.189991201  4.189991266     0.238663963  0.238663986  0.238663982


 FORCES acting on ions
    electron-ion (+dipol)            ewald-force                    non-local-force                 convergence-correction
 -----------------------------------------------------------------------------------------------
   0.223E-05 0.410E-06 0.258E-05   -.150E-05 0.269E-06 -.235E-05   -.235E-06 0.742E-07 -.136E-08   -.229E-06 -.603E-06 -.473E-06
   0.232E-05 0.374E-06 0.613E-06   -.308E-05 0.150E-06 -.642E-06   0.748E-06 -.601E-06 -.228E-06   -.188E-06 0.474E-07 0.451E-06
   -.118E-05 -.263E-05 -.170E-05   0.170E-05 0.190E-05 0.198E-05   -.380E-06 0.676E-06 -.499E-06   -.394E-07 0.150E-06 0.295E-06
   -.347E-05 0.161E-05 -.151E-05   0.288E-05 -.231E-05 0.101E-05   0.248E-06 0.297E-06 0.620E-06   0.199E-06 0.181E-06 -.163E-06
 -----------------------------------------------------------------------------------------------
   -.978E-07 -.236E-06 -.380E-08   -.207E-14 0.531E-15 0.289E-14   0.381E-06 0.447E-06 -.109E-06   -.258E-06 -.225E-06 0.110E-06
 
 
 POSITION                                       TOTAL-FORCE (eV/Angst)
 -----------------------------------------------------------------------------------
      4.18999     -0.00000     -0.00000         0.000000      0.000000     -0.000000
     -0.00000      2.09500      2.09500        -0.000000     -0.000000      0.000000
      2.09500      4.18999      2.09500         0.000000      0.000000      0.000000
      2.09500      2.09500      4.18999        -0.000000     -0.000000     -0.000000
 -----------------------------------------------------------------------------------
    total drift:                                0.000000     -0.000000     -0.000000


--------------------------------------------------------------------------------------------------------



  FREE ENERGIE OF THE ION-ELECTRON SYSTEM (eV)
  ---------------------------------------------------
  free  energy   TOTEN  =       -12.86953656 eV

  energy  without entropy=      -12.86505853  energy(sigma->0) =      -12.86729755
 


--------------------------------------------------------------------------------------------------------


    POTLOK:  cpu time    0.0140: real time    0.0196


--------------------------------------------------------------------------------------------------------


 stress matrix after NEB project (eV)
     -1.47663      0.00000      0.00000
      0.00000     -1.47663     -0.00000
      0.00000     -0.00000     -1.47663
  FORCES: max atom, RMS     0.000000    0.000000
  FORCE total and by dimension    0.000001    0.000000
  Stress total and by dimension    2.557592    1.476628


--------------------------------------------------------------------------------------------------------


  
 reached required accuracy - stopping structural energy minimisation
     LOOP+:  cpu time  236.5060: real time  239.3367
    4ORBIT:  cpu time    0.0000: real time    0.0000

 total amount of memory used by VASP MPI-rank0   159680. kBytes
=======================================================================

   base      :      30000. kBytes
   nonl-proj :      61999. kBytes
   fftplans  :        540. kBytes
   grid      :        768. kBytes
   one-center:         15. kBytes
   wavefun   :      66358. kBytes
 
  
  
 General timing and accounting informations for this job:
 ========================================================
  
                  Total CPU time used (sec):      250.754
                            User time (sec):      244.963
                          System time (sec):        5.791
                         Elapsed time (sec):      255.906
  
                   Maximum memory used (kb):      240032.
                   Average memory used (kb):           0.
  
                          Minor page faults:        66286
                          Major page faults:          366
                 Voluntary context switches:         9104
