 running on   24 total cores
 distrk:  each k-point on   24 cores,    1 groups
 distr:  one band on    8 cores,    3 groups
 using from now: INCAR     
 vasp.5.4.4.18Apr17-6-g9f103f2a35 (build Jan 14 2019 14:48:31) complex          
  
 POSCAR found type information on POSCAR  Au
 POSCAR found :  1 types and       4 ions
 scaLAPACK will be used
 LDA part: xc-table for Pade appr. of Perdew
 POSCAR found type information on POSCAR  Au
 POSCAR found :  1 types and       4 ions
 POSCAR, INCAR and KPOINTS ok, starting setup
 FFT: planning ...
 WAVECAR not read
 entering main loop
       N       E                     dE             d eps       ncg     rms          rms(c)
DAV:   1     0.271974356942E+03    0.27197E+03   -0.22527E+04 91890   0.152E+03
DAV:   2    -0.889119792211E+01   -0.28087E+03   -0.27282E+03105498   0.324E+02
DAV:   3    -0.138787122662E+02   -0.49875E+01   -0.49548E+01101934   0.452E+01
DAV:   4    -0.139086781426E+02   -0.29966E-01   -0.29948E-01104517   0.363E+00
DAV:   5    -0.139089581644E+02   -0.28002E-03   -0.28001E-03107082   0.369E-01    0.148E+01
RMM:   6    -0.129312184657E+02    0.97774E+00   -0.26172E+00 91156   0.105E+01    0.977E+00
RMM:   7    -0.128769882643E+02    0.54230E-01   -0.28945E-01 91220   0.334E+00    0.475E+00
RMM:   8    -0.128696437402E+02    0.73445E-02   -0.12391E-02 91188   0.719E-01    0.518E-01
RMM:   9    -0.128695178608E+02    0.12588E-03   -0.30775E-04 91188   0.993E-02    0.394E-02
RMM:  10    -0.128695349979E+02   -0.17137E-04   -0.20015E-05 91171   0.343E-02    0.284E-02
RMM:  11    -0.128695366599E+02   -0.16619E-05   -0.81574E-07 50472   0.511E-03    0.596E-04
RMM:  12    -0.128695365635E+02    0.96402E-07   -0.13331E-07 42932   0.231E-03
   1 F= -.12869537E+02 E0= -.12867298E+02  d E =-.128695E+02
 curvature:   0.00 expect dE= 0.000E+00 dE for cont linesearch  0.000E+00
 trial: gam= 0.00000 g(F)=  0.623E-14 g(S)=  0.000E+00 ort = 0.000E+00 (trialstep = 0.100E+01)
 search vector abs. value=  0.100E-09
 reached required accuracy - stopping structural energy minimisation
