unknown system                          
           1
     4.189992   -0.000000   -0.000000
    -0.000000    4.189991    0.000000
    -0.000000    0.000000    4.189991
   Au
   4
Direct configuration=     1
   1.00000000  0.00000000  0.00000000
   0.00000000  0.50000000  0.50000000
   0.50000000  1.00000000  0.50000000
   0.50000000  0.50000000  1.00000000
