   4   4   0   0
  0.1892444E+02  0.4268628E-09  0.4268628E-09  0.4154382E-09  0.2000000E-15
  1.000000000000000E-004
  CAR 
 unknown system                          
     17.98376854     -1.97440961  301      7.84414932      1.00000000
     -1.974  0.0000E+00  0.0000E+00
     -1.908  0.0000E+00  0.0000E+00
     -1.841  0.0000E+00  0.0000E+00
     -1.775  0.0000E+00  0.0000E+00
     -1.708  0.0000E+00  0.0000E+00
     -1.642  0.0000E+00  0.0000E+00
     -1.575  0.0000E+00  0.0000E+00
     -1.509  0.1899E-17  0.1263E-18
     -1.442  0.1736E-14  0.1156E-15
     -1.376  0.6789E-12  0.4528E-13
     -1.309  0.1158E-09  0.7746E-11
     -1.243  0.8848E-08  0.5964E-09
     -1.176  0.3150E-06  0.2155E-07
     -1.110  0.5468E-05  0.3853E-06
     -1.043  0.4848E-04  0.3611E-05
     -0.977  0.2290E-03  0.1885E-04
     -0.910  0.6074E-03  0.5925E-04
     -0.843  0.1030E-02  0.1278E-03
     -0.777  0.1451E-02  0.2243E-03
     -0.710  0.1855E-02  0.3478E-03
     -0.644  0.1947E-02  0.4773E-03
     -0.577  0.2140E-02  0.6197E-03
     -0.511  0.2631E-02  0.7947E-03
     -0.444  0.2836E-02  0.9833E-03
     -0.378  0.2938E-02  0.1179E-02
     -0.311  0.3017E-02  0.1379E-02
     -0.245  0.3008E-02  0.1580E-02
     -0.178  0.3571E-02  0.1817E-02
     -0.112  0.4179E-02  0.2095E-02
     -0.045  0.4264E-02  0.2379E-02
      0.021  0.3862E-02  0.2636E-02
      0.088  0.3559E-02  0.2872E-02
      0.154  0.4401E-02  0.3165E-02
      0.221  0.5398E-02  0.3524E-02
      0.288  0.5490E-02  0.3890E-02
      0.354  0.5091E-02  0.4228E-02
      0.421  0.5039E-02  0.4564E-02
      0.487  0.5644E-02  0.4939E-02
      0.554  0.6033E-02  0.5340E-02
      0.620  0.6026E-02  0.5741E-02
      0.687  0.6287E-02  0.6160E-02
      0.753  0.7308E-02  0.6646E-02
      0.820  0.8151E-02  0.7188E-02
      0.886  0.7908E-02  0.7714E-02
      0.953  0.7433E-02  0.8209E-02
      1.019  0.7559E-02  0.8711E-02
      1.086  0.9147E-02  0.9320E-02
      1.152  0.1152E-01  0.1009E-01
      1.219  0.1212E-01  0.1089E-01
      1.285  0.1168E-01  0.1167E-01
      1.352  0.1462E-01  0.1264E-01
      1.418  0.2067E-01  0.1402E-01
      1.485  0.2607E-01  0.1575E-01
      1.552  0.2871E-01  0.1766E-01
      1.618  0.2920E-01  0.1960E-01
      1.685  0.3226E-01  0.2175E-01
      1.751  0.3915E-01  0.2435E-01
      1.818  0.4570E-01  0.2740E-01
      1.884  0.5166E-01  0.3083E-01
      1.951  0.5892E-01  0.3475E-01
      2.017  0.6846E-01  0.3931E-01
      2.084  0.7708E-01  0.4443E-01
      2.150  0.8293E-01  0.4995E-01
      2.217  0.8537E-01  0.5563E-01
      2.283  0.8436E-01  0.6124E-01
      2.350  0.8268E-01  0.6674E-01
      2.416  0.7868E-01  0.7198E-01
      2.483  0.7596E-01  0.7703E-01
      2.549  0.7545E-01  0.8205E-01
      2.616  0.7220E-01  0.8685E-01
      2.682  0.6850E-01  0.9141E-01
      2.749  0.6307E-01  0.9561E-01
      2.816  0.5772E-01  0.9945E-01
      2.882  0.5912E-01  0.1034E+00
      2.949  0.6519E-01  0.1077E+00
      3.015  0.7282E-01  0.1126E+00
      3.082  0.8193E-01  0.1180E+00
      3.148  0.9053E-01  0.1240E+00
      3.215  0.9507E-01  0.1304E+00
      3.281  0.9509E-01  0.1367E+00
      3.348  0.9373E-01  0.1429E+00
      3.414  0.9623E-01  0.1493E+00
      3.481  0.1000E+00  0.1560E+00
      3.547  0.1009E+00  0.1627E+00
      3.614  0.9946E-01  0.1693E+00
      3.680  0.1007E+00  0.1760E+00
      3.747  0.1120E+00  0.1835E+00
      3.813  0.1316E+00  0.1922E+00
      3.880  0.1443E+00  0.2018E+00
      3.947  0.1429E+00  0.2113E+00
      4.013  0.1326E+00  0.2201E+00
      4.080  0.1172E+00  0.2279E+00
      4.146  0.1011E+00  0.2347E+00
      4.213  0.8933E-01  0.2406E+00
      4.279  0.8308E-01  0.2461E+00
      4.346  0.7967E-01  0.2514E+00
      4.412  0.7782E-01  0.2566E+00
      4.479  0.7872E-01  0.2619E+00
      4.545  0.8396E-01  0.2674E+00
      4.612  0.9140E-01  0.2735E+00
      4.678  0.9800E-01  0.2800E+00
      4.745  0.1011E+00  0.2868E+00
      4.811  0.1021E+00  0.2936E+00
      4.878  0.1013E+00  0.3003E+00
      4.944  0.9632E-01  0.3067E+00
      5.011  0.9084E-01  0.3127E+00
      5.077  0.9004E-01  0.3187E+00
      5.144  0.8932E-01  0.3247E+00
      5.211  0.8432E-01  0.3303E+00
      5.277  0.7824E-01  0.3355E+00
      5.344  0.7656E-01  0.3406E+00
      5.410  0.8011E-01  0.3459E+00
      5.477  0.8276E-01  0.3514E+00
      5.543  0.8333E-01  0.3570E+00
      5.610  0.8929E-01  0.3629E+00
      5.676  0.9805E-01  0.3694E+00
      5.743  0.1070E+00  0.3765E+00
      5.809  0.1235E+00  0.3848E+00
      5.876  0.1380E+00  0.3939E+00
      5.942  0.1294E+00  0.4025E+00
      6.009  0.1006E+00  0.4092E+00
      6.075  0.6983E-01  0.4139E+00
      6.142  0.4710E-01  0.4170E+00
      6.208  0.3468E-01  0.4193E+00
      6.275  0.2681E-01  0.4211E+00
      6.341  0.1859E-01  0.4223E+00
      6.408  0.1149E-01  0.4231E+00
      6.475  0.8827E-02  0.4237E+00
      6.541  0.1007E-01  0.4244E+00
      6.608  0.1263E-01  0.4252E+00
      6.674  0.1402E-01  0.4261E+00
      6.741  0.1284E-01  0.4270E+00
      6.807  0.1093E-01  0.4277E+00
      6.874  0.1030E-01  0.4284E+00
      6.940  0.1096E-01  0.4291E+00
      7.007  0.1270E-01  0.4300E+00
      7.073  0.1436E-01  0.4309E+00
      7.140  0.1340E-01  0.4318E+00
      7.206  0.1100E-01  0.4326E+00
      7.273  0.9761E-02  0.4332E+00
      7.339  0.9816E-02  0.4339E+00
      7.406  0.1098E-01  0.4346E+00
      7.472  0.1372E-01  0.4355E+00
      7.539  0.1608E-01  0.4366E+00
      7.606  0.1444E-01  0.4375E+00
      7.672  0.1107E-01  0.4383E+00
      7.739  0.9652E-02  0.4389E+00
      7.805  0.1007E-01  0.4396E+00
      7.872  0.1079E-01  0.4403E+00
      7.938  0.1151E-01  0.4411E+00
      8.005  0.1264E-01  0.4419E+00
      8.071  0.1390E-01  0.4428E+00
      8.138  0.1418E-01  0.4438E+00
      8.204  0.1346E-01  0.4447E+00
      8.271  0.1228E-01  0.4455E+00
      8.337  0.1073E-01  0.4462E+00
      8.404  0.9977E-02  0.4469E+00
      8.470  0.1028E-01  0.4476E+00
      8.537  0.1094E-01  0.4483E+00
      8.603  0.1179E-01  0.4491E+00
      8.670  0.1284E-01  0.4499E+00
      8.736  0.1314E-01  0.4508E+00
      8.803  0.1268E-01  0.4516E+00
      8.870  0.1223E-01  0.4524E+00
      8.936  0.1149E-01  0.4532E+00
      9.003  0.1115E-01  0.4540E+00
      9.069  0.1173E-01  0.4547E+00
      9.136  0.1204E-01  0.4555E+00
      9.202  0.1149E-01  0.4563E+00
      9.269  0.1112E-01  0.4570E+00
      9.335  0.1164E-01  0.4578E+00
      9.402  0.1182E-01  0.4586E+00
      9.468  0.1093E-01  0.4593E+00
      9.535  0.1089E-01  0.4601E+00
      9.601  0.1183E-01  0.4608E+00
      9.668  0.1180E-01  0.4616E+00
      9.734  0.1160E-01  0.4624E+00
      9.801  0.1201E-01  0.4632E+00
      9.867  0.1168E-01  0.4640E+00
      9.934  0.1038E-01  0.4647E+00
     10.000  0.1020E-01  0.4653E+00
     10.067  0.1105E-01  0.4661E+00
     10.134  0.1108E-01  0.4668E+00
     10.200  0.1076E-01  0.4675E+00
     10.267  0.1104E-01  0.4683E+00
     10.333  0.1268E-01  0.4691E+00
     10.400  0.1740E-01  0.4703E+00
     10.466  0.2122E-01  0.4717E+00
     10.533  0.1910E-01  0.4729E+00
     10.599  0.1456E-01  0.4739E+00
     10.666  0.1378E-01  0.4748E+00
     10.732  0.1629E-01  0.4759E+00
     10.799  0.1739E-01  0.4771E+00
     10.865  0.1581E-01  0.4781E+00
     10.932  0.1441E-01  0.4791E+00
     10.998  0.1425E-01  0.4800E+00
     11.065  0.1345E-01  0.4809E+00
     11.131  0.1157E-01  0.4817E+00
     11.198  0.1021E-01  0.4824E+00
     11.265  0.1101E-01  0.4831E+00
     11.331  0.1230E-01  0.4839E+00
     11.398  0.1132E-01  0.4847E+00
     11.464  0.1018E-01  0.4854E+00
     11.531  0.1149E-01  0.4861E+00
     11.597  0.1236E-01  0.4869E+00
     11.664  0.1049E-01  0.4876E+00
     11.730  0.8603E-02  0.4882E+00
     11.797  0.8737E-02  0.4888E+00
     11.863  0.1043E-01  0.4895E+00
     11.930  0.1170E-01  0.4903E+00
     11.996  0.1121E-01  0.4910E+00
     12.063  0.1084E-01  0.4917E+00
     12.129  0.1226E-01  0.4926E+00
     12.196  0.1338E-01  0.4934E+00
     12.262  0.1309E-01  0.4943E+00
     12.329  0.1285E-01  0.4952E+00
     12.395  0.1450E-01  0.4961E+00
     12.462  0.1625E-01  0.4972E+00
     12.529  0.1503E-01  0.4982E+00
     12.595  0.1288E-01  0.4991E+00
     12.662  0.1257E-01  0.4999E+00
     12.728  0.1360E-01  0.5008E+00
     12.795  0.1480E-01  0.5018E+00
     12.861  0.1617E-01  0.5029E+00
     12.928  0.1700E-01  0.5040E+00
     12.994  0.1680E-01  0.5051E+00
     13.061  0.1648E-01  0.5062E+00
     13.127  0.1596E-01  0.5073E+00
     13.194  0.1489E-01  0.5083E+00
     13.260  0.1389E-01  0.5092E+00
     13.327  0.1207E-01  0.5100E+00
     13.393  0.9786E-02  0.5106E+00
     13.460  0.9783E-02  0.5113E+00
     13.526  0.1219E-01  0.5121E+00
     13.593  0.1385E-01  0.5130E+00
     13.659  0.1275E-01  0.5139E+00
     13.726  0.1111E-01  0.5146E+00
     13.793  0.1048E-01  0.5153E+00
     13.859  0.1035E-01  0.5160E+00
     13.926  0.1158E-01  0.5168E+00
     13.992  0.1336E-01  0.5177E+00
     14.059  0.1352E-01  0.5186E+00
     14.125  0.1235E-01  0.5194E+00
     14.192  0.1093E-01  0.5201E+00
     14.258  0.1003E-01  0.5208E+00
     14.325  0.1012E-01  0.5215E+00
     14.391  0.1132E-01  0.5222E+00
     14.458  0.1260E-01  0.5230E+00
     14.524  0.1184E-01  0.5238E+00
     14.591  0.9682E-02  0.5245E+00
     14.657  0.8640E-02  0.5250E+00
     14.724  0.9656E-02  0.5257E+00
     14.790  0.1084E-01  0.5264E+00
     14.857  0.1061E-01  0.5271E+00
     14.924  0.1041E-01  0.5278E+00
     14.990  0.1232E-01  0.5286E+00
     15.057  0.1508E-01  0.5296E+00
     15.123  0.1552E-01  0.5307E+00
     15.190  0.1309E-01  0.5315E+00
     15.256  0.1001E-01  0.5322E+00
     15.323  0.8493E-02  0.5328E+00
     15.389  0.8581E-02  0.5333E+00
     15.456  0.9995E-02  0.5340E+00
     15.522  0.1045E-01  0.5347E+00
     15.589  0.9542E-02  0.5353E+00
     15.655  0.9659E-02  0.5360E+00
     15.722  0.9188E-02  0.5366E+00
     15.788  0.7103E-02  0.5371E+00
     15.855  0.5221E-02  0.5374E+00
     15.921  0.3730E-02  0.5377E+00
     15.988  0.3359E-02  0.5379E+00
     16.054  0.4542E-02  0.5382E+00
     16.121  0.5350E-02  0.5385E+00
     16.188  0.4129E-02  0.5388E+00
     16.254  0.2578E-02  0.5390E+00
     16.321  0.2325E-02  0.5391E+00
     16.387  0.2398E-02  0.5393E+00
     16.454  0.2024E-02  0.5394E+00
     16.520  0.2015E-02  0.5396E+00
     16.587  0.2186E-02  0.5397E+00
     16.653  0.1651E-02  0.5398E+00
     16.720  0.8315E-03  0.5399E+00
     16.786  0.3390E-03  0.5399E+00
     16.853  0.2408E-03  0.5399E+00
     16.919  0.4191E-03  0.5399E+00
     16.986  0.4875E-03  0.5400E+00
     17.052  0.2716E-03  0.5400E+00
     17.119  0.7200E-04  0.5400E+00
     17.185  0.9208E-05  0.5400E+00
     17.252  0.5687E-06  0.5400E+00
     17.318  0.1663E-07  0.5400E+00
     17.385  0.2231E-09  0.5400E+00
     17.452  0.1328E-11  0.5400E+00
     17.518  0.3429E-14  0.5400E+00
     17.585  0.3758E-17  0.5400E+00
     17.651  0.0000E+00  0.5400E+00
     17.718  0.0000E+00  0.5400E+00
     17.784  0.0000E+00  0.5400E+00
     17.851  0.0000E+00  0.5400E+00
     17.917  0.0000E+00  0.5400E+00
     17.984  0.0000E+00  0.5400E+00
