 vasp.5.4.4.18Apr17-6-g9f103f2a35 (build Jan 14 2019 14:48:31) complex          
  
 executed on             LinuxIFC date 2019.09.29  20:28:11
 running on   24 total cores
 distrk:  each k-point on   24 cores,    1 groups
 distr:  one band on NCORES_PER_BAND=   8 cores,    3 groups


--------------------------------------------------------------------------------------------------------


 INCAR:
 POTCAR:    PAW_PBE Au 04Oct2007                  
 POTCAR:    PAW_PBE Au 04Oct2007                  
   VRHFIN =Au: s1d10                                                            
   LEXCH  = PE                                                                  
   EATOM  =   926.0867 eV,   68.0654 Ry                                         
                                                                                
   TITEL  = PAW_PBE Au 04Oct2007                                                
   LULTRA =        F    use ultrasoft PP ?                                      
   IUNSCR =        1    unscreen: 0-lin 1-nonlin 2-no                           
   RPACOR =    2.330    partial core radius                                     
   POMASS =  196.966; ZVAL   =   11.000    mass and valenz                      
   RCORE  =    2.500    outmost cutoff radius                                   
   RWIGS  =    2.840; RWIGS  =    1.503    wigner-seitz radius (au A)           
   ENMAX  =  229.943; ENMIN  =  172.457 eV                                      
   ICORE  =        3    local potential                                         
   LCOR   =        T    correct aug charges                                     
   LPAW   =        T    paw PP                                                  
   EAUG   =  356.670                                                            
   DEXC   =    0.000                                                            
   RMAX   =    2.562    core radius for proj-oper                               
   RAUG   =    1.300    factor for augmentation sphere                          
   RDEP   =    2.598    radius for radial grids                                 
   RDEPT  =    2.193    core radius for aug-charge                              
                                                                                
   Atomic configuration                                                         
   16 entries                                                                   
     n  l   j            E        occ.                                          
     1  0  0.50    -80748.5001   2.0000                                         
     2  0  0.50    -14244.7466   2.0000                                         
     2  1  1.50    -12310.9591   6.0000                                         
     3  0  0.50     -3362.1768   2.0000                                         
     3  1  1.50     -2801.5463   6.0000                                         
     3  2  2.50     -2203.8206  10.0000                                         
     4  0  0.50      -729.8168   2.0000                                         
     4  1  1.50      -546.0527   6.0000                                         
     4  2  2.50      -325.7302  10.0000                                         
     4  3  3.50       -81.1472  14.0000                                         
     5  0  0.50      -108.3201   2.0000                                         
     5  1  1.50       -59.7479   6.0000                                         
     5  2  2.50        -6.8783  10.0000                                         
     6  0  0.50        -5.7602   1.0000                                         
     6  1  1.50        -6.8029   0.0000                                         
     5  3  2.50        -1.3606   0.0000                                         
   Description                                                                  
     l       E           TYP  RCUT    TYP  RCUT                                 
     2     -6.8782861     23  2.500                                             
     2     -8.2388687     23  2.500                                             
     0     -5.7601759     23  2.500                                             
     0     -0.8493231     23  2.500                                             
     1     -2.7211652     23  2.500                                             
     1     27.2116520     23  2.500                                             
     3     -1.3605826     23  2.500                                             
  local pseudopotential read in
  partial core-charges read in
  partial kinetic energy density read in
  atomic valenz-charges read in
  non local Contribution for L=           2  read in
    real space projection operators read in
  non local Contribution for L=           2  read in
    real space projection operators read in
  non local Contribution for L=           0  read in
    real space projection operators read in
  non local Contribution for L=           0  read in
    real space projection operators read in
  non local Contribution for L=           1  read in
    real space projection operators read in
  non local Contribution for L=           1  read in
    real space projection operators read in
    PAW grid and wavefunctions read in
 
   number of l-projection  operators is LMAX  =           6
   number of lm-projection operators is LMMAX =          18
 
  PAW_PBE Au 04Oct2007                  :
 energy of atom  1       EATOM= -926.0867
 kinetic energy error for atom=    0.0042 (will be added to EATOM!!)
 
 
 POSCAR: Au4                                     
  positions in direct lattice
  velocities in cartesian coordinates
 exchange correlation table for  LEXCH =        8
   RHO(1)=    0.500       N(1)  =     2000
   RHO(2)=  100.500       N(2)  =     4000

 VTST: version 3.1, (03/28/14)

 CHAIN: initializing optimizer
 
 OPT: Using VASP Conjugate-Gradient optimizer
 CHAIN: Read ICHAIN            0
 
 POSCAR: Au4                                     
  positions in direct lattice
  velocities in cartesian coordinates
 


--------------------------------------------------------------------------------------------------------


 ion  position               nearest neighbor table
   1  1.000  0.000  0.000-   2 2.98   2 2.98   2 2.98   3 2.98   2 2.98   3 2.98   3 2.98   3 2.98
                             4 3.02   4 3.02   4 3.02   4 3.02
   2  0.000  0.500  0.500-   1 2.98   1 2.98   4 2.98   1 2.98   1 2.98   4 2.98   4 2.98   4 2.98
                             3 3.02   3 3.02   3 3.02   3 3.02
   3  0.500  1.000  0.500-   4 2.98   4 2.98   4 2.98   1 2.98   4 2.98   1 2.98   1 2.98   1 2.98
                             2 3.02   2 3.02   2 3.02   2 3.02
   4  0.500  0.500  1.000-   3 2.98   3 2.98   2 2.98   3 2.98   3 2.98   2 2.98   2 2.98   2 2.98
                             1 3.02   1 3.02   1 3.02   1 3.02
 

IMPORTANT INFORMATION: All symmetrisations will be switched off!
NOSYMM: (Re-)initialisation of all symmetry stuff for point group C_1.

 
 
 KPOINTS: automatic-generation                    

Automatic generation of k-mesh.
Space group operators:
 irot       det(A)        alpha          n_x          n_y          n_z        tau_x        tau_y        tau_z
    1     1.000000     0.000000     1.000000     0.000000     0.000000     0.000000     0.000000     0.000000
 
 Subroutine IBZKPT returns following result:
 ===========================================
 
 Found   1688 irreducible k-points:
 
 Following reciprocal coordinates:
            Coordinates               Weight
  0.000000  0.000000  0.000000      1.000000
  0.066667 -0.000000  0.000000      2.000000
  0.133333 -0.000000  0.000000      2.000000
  0.200000 -0.000000  0.000000      2.000000
  0.266667 -0.000000  0.000000      2.000000
  0.333333 -0.000000  0.000000      2.000000
  0.400000 -0.000000  0.000000      2.000000
  0.466667 -0.000000  0.000000      2.000000
  0.000000  0.066667  0.000000      2.000000
  0.066667  0.066667  0.000000      2.000000
  0.133333  0.066667 -0.000000      2.000000
  0.200000  0.066667  0.000000      2.000000
  0.266667  0.066667  0.000000      2.000000
  0.333333  0.066667  0.000000      2.000000
  0.400000  0.066667  0.000000      2.000000
  0.466667  0.066667  0.000000      2.000000
 -0.466667  0.066667 -0.000000      2.000000
 -0.400000  0.066667 -0.000000      2.000000
 -0.333333  0.066667 -0.000000      2.000000
 -0.266667  0.066667  0.000000      2.000000
 -0.200000  0.066667 -0.000000      2.000000
 -0.133333  0.066667  0.000000      2.000000
 -0.066667  0.066667  0.000000      2.000000
  0.000000  0.133333 -0.000000      2.000000
  0.066667  0.133333  0.000000      2.000000
  0.133333  0.133333  0.000000      2.000000
  0.200000  0.133333  0.000000      2.000000
  0.266667  0.133333 -0.000000      2.000000
  0.333333  0.133333  0.000000      2.000000
  0.400000  0.133333  0.000000      2.000000
  0.466667  0.133333  0.000000      2.000000
 -0.466667  0.133333 -0.000000      2.000000
 -0.400000  0.133333 -0.000000      2.000000
 -0.333333  0.133333 -0.000000      2.000000
 -0.266667  0.133333  0.000000      2.000000
 -0.200000  0.133333 -0.000000      2.000000
 -0.133333  0.133333  0.000000      2.000000
 -0.066667  0.133333  0.000000      2.000000
  0.000000  0.200000 -0.000000      2.000000
  0.066667  0.200000 -0.000000      2.000000
  0.133333  0.200000 -0.000000      2.000000
  0.200000  0.200000  0.000000      2.000000
  0.266667  0.200000 -0.000000      2.000000
  0.333333  0.200000  0.000000      2.000000
  0.400000  0.200000  0.000000      2.000000
  0.466667  0.200000  0.000000      2.000000
 -0.466667  0.200000 -0.000000      2.000000
 -0.400000  0.200000 -0.000000      2.000000
 -0.333333  0.200000 -0.000000      2.000000
 -0.266667  0.200000 -0.000000      2.000000
 -0.200000  0.200000  0.000000      2.000000
 -0.133333  0.200000 -0.000000      2.000000
 -0.066667  0.200000  0.000000      2.000000
  0.000000  0.266667 -0.000000      2.000000
  0.066667  0.266667 -0.000000      2.000000
  0.133333  0.266667  0.000000      2.000000
  0.200000  0.266667  0.000000      2.000000
  0.266667  0.266667 -0.000000      2.000000
  0.333333  0.266667  0.000000      2.000000
  0.400000  0.266667  0.000000      2.000000
  0.466667  0.266667 -0.000000      2.000000
 -0.466667  0.266667 -0.000000      2.000000
 -0.400000  0.266667 -0.000000      2.000000
 -0.333333  0.266667 -0.000000      2.000000
 -0.266667  0.266667 -0.000000      2.000000
 -0.200000  0.266667 -0.000000      2.000000
 -0.133333  0.266667 -0.000000      2.000000
 -0.066667  0.266667  0.000000      2.000000
 -0.000000  0.333333  0.000000      2.000000
  0.066667  0.333333  0.000000      2.000000
  0.133333  0.333333  0.000000      2.000000
  0.200000  0.333333  0.000000      2.000000
  0.266667  0.333333  0.000000      2.000000
  0.333333  0.333333  0.000000      2.000000
  0.400000  0.333333  0.000000      2.000000
  0.466667  0.333333  0.000000      2.000000
 -0.466667  0.333333  0.000000      2.000000
 -0.400000  0.333333  0.000000      2.000000
 -0.333333  0.333333 -0.000000      2.000000
 -0.266667  0.333333  0.000000      2.000000
 -0.200000  0.333333  0.000000      2.000000
 -0.133333  0.333333  0.000000      2.000000
 -0.066667  0.333333 -0.000000      2.000000
  0.000000  0.400000 -0.000000      2.000000
  0.066667  0.400000  0.000000      2.000000
  0.133333  0.400000 -0.000000      2.000000
  0.200000  0.400000  0.000000      2.000000
  0.266667  0.400000  0.000000      2.000000
  0.333333  0.400000  0.000000      2.000000
  0.400000  0.400000  0.000000      2.000000
  0.466667  0.400000  0.000000      2.000000
 -0.466667  0.400000 -0.000000      2.000000
 -0.400000  0.400000  0.000000      2.000000
 -0.333333  0.400000  0.000000      2.000000
 -0.266667  0.400000 -0.000000      2.000000
 -0.200000  0.400000 -0.000000      2.000000
 -0.133333  0.400000  0.000000      2.000000
 -0.066667  0.400000 -0.000000      2.000000
 -0.000000  0.466667  0.000000      2.000000
  0.066667  0.466667  0.000000      2.000000
  0.133333  0.466667  0.000000      2.000000
  0.200000  0.466667  0.000000      2.000000
  0.266667  0.466667  0.000000      2.000000
  0.333333  0.466667  0.000000      2.000000
  0.400000  0.466667  0.000000      2.000000
  0.466667  0.466667  0.000000      2.000000
 -0.466667  0.466667  0.000000      2.000000
 -0.400000  0.466667 -0.000000      2.000000
 -0.333333  0.466667 -0.000000      2.000000
 -0.266667  0.466667 -0.000000      2.000000
 -0.200000  0.466667 -0.000000      2.000000
 -0.133333  0.466667  0.000000      2.000000
 -0.066667  0.466667  0.000000      2.000000
 -0.000000  0.000000  0.066667      2.000000
  0.066667  0.000000  0.066667      2.000000
  0.133333  0.000000  0.066667      2.000000
  0.200000  0.000000  0.066667      2.000000
  0.266667  0.000000  0.066667      2.000000
  0.333333  0.000000  0.066667      2.000000
  0.400000  0.000000  0.066667      2.000000
  0.466667  0.000000  0.066667      2.000000
 -0.466667  0.000000  0.066667      2.000000
 -0.400000  0.000000  0.066667      2.000000
 -0.333333  0.000000  0.066667      2.000000
 -0.266667  0.000000  0.066667      2.000000
 -0.200000  0.000000  0.066667      2.000000
 -0.133333  0.000000  0.066667      2.000000
 -0.066667  0.000000  0.066667      2.000000
 -0.000000  0.066667  0.066667      2.000000
  0.066667  0.066667  0.066667      2.000000
  0.133333  0.066667  0.066667      2.000000
  0.200000  0.066667  0.066667      2.000000
  0.266667  0.066667  0.066667      2.000000
  0.333333  0.066667  0.066667      2.000000
  0.400000  0.066667  0.066667      2.000000
  0.466667  0.066667  0.066667      2.000000
 -0.466667  0.066667  0.066667      2.000000
 -0.400000  0.066667  0.066667      2.000000
 -0.333333  0.066667  0.066667      2.000000
 -0.266667  0.066667  0.066667      2.000000
 -0.200000  0.066667  0.066667      2.000000
 -0.133333  0.066667  0.066667      2.000000
 -0.066667  0.066667  0.066667      2.000000
 -0.000000  0.133333  0.066667      2.000000
  0.066667  0.133333  0.066667      2.000000
  0.133333  0.133333  0.066667      2.000000
  0.200000  0.133333  0.066667      2.000000
  0.266667  0.133333  0.066667      2.000000
  0.333333  0.133333  0.066667      2.000000
  0.400000  0.133333  0.066667      2.000000
  0.466667  0.133333  0.066667      2.000000
 -0.466667  0.133333  0.066667      2.000000
 -0.400000  0.133333  0.066667      2.000000
 -0.333333  0.133333  0.066667      2.000000
 -0.266667  0.133333  0.066667      2.000000
 -0.200000  0.133333  0.066667      2.000000
 -0.133333  0.133333  0.066667      2.000000
 -0.066667  0.133333  0.066667      2.000000
  0.000000  0.200000  0.066667      2.000000
  0.066667  0.200000  0.066667      2.000000
  0.133333  0.200000  0.066667      2.000000
  0.200000  0.200000  0.066667      2.000000
  0.266667  0.200000  0.066667      2.000000
  0.333333  0.200000  0.066667      2.000000
  0.400000  0.200000  0.066667      2.000000
  0.466667  0.200000  0.066667      2.000000
 -0.466667  0.200000  0.066667      2.000000
 -0.400000  0.200000  0.066667      2.000000
 -0.333333  0.200000  0.066667      2.000000
 -0.266667  0.200000  0.066667      2.000000
 -0.200000  0.200000  0.066667      2.000000
 -0.133333  0.200000  0.066667      2.000000
 -0.066667  0.200000  0.066667      2.000000
  0.000000  0.266667  0.066667      2.000000
  0.066667  0.266667  0.066667      2.000000
  0.133333  0.266667  0.066667      2.000000
  0.200000  0.266667  0.066667      2.000000
  0.266667  0.266667  0.066667      2.000000
  0.333333  0.266667  0.066667      2.000000
  0.400000  0.266667  0.066667      2.000000
  0.466667  0.266667  0.066667      2.000000
 -0.466667  0.266667  0.066667      2.000000
 -0.400000  0.266667  0.066667      2.000000
 -0.333333  0.266667  0.066667      2.000000
 -0.266667  0.266667  0.066667      2.000000
 -0.200000  0.266667  0.066667      2.000000
 -0.133333  0.266667  0.066667      2.000000
 -0.066667  0.266667  0.066667      2.000000
 -0.000000  0.333333  0.066667      2.000000
  0.066667  0.333333  0.066667      2.000000
  0.133333  0.333333  0.066667      2.000000
  0.200000  0.333333  0.066667      2.000000
  0.266667  0.333333  0.066667      2.000000
  0.333333  0.333333  0.066667      2.000000
  0.400000  0.333333  0.066667      2.000000
  0.466667  0.333333  0.066667      2.000000
 -0.466667  0.333333  0.066667      2.000000
 -0.400000  0.333333  0.066667      2.000000
 -0.333333  0.333333  0.066667      2.000000
 -0.266667  0.333333  0.066667      2.000000
 -0.200000  0.333333  0.066667      2.000000
 -0.133333  0.333333  0.066667      2.000000
 -0.066667  0.333333  0.066667      2.000000
  0.000000  0.400000  0.066667      2.000000
  0.066667  0.400000  0.066667      2.000000
  0.133333  0.400000  0.066667      2.000000
  0.200000  0.400000  0.066667      2.000000
  0.266667  0.400000  0.066667      2.000000
  0.333333  0.400000  0.066667      2.000000
  0.400000  0.400000  0.066667      2.000000
  0.466667  0.400000  0.066667      2.000000
 -0.466667  0.400000  0.066667      2.000000
 -0.400000  0.400000  0.066667      2.000000
 -0.333333  0.400000  0.066667      2.000000
 -0.266667  0.400000  0.066667      2.000000
 -0.200000  0.400000  0.066667      2.000000
 -0.133333  0.400000  0.066667      2.000000
 -0.066667  0.400000  0.066667      2.000000
 -0.000000  0.466667  0.066667      2.000000
  0.066667  0.466667  0.066667      2.000000
  0.133333  0.466667  0.066667      2.000000
  0.200000  0.466667  0.066667      2.000000
  0.266667  0.466667  0.066667      2.000000
  0.333333  0.466667  0.066667      2.000000
  0.400000  0.466667  0.066667      2.000000
  0.466667  0.466667  0.066667      2.000000
 -0.466667  0.466667  0.066667      2.000000
 -0.400000  0.466667  0.066667      2.000000
 -0.333333  0.466667  0.066667      2.000000
 -0.266667  0.466667  0.066667      2.000000
 -0.200000  0.466667  0.066667      2.000000
 -0.133333  0.466667  0.066667      2.000000
 -0.066667  0.466667  0.066667      2.000000
  0.000000 -0.466667  0.066667      2.000000
  0.066667 -0.466667  0.066667      2.000000
  0.133333 -0.466667  0.066667      2.000000
  0.200000 -0.466667  0.066667      2.000000
  0.266667 -0.466667  0.066667      2.000000
  0.333333 -0.466667  0.066667      2.000000
  0.400000 -0.466667  0.066667      2.000000
  0.466667 -0.466667  0.066667      2.000000
 -0.466667 -0.466667  0.066667      2.000000
 -0.400000 -0.466667  0.066667      2.000000
 -0.333333 -0.466667  0.066667      2.000000
 -0.266667 -0.466667  0.066667      2.000000
 -0.200000 -0.466667  0.066667      2.000000
 -0.133333 -0.466667  0.066667      2.000000
 -0.066667 -0.466667  0.066667      2.000000
  0.000000 -0.400000  0.066667      2.000000
  0.066667 -0.400000  0.066667      2.000000
  0.133333 -0.400000  0.066667      2.000000
  0.200000 -0.400000  0.066667      2.000000
  0.266667 -0.400000  0.066667      2.000000
  0.333333 -0.400000  0.066667      2.000000
  0.400000 -0.400000  0.066667      2.000000
  0.466667 -0.400000  0.066667      2.000000
 -0.466667 -0.400000  0.066667      2.000000
 -0.400000 -0.400000  0.066667      2.000000
 -0.333333 -0.400000  0.066667      2.000000
 -0.266667 -0.400000  0.066667      2.000000
 -0.200000 -0.400000  0.066667      2.000000
 -0.133333 -0.400000  0.066667      2.000000
 -0.066667 -0.400000  0.066667      2.000000
 -0.000000 -0.333333  0.066667      2.000000
  0.066667 -0.333333  0.066667      2.000000
  0.133333 -0.333333  0.066667      2.000000
  0.200000 -0.333333  0.066667      2.000000
  0.266667 -0.333333  0.066667      2.000000
  0.333333 -0.333333  0.066667      2.000000
  0.400000 -0.333333  0.066667      2.000000
  0.466667 -0.333333  0.066667      2.000000
 -0.466667 -0.333333  0.066667      2.000000
 -0.400000 -0.333333  0.066667      2.000000
 -0.333333 -0.333333  0.066667      2.000000
 -0.266667 -0.333333  0.066667      2.000000
 -0.200000 -0.333333  0.066667      2.000000
 -0.133333 -0.333333  0.066667      2.000000
 -0.066667 -0.333333  0.066667      2.000000
 -0.000000 -0.266667  0.066667      2.000000
  0.066667 -0.266667  0.066667      2.000000
  0.133333 -0.266667  0.066667      2.000000
  0.200000 -0.266667  0.066667      2.000000
  0.266667 -0.266667  0.066667      2.000000
  0.333333 -0.266667  0.066667      2.000000
  0.400000 -0.266667  0.066667      2.000000
  0.466667 -0.266667  0.066667      2.000000
 -0.466667 -0.266667  0.066667      2.000000
 -0.400000 -0.266667  0.066667      2.000000
 -0.333333 -0.266667  0.066667      2.000000
 -0.266667 -0.266667  0.066667      2.000000
 -0.200000 -0.266667  0.066667      2.000000
 -0.133333 -0.266667  0.066667      2.000000
 -0.066667 -0.266667  0.066667      2.000000
  0.000000 -0.200000  0.066667      2.000000
  0.066667 -0.200000  0.066667      2.000000
  0.133333 -0.200000  0.066667      2.000000
  0.200000 -0.200000  0.066667      2.000000
  0.266667 -0.200000  0.066667      2.000000
  0.333333 -0.200000  0.066667      2.000000
  0.400000 -0.200000  0.066667      2.000000
  0.466667 -0.200000  0.066667      2.000000
 -0.466667 -0.200000  0.066667      2.000000
 -0.400000 -0.200000  0.066667      2.000000
 -0.333333 -0.200000  0.066667      2.000000
 -0.266667 -0.200000  0.066667      2.000000
 -0.200000 -0.200000  0.066667      2.000000
 -0.133333 -0.200000  0.066667      2.000000
 -0.066667 -0.200000  0.066667      2.000000
 -0.000000 -0.133333  0.066667      2.000000
  0.066667 -0.133333  0.066667      2.000000
  0.133333 -0.133333  0.066667      2.000000
  0.200000 -0.133333  0.066667      2.000000
  0.266667 -0.133333  0.066667      2.000000
  0.333333 -0.133333  0.066667      2.000000
  0.400000 -0.133333  0.066667      2.000000
  0.466667 -0.133333  0.066667      2.000000
 -0.466667 -0.133333  0.066667      2.000000
 -0.400000 -0.133333  0.066667      2.000000
 -0.333333 -0.133333  0.066667      2.000000
 -0.266667 -0.133333  0.066667      2.000000
 -0.200000 -0.133333  0.066667      2.000000
 -0.133333 -0.133333  0.066667      2.000000
 -0.066667 -0.133333  0.066667      2.000000
  0.000000 -0.066667  0.066667      2.000000
  0.066667 -0.066667  0.066667      2.000000
  0.133333 -0.066667  0.066667      2.000000
  0.200000 -0.066667  0.066667      2.000000
  0.266667 -0.066667  0.066667      2.000000
  0.333333 -0.066667  0.066667      2.000000
  0.400000 -0.066667  0.066667      2.000000
  0.466667 -0.066667  0.066667      2.000000
 -0.466667 -0.066667  0.066667      2.000000
 -0.400000 -0.066667  0.066667      2.000000
 -0.333333 -0.066667  0.066667      2.000000
 -0.266667 -0.066667  0.066667      2.000000
 -0.200000 -0.066667  0.066667      2.000000
 -0.133333 -0.066667  0.066667      2.000000
 -0.066667 -0.066667  0.066667      2.000000
 -0.000000  0.000000  0.133333      2.000000
  0.066667  0.000000  0.133333      2.000000
  0.133333  0.000000  0.133333      2.000000
  0.200000  0.000000  0.133333      2.000000
  0.266667  0.000000  0.133333      2.000000
  0.333333  0.000000  0.133333      2.000000
  0.400000  0.000000  0.133333      2.000000
  0.466667  0.000000  0.133333      2.000000
 -0.466667  0.000000  0.133333      2.000000
 -0.400000  0.000000  0.133333      2.000000
 -0.333333  0.000000  0.133333      2.000000
 -0.266667  0.000000  0.133333      2.000000
 -0.200000  0.000000  0.133333      2.000000
 -0.133333  0.000000  0.133333      2.000000
 -0.066667  0.000000  0.133333      2.000000
  0.000000  0.066667  0.133333      2.000000
  0.066667  0.066667  0.133333      2.000000
  0.133333  0.066667  0.133333      2.000000
  0.200000  0.066667  0.133333      2.000000
  0.266667  0.066667  0.133333      2.000000
  0.333333  0.066667  0.133333      2.000000
  0.400000  0.066667  0.133333      2.000000
  0.466667  0.066667  0.133333      2.000000
 -0.466667  0.066667  0.133333      2.000000
 -0.400000  0.066667  0.133333      2.000000
 -0.333333  0.066667  0.133333      2.000000
 -0.266667  0.066667  0.133333      2.000000
 -0.200000  0.066667  0.133333      2.000000
 -0.133333  0.066667  0.133333      2.000000
 -0.066667  0.066667  0.133333      2.000000
 -0.000000  0.133333  0.133333      2.000000
  0.066667  0.133333  0.133333      2.000000
  0.133333  0.133333  0.133333      2.000000
  0.200000  0.133333  0.133333      2.000000
  0.266667  0.133333  0.133333      2.000000
  0.333333  0.133333  0.133333      2.000000
  0.400000  0.133333  0.133333      2.000000
  0.466667  0.133333  0.133333      2.000000
 -0.466667  0.133333  0.133333      2.000000
 -0.400000  0.133333  0.133333      2.000000
 -0.333333  0.133333  0.133333      2.000000
 -0.266667  0.133333  0.133333      2.000000
 -0.200000  0.133333  0.133333      2.000000
 -0.133333  0.133333  0.133333      2.000000
 -0.066667  0.133333  0.133333      2.000000
  0.000000  0.200000  0.133333      2.000000
  0.066667  0.200000  0.133333      2.000000
  0.133333  0.200000  0.133333      2.000000
  0.200000  0.200000  0.133333      2.000000
  0.266667  0.200000  0.133333      2.000000
  0.333333  0.200000  0.133333      2.000000
  0.400000  0.200000  0.133333      2.000000
  0.466667  0.200000  0.133333      2.000000
 -0.466667  0.200000  0.133333      2.000000
 -0.400000  0.200000  0.133333      2.000000
 -0.333333  0.200000  0.133333      2.000000
 -0.266667  0.200000  0.133333      2.000000
 -0.200000  0.200000  0.133333      2.000000
 -0.133333  0.200000  0.133333      2.000000
 -0.066667  0.200000  0.133333      2.000000
 -0.000000  0.266667  0.133333      2.000000
  0.066667  0.266667  0.133333      2.000000
  0.133333  0.266667  0.133333      2.000000
  0.200000  0.266667  0.133333      2.000000
  0.266667  0.266667  0.133333      2.000000
  0.333333  0.266667  0.133333      2.000000
  0.400000  0.266667  0.133333      2.000000
  0.466667  0.266667  0.133333      2.000000
 -0.466667  0.266667  0.133333      2.000000
 -0.400000  0.266667  0.133333      2.000000
 -0.333333  0.266667  0.133333      2.000000
 -0.266667  0.266667  0.133333      2.000000
 -0.200000  0.266667  0.133333      2.000000
 -0.133333  0.266667  0.133333      2.000000
 -0.066667  0.266667  0.133333      2.000000
  0.000000  0.333333  0.133333      2.000000
  0.066667  0.333333  0.133333      2.000000
  0.133333  0.333333  0.133333      2.000000
  0.200000  0.333333  0.133333      2.000000
  0.266667  0.333333  0.133333      2.000000
  0.333333  0.333333  0.133333      2.000000
  0.400000  0.333333  0.133333      2.000000
  0.466667  0.333333  0.133333      2.000000
 -0.466667  0.333333  0.133333      2.000000
 -0.400000  0.333333  0.133333      2.000000
 -0.333333  0.333333  0.133333      2.000000
 -0.266667  0.333333  0.133333      2.000000
 -0.200000  0.333333  0.133333      2.000000
 -0.133333  0.333333  0.133333      2.000000
 -0.066667  0.333333  0.133333      2.000000
  0.000000  0.400000  0.133333      2.000000
  0.066667  0.400000  0.133333      2.000000
  0.133333  0.400000  0.133333      2.000000
  0.200000  0.400000  0.133333      2.000000
  0.266667  0.400000  0.133333      2.000000
  0.333333  0.400000  0.133333      2.000000
  0.400000  0.400000  0.133333      2.000000
  0.466667  0.400000  0.133333      2.000000
 -0.466667  0.400000  0.133333      2.000000
 -0.400000  0.400000  0.133333      2.000000
 -0.333333  0.400000  0.133333      2.000000
 -0.266667  0.400000  0.133333      2.000000
 -0.200000  0.400000  0.133333      2.000000
 -0.133333  0.400000  0.133333      2.000000
 -0.066667  0.400000  0.133333      2.000000
  0.000000  0.466667  0.133333      2.000000
  0.066667  0.466667  0.133333      2.000000
  0.133333  0.466667  0.133333      2.000000
  0.200000  0.466667  0.133333      2.000000
  0.266667  0.466667  0.133333      2.000000
  0.333333  0.466667  0.133333      2.000000
  0.400000  0.466667  0.133333      2.000000
  0.466667  0.466667  0.133333      2.000000
 -0.466667  0.466667  0.133333      2.000000
 -0.400000  0.466667  0.133333      2.000000
 -0.333333  0.466667  0.133333      2.000000
 -0.266667  0.466667  0.133333      2.000000
 -0.200000  0.466667  0.133333      2.000000
 -0.133333  0.466667  0.133333      2.000000
 -0.066667  0.466667  0.133333      2.000000
 -0.000000 -0.466667  0.133333      2.000000
  0.066667 -0.466667  0.133333      2.000000
  0.133333 -0.466667  0.133333      2.000000
  0.200000 -0.466667  0.133333      2.000000
  0.266667 -0.466667  0.133333      2.000000
  0.333333 -0.466667  0.133333      2.000000
  0.400000 -0.466667  0.133333      2.000000
  0.466667 -0.466667  0.133333      2.000000
 -0.466667 -0.466667  0.133333      2.000000
 -0.400000 -0.466667  0.133333      2.000000
 -0.333333 -0.466667  0.133333      2.000000
 -0.266667 -0.466667  0.133333      2.000000
 -0.200000 -0.466667  0.133333      2.000000
 -0.133333 -0.466667  0.133333      2.000000
 -0.066667 -0.466667  0.133333      2.000000
  0.000000 -0.400000  0.133333      2.000000
  0.066667 -0.400000  0.133333      2.000000
  0.133333 -0.400000  0.133333      2.000000
  0.200000 -0.400000  0.133333      2.000000
  0.266667 -0.400000  0.133333      2.000000
  0.333333 -0.400000  0.133333      2.000000
  0.400000 -0.400000  0.133333      2.000000
  0.466667 -0.400000  0.133333      2.000000
 -0.466667 -0.400000  0.133333      2.000000
 -0.400000 -0.400000  0.133333      2.000000
 -0.333333 -0.400000  0.133333      2.000000
 -0.266667 -0.400000  0.133333      2.000000
 -0.200000 -0.400000  0.133333      2.000000
 -0.133333 -0.400000  0.133333      2.000000
 -0.066667 -0.400000  0.133333      2.000000
  0.000000 -0.333333  0.133333      2.000000
  0.066667 -0.333333  0.133333      2.000000
  0.133333 -0.333333  0.133333      2.000000
  0.200000 -0.333333  0.133333      2.000000
  0.266667 -0.333333  0.133333      2.000000
  0.333333 -0.333333  0.133333      2.000000
  0.400000 -0.333333  0.133333      2.000000
  0.466667 -0.333333  0.133333      2.000000
 -0.466667 -0.333333  0.133333      2.000000
 -0.400000 -0.333333  0.133333      2.000000
 -0.333333 -0.333333  0.133333      2.000000
 -0.266667 -0.333333  0.133333      2.000000
 -0.200000 -0.333333  0.133333      2.000000
 -0.133333 -0.333333  0.133333      2.000000
 -0.066667 -0.333333  0.133333      2.000000
  0.000000 -0.266667  0.133333      2.000000
  0.066667 -0.266667  0.133333      2.000000
  0.133333 -0.266667  0.133333      2.000000
  0.200000 -0.266667  0.133333      2.000000
  0.266667 -0.266667  0.133333      2.000000
  0.333333 -0.266667  0.133333      2.000000
  0.400000 -0.266667  0.133333      2.000000
  0.466667 -0.266667  0.133333      2.000000
 -0.466667 -0.266667  0.133333      2.000000
 -0.400000 -0.266667  0.133333      2.000000
 -0.333333 -0.266667  0.133333      2.000000
 -0.266667 -0.266667  0.133333      2.000000
 -0.200000 -0.266667  0.133333      2.000000
 -0.133333 -0.266667  0.133333      2.000000
 -0.066667 -0.266667  0.133333      2.000000
  0.000000 -0.200000  0.133333      2.000000
  0.066667 -0.200000  0.133333      2.000000
  0.133333 -0.200000  0.133333      2.000000
  0.200000 -0.200000  0.133333      2.000000
  0.266667 -0.200000  0.133333      2.000000
  0.333333 -0.200000  0.133333      2.000000
  0.400000 -0.200000  0.133333      2.000000
  0.466667 -0.200000  0.133333      2.000000
 -0.466667 -0.200000  0.133333      2.000000
 -0.400000 -0.200000  0.133333      2.000000
 -0.333333 -0.200000  0.133333      2.000000
 -0.266667 -0.200000  0.133333      2.000000
 -0.200000 -0.200000  0.133333      2.000000
 -0.133333 -0.200000  0.133333      2.000000
 -0.066667 -0.200000  0.133333      2.000000
  0.000000 -0.133333  0.133333      2.000000
  0.066667 -0.133333  0.133333      2.000000
  0.133333 -0.133333  0.133333      2.000000
  0.200000 -0.133333  0.133333      2.000000
  0.266667 -0.133333  0.133333      2.000000
  0.333333 -0.133333  0.133333      2.000000
  0.400000 -0.133333  0.133333      2.000000
  0.466667 -0.133333  0.133333      2.000000
 -0.466667 -0.133333  0.133333      2.000000
 -0.400000 -0.133333  0.133333      2.000000
 -0.333333 -0.133333  0.133333      2.000000
 -0.266667 -0.133333  0.133333      2.000000
 -0.200000 -0.133333  0.133333      2.000000
 -0.133333 -0.133333  0.133333      2.000000
 -0.066667 -0.133333  0.133333      2.000000
 -0.000000 -0.066667  0.133333      2.000000
  0.066667 -0.066667  0.133333      2.000000
  0.133333 -0.066667  0.133333      2.000000
  0.200000 -0.066667  0.133333      2.000000
  0.266667 -0.066667  0.133333      2.000000
  0.333333 -0.066667  0.133333      2.000000
  0.400000 -0.066667  0.133333      2.000000
  0.466667 -0.066667  0.133333      2.000000
 -0.466667 -0.066667  0.133333      2.000000
 -0.400000 -0.066667  0.133333      2.000000
 -0.333333 -0.066667  0.133333      2.000000
 -0.266667 -0.066667  0.133333      2.000000
 -0.200000 -0.066667  0.133333      2.000000
 -0.133333 -0.066667  0.133333      2.000000
 -0.066667 -0.066667  0.133333      2.000000
  0.000000  0.000000  0.200000      2.000000
  0.066667  0.000000  0.200000      2.000000
  0.133333  0.000000  0.200000      2.000000
  0.200000  0.000000  0.200000      2.000000
  0.266667  0.000000  0.200000      2.000000
  0.333333  0.000000  0.200000      2.000000
  0.400000  0.000000  0.200000      2.000000
  0.466667  0.000000  0.200000      2.000000
 -0.466667  0.000000  0.200000      2.000000
 -0.400000  0.000000  0.200000      2.000000
 -0.333333  0.000000  0.200000      2.000000
 -0.266667  0.000000  0.200000      2.000000
 -0.200000  0.000000  0.200000      2.000000
 -0.133333  0.000000  0.200000      2.000000
 -0.066667  0.000000  0.200000      2.000000
  0.000000  0.066667  0.200000      2.000000
  0.066667  0.066667  0.200000      2.000000
  0.133333  0.066667  0.200000      2.000000
  0.200000  0.066667  0.200000      2.000000
  0.266667  0.066667  0.200000      2.000000
  0.333333  0.066667  0.200000      2.000000
  0.400000  0.066667  0.200000      2.000000
  0.466667  0.066667  0.200000      2.000000
 -0.466667  0.066667  0.200000      2.000000
 -0.400000  0.066667  0.200000      2.000000
 -0.333333  0.066667  0.200000      2.000000
 -0.266667  0.066667  0.200000      2.000000
 -0.200000  0.066667  0.200000      2.000000
 -0.133333  0.066667  0.200000      2.000000
 -0.066667  0.066667  0.200000      2.000000
 -0.000000  0.133333  0.200000      2.000000
  0.066667  0.133333  0.200000      2.000000
  0.133333  0.133333  0.200000      2.000000
  0.200000  0.133333  0.200000      2.000000
  0.266667  0.133333  0.200000      2.000000
  0.333333  0.133333  0.200000      2.000000
  0.400000  0.133333  0.200000      2.000000
  0.466667  0.133333  0.200000      2.000000
 -0.466667  0.133333  0.200000      2.000000
 -0.400000  0.133333  0.200000      2.000000
 -0.333333  0.133333  0.200000      2.000000
 -0.266667  0.133333  0.200000      2.000000
 -0.200000  0.133333  0.200000      2.000000
 -0.133333  0.133333  0.200000      2.000000
 -0.066667  0.133333  0.200000      2.000000
  0.000000  0.200000  0.200000      2.000000
  0.066667  0.200000  0.200000      2.000000
  0.133333  0.200000  0.200000      2.000000
  0.200000  0.200000  0.200000      2.000000
  0.266667  0.200000  0.200000      2.000000
  0.333333  0.200000  0.200000      2.000000
  0.400000  0.200000  0.200000      2.000000
  0.466667  0.200000  0.200000      2.000000
 -0.466667  0.200000  0.200000      2.000000
 -0.400000  0.200000  0.200000      2.000000
 -0.333333  0.200000  0.200000      2.000000
 -0.266667  0.200000  0.200000      2.000000
 -0.200000  0.200000  0.200000      2.000000
 -0.133333  0.200000  0.200000      2.000000
 -0.066667  0.200000  0.200000      2.000000
  0.000000  0.266667  0.200000      2.000000
  0.066667  0.266667  0.200000      2.000000
  0.133333  0.266667  0.200000      2.000000
  0.200000  0.266667  0.200000      2.000000
  0.266667  0.266667  0.200000      2.000000
  0.333333  0.266667  0.200000      2.000000
  0.400000  0.266667  0.200000      2.000000
  0.466667  0.266667  0.200000      2.000000
 -0.466667  0.266667  0.200000      2.000000
 -0.400000  0.266667  0.200000      2.000000
 -0.333333  0.266667  0.200000      2.000000
 -0.266667  0.266667  0.200000      2.000000
 -0.200000  0.266667  0.200000      2.000000
 -0.133333  0.266667  0.200000      2.000000
 -0.066667  0.266667  0.200000      2.000000
 -0.000000  0.333333  0.200000      2.000000
  0.066667  0.333333  0.200000      2.000000
  0.133333  0.333333  0.200000      2.000000
  0.200000  0.333333  0.200000      2.000000
  0.266667  0.333333  0.200000      2.000000
  0.333333  0.333333  0.200000      2.000000
  0.400000  0.333333  0.200000      2.000000
  0.466667  0.333333  0.200000      2.000000
 -0.466667  0.333333  0.200000      2.000000
 -0.400000  0.333333  0.200000      2.000000
 -0.333333  0.333333  0.200000      2.000000
 -0.266667  0.333333  0.200000      2.000000
 -0.200000  0.333333  0.200000      2.000000
 -0.133333  0.333333  0.200000      2.000000
 -0.066667  0.333333  0.200000      2.000000
  0.000000  0.400000  0.200000      2.000000
  0.066667  0.400000  0.200000      2.000000
  0.133333  0.400000  0.200000      2.000000
  0.200000  0.400000  0.200000      2.000000
  0.266667  0.400000  0.200000      2.000000
  0.333333  0.400000  0.200000      2.000000
  0.400000  0.400000  0.200000      2.000000
  0.466667  0.400000  0.200000      2.000000
 -0.466667  0.400000  0.200000      2.000000
 -0.400000  0.400000  0.200000      2.000000
 -0.333333  0.400000  0.200000      2.000000
 -0.266667  0.400000  0.200000      2.000000
 -0.200000  0.400000  0.200000      2.000000
 -0.133333  0.400000  0.200000      2.000000
 -0.066667  0.400000  0.200000      2.000000
  0.000000  0.466667  0.200000      2.000000
  0.066667  0.466667  0.200000      2.000000
  0.133333  0.466667  0.200000      2.000000
  0.200000  0.466667  0.200000      2.000000
  0.266667  0.466667  0.200000      2.000000
  0.333333  0.466667  0.200000      2.000000
  0.400000  0.466667  0.200000      2.000000
  0.466667  0.466667  0.200000      2.000000
 -0.466667  0.466667  0.200000      2.000000
 -0.400000  0.466667  0.200000      2.000000
 -0.333333  0.466667  0.200000      2.000000
 -0.266667  0.466667  0.200000      2.000000
 -0.200000  0.466667  0.200000      2.000000
 -0.133333  0.466667  0.200000      2.000000
 -0.066667  0.466667  0.200000      2.000000
 -0.000000 -0.466667  0.200000      2.000000
  0.066667 -0.466667  0.200000      2.000000
  0.133333 -0.466667  0.200000      2.000000
  0.200000 -0.466667  0.200000      2.000000
  0.266667 -0.466667  0.200000      2.000000
  0.333333 -0.466667  0.200000      2.000000
  0.400000 -0.466667  0.200000      2.000000
  0.466667 -0.466667  0.200000      2.000000
 -0.466667 -0.466667  0.200000      2.000000
 -0.400000 -0.466667  0.200000      2.000000
 -0.333333 -0.466667  0.200000      2.000000
 -0.266667 -0.466667  0.200000      2.000000
 -0.200000 -0.466667  0.200000      2.000000
 -0.133333 -0.466667  0.200000      2.000000
 -0.066667 -0.466667  0.200000      2.000000
  0.000000 -0.400000  0.200000      2.000000
  0.066667 -0.400000  0.200000      2.000000
  0.133333 -0.400000  0.200000      2.000000
  0.200000 -0.400000  0.200000      2.000000
  0.266667 -0.400000  0.200000      2.000000
  0.333333 -0.400000  0.200000      2.000000
  0.400000 -0.400000  0.200000      2.000000
  0.466667 -0.400000  0.200000      2.000000
 -0.466667 -0.400000  0.200000      2.000000
 -0.400000 -0.400000  0.200000      2.000000
 -0.333333 -0.400000  0.200000      2.000000
 -0.266667 -0.400000  0.200000      2.000000
 -0.200000 -0.400000  0.200000      2.000000
 -0.133333 -0.400000  0.200000      2.000000
 -0.066667 -0.400000  0.200000      2.000000
  0.000000 -0.333333  0.200000      2.000000
  0.066667 -0.333333  0.200000      2.000000
  0.133333 -0.333333  0.200000      2.000000
  0.200000 -0.333333  0.200000      2.000000
  0.266667 -0.333333  0.200000      2.000000
  0.333333 -0.333333  0.200000      2.000000
  0.400000 -0.333333  0.200000      2.000000
  0.466667 -0.333333  0.200000      2.000000
 -0.466667 -0.333333  0.200000      2.000000
 -0.400000 -0.333333  0.200000      2.000000
 -0.333333 -0.333333  0.200000      2.000000
 -0.266667 -0.333333  0.200000      2.000000
 -0.200000 -0.333333  0.200000      2.000000
 -0.133333 -0.333333  0.200000      2.000000
 -0.066667 -0.333333  0.200000      2.000000
  0.000000 -0.266667  0.200000      2.000000
  0.066667 -0.266667  0.200000      2.000000
  0.133333 -0.266667  0.200000      2.000000
  0.200000 -0.266667  0.200000      2.000000
  0.266667 -0.266667  0.200000      2.000000
  0.333333 -0.266667  0.200000      2.000000
  0.400000 -0.266667  0.200000      2.000000
  0.466667 -0.266667  0.200000      2.000000
 -0.466667 -0.266667  0.200000      2.000000
 -0.400000 -0.266667  0.200000      2.000000
 -0.333333 -0.266667  0.200000      2.000000
 -0.266667 -0.266667  0.200000      2.000000
 -0.200000 -0.266667  0.200000      2.000000
 -0.133333 -0.266667  0.200000      2.000000
 -0.066667 -0.266667  0.200000      2.000000
 -0.000000 -0.200000  0.200000      2.000000
  0.066667 -0.200000  0.200000      2.000000
  0.133333 -0.200000  0.200000      2.000000
  0.200000 -0.200000  0.200000      2.000000
  0.266667 -0.200000  0.200000      2.000000
  0.333333 -0.200000  0.200000      2.000000
  0.400000 -0.200000  0.200000      2.000000
  0.466667 -0.200000  0.200000      2.000000
 -0.466667 -0.200000  0.200000      2.000000
 -0.400000 -0.200000  0.200000      2.000000
 -0.333333 -0.200000  0.200000      2.000000
 -0.266667 -0.200000  0.200000      2.000000
 -0.200000 -0.200000  0.200000      2.000000
 -0.133333 -0.200000  0.200000      2.000000
 -0.066667 -0.200000  0.200000      2.000000
 -0.000000 -0.133333  0.200000      2.000000
  0.066667 -0.133333  0.200000      2.000000
  0.133333 -0.133333  0.200000      2.000000
  0.200000 -0.133333  0.200000      2.000000
  0.266667 -0.133333  0.200000      2.000000
  0.333333 -0.133333  0.200000      2.000000
  0.400000 -0.133333  0.200000      2.000000
  0.466667 -0.133333  0.200000      2.000000
 -0.466667 -0.133333  0.200000      2.000000
 -0.400000 -0.133333  0.200000      2.000000
 -0.333333 -0.133333  0.200000      2.000000
 -0.266667 -0.133333  0.200000      2.000000
 -0.200000 -0.133333  0.200000      2.000000
 -0.133333 -0.133333  0.200000      2.000000
 -0.066667 -0.133333  0.200000      2.000000
  0.000000 -0.066667  0.200000      2.000000
  0.066667 -0.066667  0.200000      2.000000
  0.133333 -0.066667  0.200000      2.000000
  0.200000 -0.066667  0.200000      2.000000
  0.266667 -0.066667  0.200000      2.000000
  0.333333 -0.066667  0.200000      2.000000
  0.400000 -0.066667  0.200000      2.000000
  0.466667 -0.066667  0.200000      2.000000
 -0.466667 -0.066667  0.200000      2.000000
 -0.400000 -0.066667  0.200000      2.000000
 -0.333333 -0.066667  0.200000      2.000000
 -0.266667 -0.066667  0.200000      2.000000
 -0.200000 -0.066667  0.200000      2.000000
 -0.133333 -0.066667  0.200000      2.000000
 -0.066667 -0.066667  0.200000      2.000000
  0.000000  0.000000  0.266667      2.000000
  0.066667  0.000000  0.266667      2.000000
  0.133333  0.000000  0.266667      2.000000
  0.200000  0.000000  0.266667      2.000000
  0.266667  0.000000  0.266667      2.000000
  0.333333  0.000000  0.266667      2.000000
  0.400000  0.000000  0.266667      2.000000
  0.466667  0.000000  0.266667      2.000000
 -0.466667  0.000000  0.266667      2.000000
 -0.400000  0.000000  0.266667      2.000000
 -0.333333  0.000000  0.266667      2.000000
 -0.266667  0.000000  0.266667      2.000000
 -0.200000  0.000000  0.266667      2.000000
 -0.133333  0.000000  0.266667      2.000000
 -0.066667  0.000000  0.266667      2.000000
  0.000000  0.066667  0.266667      2.000000
  0.066667  0.066667  0.266667      2.000000
  0.133333  0.066667  0.266667      2.000000
  0.200000  0.066667  0.266667      2.000000
  0.266667  0.066667  0.266667      2.000000
  0.333333  0.066667  0.266667      2.000000
  0.400000  0.066667  0.266667      2.000000
  0.466667  0.066667  0.266667      2.000000
 -0.466667  0.066667  0.266667      2.000000
 -0.400000  0.066667  0.266667      2.000000
 -0.333333  0.066667  0.266667      2.000000
 -0.266667  0.066667  0.266667      2.000000
 -0.200000  0.066667  0.266667      2.000000
 -0.133333  0.066667  0.266667      2.000000
 -0.066667  0.066667  0.266667      2.000000
  0.000000  0.133333  0.266667      2.000000
  0.066667  0.133333  0.266667      2.000000
  0.133333  0.133333  0.266667      2.000000
  0.200000  0.133333  0.266667      2.000000
  0.266667  0.133333  0.266667      2.000000
  0.333333  0.133333  0.266667      2.000000
  0.400000  0.133333  0.266667      2.000000
  0.466667  0.133333  0.266667      2.000000
 -0.466667  0.133333  0.266667      2.000000
 -0.400000  0.133333  0.266667      2.000000
 -0.333333  0.133333  0.266667      2.000000
 -0.266667  0.133333  0.266667      2.000000
 -0.200000  0.133333  0.266667      2.000000
 -0.133333  0.133333  0.266667      2.000000
 -0.066667  0.133333  0.266667      2.000000
  0.000000  0.200000  0.266667      2.000000
  0.066667  0.200000  0.266667      2.000000
  0.133333  0.200000  0.266667      2.000000
  0.200000  0.200000  0.266667      2.000000
  0.266667  0.200000  0.266667      2.000000
  0.333333  0.200000  0.266667      2.000000
  0.400000  0.200000  0.266667      2.000000
  0.466667  0.200000  0.266667      2.000000
 -0.466667  0.200000  0.266667      2.000000
 -0.400000  0.200000  0.266667      2.000000
 -0.333333  0.200000  0.266667      2.000000
 -0.266667  0.200000  0.266667      2.000000
 -0.200000  0.200000  0.266667      2.000000
 -0.133333  0.200000  0.266667      2.000000
 -0.066667  0.200000  0.266667      2.000000
  0.000000  0.266667  0.266667      2.000000
  0.066667  0.266667  0.266667      2.000000
  0.133333  0.266667  0.266667      2.000000
  0.200000  0.266667  0.266667      2.000000
  0.266667  0.266667  0.266667      2.000000
  0.333333  0.266667  0.266667      2.000000
  0.400000  0.266667  0.266667      2.000000
  0.466667  0.266667  0.266667      2.000000
 -0.466667  0.266667  0.266667      2.000000
 -0.400000  0.266667  0.266667      2.000000
 -0.333333  0.266667  0.266667      2.000000
 -0.266667  0.266667  0.266667      2.000000
 -0.200000  0.266667  0.266667      2.000000
 -0.133333  0.266667  0.266667      2.000000
 -0.066667  0.266667  0.266667      2.000000
  0.000000  0.333333  0.266667      2.000000
  0.066667  0.333333  0.266667      2.000000
  0.133333  0.333333  0.266667      2.000000
  0.200000  0.333333  0.266667      2.000000
  0.266667  0.333333  0.266667      2.000000
  0.333333  0.333333  0.266667      2.000000
  0.400000  0.333333  0.266667      2.000000
  0.466667  0.333333  0.266667      2.000000
 -0.466667  0.333333  0.266667      2.000000
 -0.400000  0.333333  0.266667      2.000000
 -0.333333  0.333333  0.266667      2.000000
 -0.266667  0.333333  0.266667      2.000000
 -0.200000  0.333333  0.266667      2.000000
 -0.133333  0.333333  0.266667      2.000000
 -0.066667  0.333333  0.266667      2.000000
  0.000000  0.400000  0.266667      2.000000
  0.066667  0.400000  0.266667      2.000000
  0.133333  0.400000  0.266667      2.000000
  0.200000  0.400000  0.266667      2.000000
  0.266667  0.400000  0.266667      2.000000
  0.333333  0.400000  0.266667      2.000000
  0.400000  0.400000  0.266667      2.000000
  0.466667  0.400000  0.266667      2.000000
 -0.466667  0.400000  0.266667      2.000000
 -0.400000  0.400000  0.266667      2.000000
 -0.333333  0.400000  0.266667      2.000000
 -0.266667  0.400000  0.266667      2.000000
 -0.200000  0.400000  0.266667      2.000000
 -0.133333  0.400000  0.266667      2.000000
 -0.066667  0.400000  0.266667      2.000000
  0.000000  0.466667  0.266667      2.000000
  0.066667  0.466667  0.266667      2.000000
  0.133333  0.466667  0.266667      2.000000
  0.200000  0.466667  0.266667      2.000000
  0.266667  0.466667  0.266667      2.000000
  0.333333  0.466667  0.266667      2.000000
  0.400000  0.466667  0.266667      2.000000
  0.466667  0.466667  0.266667      2.000000
 -0.466667  0.466667  0.266667      2.000000
 -0.400000  0.466667  0.266667      2.000000
 -0.333333  0.466667  0.266667      2.000000
 -0.266667  0.466667  0.266667      2.000000
 -0.200000  0.466667  0.266667      2.000000
 -0.133333  0.466667  0.266667      2.000000
 -0.066667  0.466667  0.266667      2.000000
  0.000000 -0.466667  0.266667      2.000000
  0.066667 -0.466667  0.266667      2.000000
  0.133333 -0.466667  0.266667      2.000000
  0.200000 -0.466667  0.266667      2.000000
  0.266667 -0.466667  0.266667      2.000000
  0.333333 -0.466667  0.266667      2.000000
  0.400000 -0.466667  0.266667      2.000000
  0.466667 -0.466667  0.266667      2.000000
 -0.466667 -0.466667  0.266667      2.000000
 -0.400000 -0.466667  0.266667      2.000000
 -0.333333 -0.466667  0.266667      2.000000
 -0.266667 -0.466667  0.266667      2.000000
 -0.200000 -0.466667  0.266667      2.000000
 -0.133333 -0.466667  0.266667      2.000000
 -0.066667 -0.466667  0.266667      2.000000
  0.000000 -0.400000  0.266667      2.000000
  0.066667 -0.400000  0.266667      2.000000
  0.133333 -0.400000  0.266667      2.000000
  0.200000 -0.400000  0.266667      2.000000
  0.266667 -0.400000  0.266667      2.000000
  0.333333 -0.400000  0.266667      2.000000
  0.400000 -0.400000  0.266667      2.000000
  0.466667 -0.400000  0.266667      2.000000
 -0.466667 -0.400000  0.266667      2.000000
 -0.400000 -0.400000  0.266667      2.000000
 -0.333333 -0.400000  0.266667      2.000000
 -0.266667 -0.400000  0.266667      2.000000
 -0.200000 -0.400000  0.266667      2.000000
 -0.133333 -0.400000  0.266667      2.000000
 -0.066667 -0.400000  0.266667      2.000000
  0.000000 -0.333333  0.266667      2.000000
  0.066667 -0.333333  0.266667      2.000000
  0.133333 -0.333333  0.266667      2.000000
  0.200000 -0.333333  0.266667      2.000000
  0.266667 -0.333333  0.266667      2.000000
  0.333333 -0.333333  0.266667      2.000000
  0.400000 -0.333333  0.266667      2.000000
  0.466667 -0.333333  0.266667      2.000000
 -0.466667 -0.333333  0.266667      2.000000
 -0.400000 -0.333333  0.266667      2.000000
 -0.333333 -0.333333  0.266667      2.000000
 -0.266667 -0.333333  0.266667      2.000000
 -0.200000 -0.333333  0.266667      2.000000
 -0.133333 -0.333333  0.266667      2.000000
 -0.066667 -0.333333  0.266667      2.000000
  0.000000 -0.266667  0.266667      2.000000
  0.066667 -0.266667  0.266667      2.000000
  0.133333 -0.266667  0.266667      2.000000
  0.200000 -0.266667  0.266667      2.000000
  0.266667 -0.266667  0.266667      2.000000
  0.333333 -0.266667  0.266667      2.000000
  0.400000 -0.266667  0.266667      2.000000
  0.466667 -0.266667  0.266667      2.000000
 -0.466667 -0.266667  0.266667      2.000000
 -0.400000 -0.266667  0.266667      2.000000
 -0.333333 -0.266667  0.266667      2.000000
 -0.266667 -0.266667  0.266667      2.000000
 -0.200000 -0.266667  0.266667      2.000000
 -0.133333 -0.266667  0.266667      2.000000
 -0.066667 -0.266667  0.266667      2.000000
  0.000000 -0.200000  0.266667      2.000000
  0.066667 -0.200000  0.266667      2.000000
  0.133333 -0.200000  0.266667      2.000000
  0.200000 -0.200000  0.266667      2.000000
  0.266667 -0.200000  0.266667      2.000000
  0.333333 -0.200000  0.266667      2.000000
  0.400000 -0.200000  0.266667      2.000000
  0.466667 -0.200000  0.266667      2.000000
 -0.466667 -0.200000  0.266667      2.000000
 -0.400000 -0.200000  0.266667      2.000000
 -0.333333 -0.200000  0.266667      2.000000
 -0.266667 -0.200000  0.266667      2.000000
 -0.200000 -0.200000  0.266667      2.000000
 -0.133333 -0.200000  0.266667      2.000000
 -0.066667 -0.200000  0.266667      2.000000
  0.000000 -0.133333  0.266667      2.000000
  0.066667 -0.133333  0.266667      2.000000
  0.133333 -0.133333  0.266667      2.000000
  0.200000 -0.133333  0.266667      2.000000
  0.266667 -0.133333  0.266667      2.000000
  0.333333 -0.133333  0.266667      2.000000
  0.400000 -0.133333  0.266667      2.000000
  0.466667 -0.133333  0.266667      2.000000
 -0.466667 -0.133333  0.266667      2.000000
 -0.400000 -0.133333  0.266667      2.000000
 -0.333333 -0.133333  0.266667      2.000000
 -0.266667 -0.133333  0.266667      2.000000
 -0.200000 -0.133333  0.266667      2.000000
 -0.133333 -0.133333  0.266667      2.000000
 -0.066667 -0.133333  0.266667      2.000000
  0.000000 -0.066667  0.266667      2.000000
  0.066667 -0.066667  0.266667      2.000000
  0.133333 -0.066667  0.266667      2.000000
  0.200000 -0.066667  0.266667      2.000000
  0.266667 -0.066667  0.266667      2.000000
  0.333333 -0.066667  0.266667      2.000000
  0.400000 -0.066667  0.266667      2.000000
  0.466667 -0.066667  0.266667      2.000000
 -0.466667 -0.066667  0.266667      2.000000
 -0.400000 -0.066667  0.266667      2.000000
 -0.333333 -0.066667  0.266667      2.000000
 -0.266667 -0.066667  0.266667      2.000000
 -0.200000 -0.066667  0.266667      2.000000
 -0.133333 -0.066667  0.266667      2.000000
 -0.066667 -0.066667  0.266667      2.000000
  0.000000  0.000000  0.333333      2.000000
  0.066667  0.000000  0.333333      2.000000
  0.133333  0.000000  0.333333      2.000000
  0.200000  0.000000  0.333333      2.000000
  0.266667  0.000000  0.333333      2.000000
  0.333333  0.000000  0.333333      2.000000
  0.400000  0.000000  0.333333      2.000000
  0.466667  0.000000  0.333333      2.000000
 -0.466667  0.000000  0.333333      2.000000
 -0.400000  0.000000  0.333333      2.000000
 -0.333333  0.000000  0.333333      2.000000
 -0.266667  0.000000  0.333333      2.000000
 -0.200000  0.000000  0.333333      2.000000
 -0.133333  0.000000  0.333333      2.000000
 -0.066667  0.000000  0.333333      2.000000
  0.000000  0.066667  0.333333      2.000000
  0.066667  0.066667  0.333333      2.000000
  0.133333  0.066667  0.333333      2.000000
  0.200000  0.066667  0.333333      2.000000
  0.266667  0.066667  0.333333      2.000000
  0.333333  0.066667  0.333333      2.000000
  0.400000  0.066667  0.333333      2.000000
  0.466667  0.066667  0.333333      2.000000
 -0.466667  0.066667  0.333333      2.000000
 -0.400000  0.066667  0.333333      2.000000
 -0.333333  0.066667  0.333333      2.000000
 -0.266667  0.066667  0.333333      2.000000
 -0.200000  0.066667  0.333333      2.000000
 -0.133333  0.066667  0.333333      2.000000
 -0.066667  0.066667  0.333333      2.000000
 -0.000000  0.133333  0.333333      2.000000
  0.066667  0.133333  0.333333      2.000000
  0.133333  0.133333  0.333333      2.000000
  0.200000  0.133333  0.333333      2.000000
  0.266667  0.133333  0.333333      2.000000
  0.333333  0.133333  0.333333      2.000000
  0.400000  0.133333  0.333333      2.000000
  0.466667  0.133333  0.333333      2.000000
 -0.466667  0.133333  0.333333      2.000000
 -0.400000  0.133333  0.333333      2.000000
 -0.333333  0.133333  0.333333      2.000000
 -0.266667  0.133333  0.333333      2.000000
 -0.200000  0.133333  0.333333      2.000000
 -0.133333  0.133333  0.333333      2.000000
 -0.066667  0.133333  0.333333      2.000000
  0.000000  0.200000  0.333333      2.000000
  0.066667  0.200000  0.333333      2.000000
  0.133333  0.200000  0.333333      2.000000
  0.200000  0.200000  0.333333      2.000000
  0.266667  0.200000  0.333333      2.000000
  0.333333  0.200000  0.333333      2.000000
  0.400000  0.200000  0.333333      2.000000
  0.466667  0.200000  0.333333      2.000000
 -0.466667  0.200000  0.333333      2.000000
 -0.400000  0.200000  0.333333      2.000000
 -0.333333  0.200000  0.333333      2.000000
 -0.266667  0.200000  0.333333      2.000000
 -0.200000  0.200000  0.333333      2.000000
 -0.133333  0.200000  0.333333      2.000000
 -0.066667  0.200000  0.333333      2.000000
 -0.000000  0.266667  0.333333      2.000000
  0.066667  0.266667  0.333333      2.000000
  0.133333  0.266667  0.333333      2.000000
  0.200000  0.266667  0.333333      2.000000
  0.266667  0.266667  0.333333      2.000000
  0.333333  0.266667  0.333333      2.000000
  0.400000  0.266667  0.333333      2.000000
  0.466667  0.266667  0.333333      2.000000
 -0.466667  0.266667  0.333333      2.000000
 -0.400000  0.266667  0.333333      2.000000
 -0.333333  0.266667  0.333333      2.000000
 -0.266667  0.266667  0.333333      2.000000
 -0.200000  0.266667  0.333333      2.000000
 -0.133333  0.266667  0.333333      2.000000
 -0.066667  0.266667  0.333333      2.000000
 -0.000000  0.333333  0.333333      2.000000
  0.066667  0.333333  0.333333      2.000000
  0.133333  0.333333  0.333333      2.000000
  0.200000  0.333333  0.333333      2.000000
  0.266667  0.333333  0.333333      2.000000
  0.333333  0.333333  0.333333      2.000000
  0.400000  0.333333  0.333333      2.000000
  0.466667  0.333333  0.333333      2.000000
 -0.466667  0.333333  0.333333      2.000000
 -0.400000  0.333333  0.333333      2.000000
 -0.333333  0.333333  0.333333      2.000000
 -0.266667  0.333333  0.333333      2.000000
 -0.200000  0.333333  0.333333      2.000000
 -0.133333  0.333333  0.333333      2.000000
 -0.066667  0.333333  0.333333      2.000000
  0.000000  0.400000  0.333333      2.000000
  0.066667  0.400000  0.333333      2.000000
  0.133333  0.400000  0.333333      2.000000
  0.200000  0.400000  0.333333      2.000000
  0.266667  0.400000  0.333333      2.000000
  0.333333  0.400000  0.333333      2.000000
  0.400000  0.400000  0.333333      2.000000
  0.466667  0.400000  0.333333      2.000000
 -0.466667  0.400000  0.333333      2.000000
 -0.400000  0.400000  0.333333      2.000000
 -0.333333  0.400000  0.333333      2.000000
 -0.266667  0.400000  0.333333      2.000000
 -0.200000  0.400000  0.333333      2.000000
 -0.133333  0.400000  0.333333      2.000000
 -0.066667  0.400000  0.333333      2.000000
  0.000000  0.466667  0.333333      2.000000
  0.066667  0.466667  0.333333      2.000000
  0.133333  0.466667  0.333333      2.000000
  0.200000  0.466667  0.333333      2.000000
  0.266667  0.466667  0.333333      2.000000
  0.333333  0.466667  0.333333      2.000000
  0.400000  0.466667  0.333333      2.000000
  0.466667  0.466667  0.333333      2.000000
 -0.466667  0.466667  0.333333      2.000000
 -0.400000  0.466667  0.333333      2.000000
 -0.333333  0.466667  0.333333      2.000000
 -0.266667  0.466667  0.333333      2.000000
 -0.200000  0.466667  0.333333      2.000000
 -0.133333  0.466667  0.333333      2.000000
 -0.066667  0.466667  0.333333      2.000000
  0.000000 -0.466667  0.333333      2.000000
  0.066667 -0.466667  0.333333      2.000000
  0.133333 -0.466667  0.333333      2.000000
  0.200000 -0.466667  0.333333      2.000000
  0.266667 -0.466667  0.333333      2.000000
  0.333333 -0.466667  0.333333      2.000000
  0.400000 -0.466667  0.333333      2.000000
  0.466667 -0.466667  0.333333      2.000000
 -0.466667 -0.466667  0.333333      2.000000
 -0.400000 -0.466667  0.333333      2.000000
 -0.333333 -0.466667  0.333333      2.000000
 -0.266667 -0.466667  0.333333      2.000000
 -0.200000 -0.466667  0.333333      2.000000
 -0.133333 -0.466667  0.333333      2.000000
 -0.066667 -0.466667  0.333333      2.000000
 -0.000000 -0.400000  0.333333      2.000000
  0.066667 -0.400000  0.333333      2.000000
  0.133333 -0.400000  0.333333      2.000000
  0.200000 -0.400000  0.333333      2.000000
  0.266667 -0.400000  0.333333      2.000000
  0.333333 -0.400000  0.333333      2.000000
  0.400000 -0.400000  0.333333      2.000000
  0.466667 -0.400000  0.333333      2.000000
 -0.466667 -0.400000  0.333333      2.000000
 -0.400000 -0.400000  0.333333      2.000000
 -0.333333 -0.400000  0.333333      2.000000
 -0.266667 -0.400000  0.333333      2.000000
 -0.200000 -0.400000  0.333333      2.000000
 -0.133333 -0.400000  0.333333      2.000000
 -0.066667 -0.400000  0.333333      2.000000
  0.000000 -0.333333  0.333333      2.000000
  0.066667 -0.333333  0.333333      2.000000
  0.133333 -0.333333  0.333333      2.000000
  0.200000 -0.333333  0.333333      2.000000
  0.266667 -0.333333  0.333333      2.000000
  0.333333 -0.333333  0.333333      2.000000
  0.400000 -0.333333  0.333333      2.000000
  0.466667 -0.333333  0.333333      2.000000
 -0.466667 -0.333333  0.333333      2.000000
 -0.400000 -0.333333  0.333333      2.000000
 -0.333333 -0.333333  0.333333      2.000000
 -0.266667 -0.333333  0.333333      2.000000
 -0.200000 -0.333333  0.333333      2.000000
 -0.133333 -0.333333  0.333333      2.000000
 -0.066667 -0.333333  0.333333      2.000000
 -0.000000 -0.266667  0.333333      2.000000
  0.066667 -0.266667  0.333333      2.000000
  0.133333 -0.266667  0.333333      2.000000
  0.200000 -0.266667  0.333333      2.000000
  0.266667 -0.266667  0.333333      2.000000
  0.333333 -0.266667  0.333333      2.000000
  0.400000 -0.266667  0.333333      2.000000
  0.466667 -0.266667  0.333333      2.000000
 -0.466667 -0.266667  0.333333      2.000000
 -0.400000 -0.266667  0.333333      2.000000
 -0.333333 -0.266667  0.333333      2.000000
 -0.266667 -0.266667  0.333333      2.000000
 -0.200000 -0.266667  0.333333      2.000000
 -0.133333 -0.266667  0.333333      2.000000
 -0.066667 -0.266667  0.333333      2.000000
 -0.000000 -0.200000  0.333333      2.000000
  0.066667 -0.200000  0.333333      2.000000
  0.133333 -0.200000  0.333333      2.000000
  0.200000 -0.200000  0.333333      2.000000
  0.266667 -0.200000  0.333333      2.000000
  0.333333 -0.200000  0.333333      2.000000
  0.400000 -0.200000  0.333333      2.000000
  0.466667 -0.200000  0.333333      2.000000
 -0.466667 -0.200000  0.333333      2.000000
 -0.400000 -0.200000  0.333333      2.000000
 -0.333333 -0.200000  0.333333      2.000000
 -0.266667 -0.200000  0.333333      2.000000
 -0.200000 -0.200000  0.333333      2.000000
 -0.133333 -0.200000  0.333333      2.000000
 -0.066667 -0.200000  0.333333      2.000000
  0.000000 -0.133333  0.333333      2.000000
  0.066667 -0.133333  0.333333      2.000000
  0.133333 -0.133333  0.333333      2.000000
  0.200000 -0.133333  0.333333      2.000000
  0.266667 -0.133333  0.333333      2.000000
  0.333333 -0.133333  0.333333      2.000000
  0.400000 -0.133333  0.333333      2.000000
  0.466667 -0.133333  0.333333      2.000000
 -0.466667 -0.133333  0.333333      2.000000
 -0.400000 -0.133333  0.333333      2.000000
 -0.333333 -0.133333  0.333333      2.000000
 -0.266667 -0.133333  0.333333      2.000000
 -0.200000 -0.133333  0.333333      2.000000
 -0.133333 -0.133333  0.333333      2.000000
 -0.066667 -0.133333  0.333333      2.000000
 -0.000000 -0.066667  0.333333      2.000000
  0.066667 -0.066667  0.333333      2.000000
  0.133333 -0.066667  0.333333      2.000000
  0.200000 -0.066667  0.333333      2.000000
  0.266667 -0.066667  0.333333      2.000000
  0.333333 -0.066667  0.333333      2.000000
  0.400000 -0.066667  0.333333      2.000000
  0.466667 -0.066667  0.333333      2.000000
 -0.466667 -0.066667  0.333333      2.000000
 -0.400000 -0.066667  0.333333      2.000000
 -0.333333 -0.066667  0.333333      2.000000
 -0.266667 -0.066667  0.333333      2.000000
 -0.200000 -0.066667  0.333333      2.000000
 -0.133333 -0.066667  0.333333      2.000000
 -0.066667 -0.066667  0.333333      2.000000
  0.000000  0.000000  0.400000      2.000000
  0.066667  0.000000  0.400000      2.000000
  0.133333  0.000000  0.400000      2.000000
  0.200000  0.000000  0.400000      2.000000
  0.266667  0.000000  0.400000      2.000000
  0.333333  0.000000  0.400000      2.000000
  0.400000  0.000000  0.400000      2.000000
  0.466667  0.000000  0.400000      2.000000
 -0.466667  0.000000  0.400000      2.000000
 -0.400000  0.000000  0.400000      2.000000
 -0.333333  0.000000  0.400000      2.000000
 -0.266667  0.000000  0.400000      2.000000
 -0.200000  0.000000  0.400000      2.000000
 -0.133333  0.000000  0.400000      2.000000
 -0.066667  0.000000  0.400000      2.000000
  0.000000  0.066667  0.400000      2.000000
  0.066667  0.066667  0.400000      2.000000
  0.133333  0.066667  0.400000      2.000000
  0.200000  0.066667  0.400000      2.000000
  0.266667  0.066667  0.400000      2.000000
  0.333333  0.066667  0.400000      2.000000
  0.400000  0.066667  0.400000      2.000000
  0.466667  0.066667  0.400000      2.000000
 -0.466667  0.066667  0.400000      2.000000
 -0.400000  0.066667  0.400000      2.000000
 -0.333333  0.066667  0.400000      2.000000
 -0.266667  0.066667  0.400000      2.000000
 -0.200000  0.066667  0.400000      2.000000
 -0.133333  0.066667  0.400000      2.000000
 -0.066667  0.066667  0.400000      2.000000
  0.000000  0.133333  0.400000      2.000000
  0.066667  0.133333  0.400000      2.000000
  0.133333  0.133333  0.400000      2.000000
  0.200000  0.133333  0.400000      2.000000
  0.266667  0.133333  0.400000      2.000000
  0.333333  0.133333  0.400000      2.000000
  0.400000  0.133333  0.400000      2.000000
  0.466667  0.133333  0.400000      2.000000
 -0.466667  0.133333  0.400000      2.000000
 -0.400000  0.133333  0.400000      2.000000
 -0.333333  0.133333  0.400000      2.000000
 -0.266667  0.133333  0.400000      2.000000
 -0.200000  0.133333  0.400000      2.000000
 -0.133333  0.133333  0.400000      2.000000
 -0.066667  0.133333  0.400000      2.000000
  0.000000  0.200000  0.400000      2.000000
  0.066667  0.200000  0.400000      2.000000
  0.133333  0.200000  0.400000      2.000000
  0.200000  0.200000  0.400000      2.000000
  0.266667  0.200000  0.400000      2.000000
  0.333333  0.200000  0.400000      2.000000
  0.400000  0.200000  0.400000      2.000000
  0.466667  0.200000  0.400000      2.000000
 -0.466667  0.200000  0.400000      2.000000
 -0.400000  0.200000  0.400000      2.000000
 -0.333333  0.200000  0.400000      2.000000
 -0.266667  0.200000  0.400000      2.000000
 -0.200000  0.200000  0.400000      2.000000
 -0.133333  0.200000  0.400000      2.000000
 -0.066667  0.200000  0.400000      2.000000
 -0.000000  0.266667  0.400000      2.000000
  0.066667  0.266667  0.400000      2.000000
  0.133333  0.266667  0.400000      2.000000
  0.200000  0.266667  0.400000      2.000000
  0.266667  0.266667  0.400000      2.000000
  0.333333  0.266667  0.400000      2.000000
  0.400000  0.266667  0.400000      2.000000
  0.466667  0.266667  0.400000      2.000000
 -0.466667  0.266667  0.400000      2.000000
 -0.400000  0.266667  0.400000      2.000000
 -0.333333  0.266667  0.400000      2.000000
 -0.266667  0.266667  0.400000      2.000000
 -0.200000  0.266667  0.400000      2.000000
 -0.133333  0.266667  0.400000      2.000000
 -0.066667  0.266667  0.400000      2.000000
 -0.000000  0.333333  0.400000      2.000000
  0.066667  0.333333  0.400000      2.000000
  0.133333  0.333333  0.400000      2.000000
  0.200000  0.333333  0.400000      2.000000
  0.266667  0.333333  0.400000      2.000000
  0.333333  0.333333  0.400000      2.000000
  0.400000  0.333333  0.400000      2.000000
  0.466667  0.333333  0.400000      2.000000
 -0.466667  0.333333  0.400000      2.000000
 -0.400000  0.333333  0.400000      2.000000
 -0.333333  0.333333  0.400000      2.000000
 -0.266667  0.333333  0.400000      2.000000
 -0.200000  0.333333  0.400000      2.000000
 -0.133333  0.333333  0.400000      2.000000
 -0.066667  0.333333  0.400000      2.000000
  0.000000  0.400000  0.400000      2.000000
  0.066667  0.400000  0.400000      2.000000
  0.133333  0.400000  0.400000      2.000000
  0.200000  0.400000  0.400000      2.000000
  0.266667  0.400000  0.400000      2.000000
  0.333333  0.400000  0.400000      2.000000
  0.400000  0.400000  0.400000      2.000000
  0.466667  0.400000  0.400000      2.000000
 -0.466667  0.400000  0.400000      2.000000
 -0.400000  0.400000  0.400000      2.000000
 -0.333333  0.400000  0.400000      2.000000
 -0.266667  0.400000  0.400000      2.000000
 -0.200000  0.400000  0.400000      2.000000
 -0.133333  0.400000  0.400000      2.000000
 -0.066667  0.400000  0.400000      2.000000
 -0.000000  0.466667  0.400000      2.000000
  0.066667  0.466667  0.400000      2.000000
  0.133333  0.466667  0.400000      2.000000
  0.200000  0.466667  0.400000      2.000000
  0.266667  0.466667  0.400000      2.000000
  0.333333  0.466667  0.400000      2.000000
  0.400000  0.466667  0.400000      2.000000
  0.466667  0.466667  0.400000      2.000000
 -0.466667  0.466667  0.400000      2.000000
 -0.400000  0.466667  0.400000      2.000000
 -0.333333  0.466667  0.400000      2.000000
 -0.266667  0.466667  0.400000      2.000000
 -0.200000  0.466667  0.400000      2.000000
 -0.133333  0.466667  0.400000      2.000000
 -0.066667  0.466667  0.400000      2.000000
  0.000000 -0.466667  0.400000      2.000000
  0.066667 -0.466667  0.400000      2.000000
  0.133333 -0.466667  0.400000      2.000000
  0.200000 -0.466667  0.400000      2.000000
  0.266667 -0.466667  0.400000      2.000000
  0.333333 -0.466667  0.400000      2.000000
  0.400000 -0.466667  0.400000      2.000000
  0.466667 -0.466667  0.400000      2.000000
 -0.466667 -0.466667  0.400000      2.000000
 -0.400000 -0.466667  0.400000      2.000000
 -0.333333 -0.466667  0.400000      2.000000
 -0.266667 -0.466667  0.400000      2.000000
 -0.200000 -0.466667  0.400000      2.000000
 -0.133333 -0.466667  0.400000      2.000000
 -0.066667 -0.466667  0.400000      2.000000
 -0.000000 -0.400000  0.400000      2.000000
  0.066667 -0.400000  0.400000      2.000000
  0.133333 -0.400000  0.400000      2.000000
  0.200000 -0.400000  0.400000      2.000000
  0.266667 -0.400000  0.400000      2.000000
  0.333333 -0.400000  0.400000      2.000000
  0.400000 -0.400000  0.400000      2.000000
  0.466667 -0.400000  0.400000      2.000000
 -0.466667 -0.400000  0.400000      2.000000
 -0.400000 -0.400000  0.400000      2.000000
 -0.333333 -0.400000  0.400000      2.000000
 -0.266667 -0.400000  0.400000      2.000000
 -0.200000 -0.400000  0.400000      2.000000
 -0.133333 -0.400000  0.400000      2.000000
 -0.066667 -0.400000  0.400000      2.000000
 -0.000000 -0.333333  0.400000      2.000000
  0.066667 -0.333333  0.400000      2.000000
  0.133333 -0.333333  0.400000      2.000000
  0.200000 -0.333333  0.400000      2.000000
  0.266667 -0.333333  0.400000      2.000000
  0.333333 -0.333333  0.400000      2.000000
  0.400000 -0.333333  0.400000      2.000000
  0.466667 -0.333333  0.400000      2.000000
 -0.466667 -0.333333  0.400000      2.000000
 -0.400000 -0.333333  0.400000      2.000000
 -0.333333 -0.333333  0.400000      2.000000
 -0.266667 -0.333333  0.400000      2.000000
 -0.200000 -0.333333  0.400000      2.000000
 -0.133333 -0.333333  0.400000      2.000000
 -0.066667 -0.333333  0.400000      2.000000
  0.000000 -0.266667  0.400000      2.000000
  0.066667 -0.266667  0.400000      2.000000
  0.133333 -0.266667  0.400000      2.000000
  0.200000 -0.266667  0.400000      2.000000
  0.266667 -0.266667  0.400000      2.000000
  0.333333 -0.266667  0.400000      2.000000
  0.400000 -0.266667  0.400000      2.000000
  0.466667 -0.266667  0.400000      2.000000
 -0.466667 -0.266667  0.400000      2.000000
 -0.400000 -0.266667  0.400000      2.000000
 -0.333333 -0.266667  0.400000      2.000000
 -0.266667 -0.266667  0.400000      2.000000
 -0.200000 -0.266667  0.400000      2.000000
 -0.133333 -0.266667  0.400000      2.000000
 -0.066667 -0.266667  0.400000      2.000000
 -0.000000 -0.200000  0.400000      2.000000
  0.066667 -0.200000  0.400000      2.000000
  0.133333 -0.200000  0.400000      2.000000
  0.200000 -0.200000  0.400000      2.000000
  0.266667 -0.200000  0.400000      2.000000
  0.333333 -0.200000  0.400000      2.000000
  0.400000 -0.200000  0.400000      2.000000
  0.466667 -0.200000  0.400000      2.000000
 -0.466667 -0.200000  0.400000      2.000000
 -0.400000 -0.200000  0.400000      2.000000
 -0.333333 -0.200000  0.400000      2.000000
 -0.266667 -0.200000  0.400000      2.000000
 -0.200000 -0.200000  0.400000      2.000000
 -0.133333 -0.200000  0.400000      2.000000
 -0.066667 -0.200000  0.400000      2.000000
 -0.000000 -0.133333  0.400000      2.000000
  0.066667 -0.133333  0.400000      2.000000
  0.133333 -0.133333  0.400000      2.000000
  0.200000 -0.133333  0.400000      2.000000
  0.266667 -0.133333  0.400000      2.000000
  0.333333 -0.133333  0.400000      2.000000
  0.400000 -0.133333  0.400000      2.000000
  0.466667 -0.133333  0.400000      2.000000
 -0.466667 -0.133333  0.400000      2.000000
 -0.400000 -0.133333  0.400000      2.000000
 -0.333333 -0.133333  0.400000      2.000000
 -0.266667 -0.133333  0.400000      2.000000
 -0.200000 -0.133333  0.400000      2.000000
 -0.133333 -0.133333  0.400000      2.000000
 -0.066667 -0.133333  0.400000      2.000000
 -0.000000 -0.066667  0.400000      2.000000
  0.066667 -0.066667  0.400000      2.000000
  0.133333 -0.066667  0.400000      2.000000
  0.200000 -0.066667  0.400000      2.000000
  0.266667 -0.066667  0.400000      2.000000
  0.333333 -0.066667  0.400000      2.000000
  0.400000 -0.066667  0.400000      2.000000
  0.466667 -0.066667  0.400000      2.000000
 -0.466667 -0.066667  0.400000      2.000000
 -0.400000 -0.066667  0.400000      2.000000
 -0.333333 -0.066667  0.400000      2.000000
 -0.266667 -0.066667  0.400000      2.000000
 -0.200000 -0.066667  0.400000      2.000000
 -0.133333 -0.066667  0.400000      2.000000
 -0.066667 -0.066667  0.400000      2.000000
  0.000000  0.000000  0.466667      2.000000
  0.066667  0.000000  0.466667      2.000000
  0.133333  0.000000  0.466667      2.000000
  0.200000  0.000000  0.466667      2.000000
  0.266667  0.000000  0.466667      2.000000
  0.333333  0.000000  0.466667      2.000000
  0.400000  0.000000  0.466667      2.000000
  0.466667  0.000000  0.466667      2.000000
 -0.466667  0.000000  0.466667      2.000000
 -0.400000  0.000000  0.466667      2.000000
 -0.333333  0.000000  0.466667      2.000000
 -0.266667  0.000000  0.466667      2.000000
 -0.200000  0.000000  0.466667      2.000000
 -0.133333  0.000000  0.466667      2.000000
 -0.066667  0.000000  0.466667      2.000000
  0.000000  0.066667  0.466667      2.000000
  0.066667  0.066667  0.466667      2.000000
  0.133333  0.066667  0.466667      2.000000
  0.200000  0.066667  0.466667      2.000000
  0.266667  0.066667  0.466667      2.000000
  0.333333  0.066667  0.466667      2.000000
  0.400000  0.066667  0.466667      2.000000
  0.466667  0.066667  0.466667      2.000000
 -0.466667  0.066667  0.466667      2.000000
 -0.400000  0.066667  0.466667      2.000000
 -0.333333  0.066667  0.466667      2.000000
 -0.266667  0.066667  0.466667      2.000000
 -0.200000  0.066667  0.466667      2.000000
 -0.133333  0.066667  0.466667      2.000000
 -0.066667  0.066667  0.466667      2.000000
  0.000000  0.133333  0.466667      2.000000
  0.066667  0.133333  0.466667      2.000000
  0.133333  0.133333  0.466667      2.000000
  0.200000  0.133333  0.466667      2.000000
  0.266667  0.133333  0.466667      2.000000
  0.333333  0.133333  0.466667      2.000000
  0.400000  0.133333  0.466667      2.000000
  0.466667  0.133333  0.466667      2.000000
 -0.466667  0.133333  0.466667      2.000000
 -0.400000  0.133333  0.466667      2.000000
 -0.333333  0.133333  0.466667      2.000000
 -0.266667  0.133333  0.466667      2.000000
 -0.200000  0.133333  0.466667      2.000000
 -0.133333  0.133333  0.466667      2.000000
 -0.066667  0.133333  0.466667      2.000000
  0.000000  0.200000  0.466667      2.000000
  0.066667  0.200000  0.466667      2.000000
  0.133333  0.200000  0.466667      2.000000
  0.200000  0.200000  0.466667      2.000000
  0.266667  0.200000  0.466667      2.000000
  0.333333  0.200000  0.466667      2.000000
  0.400000  0.200000  0.466667      2.000000
  0.466667  0.200000  0.466667      2.000000
 -0.466667  0.200000  0.466667      2.000000
 -0.400000  0.200000  0.466667      2.000000
 -0.333333  0.200000  0.466667      2.000000
 -0.266667  0.200000  0.466667      2.000000
 -0.200000  0.200000  0.466667      2.000000
 -0.133333  0.200000  0.466667      2.000000
 -0.066667  0.200000  0.466667      2.000000
  0.000000  0.266667  0.466667      2.000000
  0.066667  0.266667  0.466667      2.000000
  0.133333  0.266667  0.466667      2.000000
  0.200000  0.266667  0.466667      2.000000
  0.266667  0.266667  0.466667      2.000000
  0.333333  0.266667  0.466667      2.000000
  0.400000  0.266667  0.466667      2.000000
  0.466667  0.266667  0.466667      2.000000
 -0.466667  0.266667  0.466667      2.000000
 -0.400000  0.266667  0.466667      2.000000
 -0.333333  0.266667  0.466667      2.000000
 -0.266667  0.266667  0.466667      2.000000
 -0.200000  0.266667  0.466667      2.000000
 -0.133333  0.266667  0.466667      2.000000
 -0.066667  0.266667  0.466667      2.000000
  0.000000  0.333333  0.466667      2.000000
  0.066667  0.333333  0.466667      2.000000
  0.133333  0.333333  0.466667      2.000000
  0.200000  0.333333  0.466667      2.000000
  0.266667  0.333333  0.466667      2.000000
  0.333333  0.333333  0.466667      2.000000
  0.400000  0.333333  0.466667      2.000000
  0.466667  0.333333  0.466667      2.000000
 -0.466667  0.333333  0.466667      2.000000
 -0.400000  0.333333  0.466667      2.000000
 -0.333333  0.333333  0.466667      2.000000
 -0.266667  0.333333  0.466667      2.000000
 -0.200000  0.333333  0.466667      2.000000
 -0.133333  0.333333  0.466667      2.000000
 -0.066667  0.333333  0.466667      2.000000
  0.000000  0.400000  0.466667      2.000000
  0.066667  0.400000  0.466667      2.000000
  0.133333  0.400000  0.466667      2.000000
  0.200000  0.400000  0.466667      2.000000
  0.266667  0.400000  0.466667      2.000000
  0.333333  0.400000  0.466667      2.000000
  0.400000  0.400000  0.466667      2.000000
  0.466667  0.400000  0.466667      2.000000
 -0.466667  0.400000  0.466667      2.000000
 -0.400000  0.400000  0.466667      2.000000
 -0.333333  0.400000  0.466667      2.000000
 -0.266667  0.400000  0.466667      2.000000
 -0.200000  0.400000  0.466667      2.000000
 -0.133333  0.400000  0.466667      2.000000
 -0.066667  0.400000  0.466667      2.000000
 -0.000000  0.466667  0.466667      2.000000
  0.066667  0.466667  0.466667      2.000000
  0.133333  0.466667  0.466667      2.000000
  0.200000  0.466667  0.466667      2.000000
  0.266667  0.466667  0.466667      2.000000
  0.333333  0.466667  0.466667      2.000000
  0.400000  0.466667  0.466667      2.000000
  0.466667  0.466667  0.466667      2.000000
 -0.466667  0.466667  0.466667      2.000000
 -0.400000  0.466667  0.466667      2.000000
 -0.333333  0.466667  0.466667      2.000000
 -0.266667  0.466667  0.466667      2.000000
 -0.200000  0.466667  0.466667      2.000000
 -0.133333  0.466667  0.466667      2.000000
 -0.066667  0.466667  0.466667      2.000000
  0.000000 -0.466667  0.466667      2.000000
  0.066667 -0.466667  0.466667      2.000000
  0.133333 -0.466667  0.466667      2.000000
  0.200000 -0.466667  0.466667      2.000000
  0.266667 -0.466667  0.466667      2.000000
  0.333333 -0.466667  0.466667      2.000000
  0.400000 -0.466667  0.466667      2.000000
  0.466667 -0.466667  0.466667      2.000000
 -0.466667 -0.466667  0.466667      2.000000
 -0.400000 -0.466667  0.466667      2.000000
 -0.333333 -0.466667  0.466667      2.000000
 -0.266667 -0.466667  0.466667      2.000000
 -0.200000 -0.466667  0.466667      2.000000
 -0.133333 -0.466667  0.466667      2.000000
 -0.066667 -0.466667  0.466667      2.000000
 -0.000000 -0.400000  0.466667      2.000000
  0.066667 -0.400000  0.466667      2.000000
  0.133333 -0.400000  0.466667      2.000000
  0.200000 -0.400000  0.466667      2.000000
  0.266667 -0.400000  0.466667      2.000000
  0.333333 -0.400000  0.466667      2.000000
  0.400000 -0.400000  0.466667      2.000000
  0.466667 -0.400000  0.466667      2.000000
 -0.466667 -0.400000  0.466667      2.000000
 -0.400000 -0.400000  0.466667      2.000000
[...]
      7       3.1658      2.00000
      8       3.1878      2.00000
      9       3.4223      2.00000
     10       3.5593      2.00000
     11       3.5973      2.00000
     12       3.7089      2.00000
     13       4.3516      2.00000
     14       4.5104      2.00000
     15       4.6349      2.00000
     16       4.6895      2.00000
     17       4.8193      2.00000
     18       5.0422      2.00000
     19       5.4222      2.00000
     20       5.4460      2.00000
     21       6.2814      2.00000
     22       6.6705      2.00000
     23       8.6390      0.00000
     24       9.1160      0.00000
     25      13.5543      0.00000
     26      14.0123      0.00000
     27      16.1314      0.00000

 k-point  1680 :       0.4000   -0.0667    0.4667
  band No.  band energies     occupation 
      1       1.9919      2.00000
      2       2.2561      2.00000
      3       2.5366      2.00000
      4       2.5368      2.00000
      5       3.2088      2.00000
      6       3.2261      2.00000
      7       3.2355      2.00000
      8       3.2547      2.00000
      9       3.4869      2.00000
     10       3.5286      2.00000
     11       3.6329      2.00000
     12       3.6791      2.00000
     13       4.3267      2.00000
     14       4.4552      2.00000
     15       4.5139      2.00000
     16       4.5506      2.00000
     17       4.8294      2.00000
     18       5.0200      2.00000
     19       5.2312      2.00000
     20       5.2826      2.00000
     21       6.6533      2.00000
     22       7.0821      2.00000
     23       8.0348      0.00702
     24       8.5204      0.00000
     25      13.9702      0.00000
     26      14.4863      0.00000
     27      15.6583      0.00000

 k-point  1681 :       0.4667   -0.0667    0.4667
  band No.  band energies     occupation 
      1       2.1876      2.00000
      2       2.3687      2.00000
      3       2.3715      2.00000
      4       2.4613      2.00000
      5       3.2643      2.00000
      6       3.2711      2.00000
      7       3.2832      2.00000
      8       3.2865      2.00000
      9       3.5768      2.00000
     10       3.5850      2.00000
     11       3.6397      2.00000
     12       3.6480      2.00000
     13       4.3346      2.00000
     14       4.4092      2.00000
     15       4.4164      2.00000
     16       4.4233      2.00000
     17       4.9103      2.00000
     18       5.0522      2.00000
     19       5.0538      2.00000
     20       5.1453      2.00000
     21       7.0593      2.00000
     22       7.5134      2.00000
     23       7.5183      2.00000
     24       7.9920      0.03653
     25      14.4568      0.00000
     26      15.0177      0.00000
     27      15.0317      0.00000

 k-point  1682 :      -0.4667   -0.0667    0.4667
  band No.  band energies     occupation 
      1       2.1876      2.00000
      2       2.3687      2.00000
      3       2.3715      2.00000
      4       2.4613      2.00000
      5       3.2643      2.00000
      6       3.2711      2.00000
      7       3.2832      2.00000
      8       3.2865      2.00000
      9       3.5768      2.00000
     10       3.5850      2.00000
     11       3.6397      2.00000
     12       3.6480      2.00000
     13       4.3346      2.00000
     14       4.4092      2.00000
     15       4.4164      2.00000
     16       4.4233      2.00000
     17       4.9103      2.00000
     18       5.0522      2.00000
     19       5.0538      2.00000
     20       5.1453      2.00000
     21       7.0593      2.00000
     22       7.5134      2.00000
     23       7.5183      2.00000
     24       7.9920      0.03653
     25      14.4568      0.00000
     26      15.0177      0.00000
     27      15.0317      0.00000

 k-point  1683 :      -0.4000   -0.0667    0.4667
  band No.  band energies     occupation 
      1       1.9919      2.00000
      2       2.2561      2.00000
      3       2.5366      2.00000
      4       2.5368      2.00000
      5       3.2088      2.00000
      6       3.2261      2.00000
      7       3.2355      2.00000
      8       3.2547      2.00000
      9       3.4869      2.00000
     10       3.5286      2.00000
     11       3.6329      2.00000
     12       3.6791      2.00000
     13       4.3267      2.00000
     14       4.4552      2.00000
     15       4.5139      2.00000
     16       4.5506      2.00000
     17       4.8294      2.00000
     18       5.0200      2.00000
     19       5.2312      2.00000
     20       5.2826      2.00000
     21       6.6533      2.00000
     22       7.0821      2.00000
     23       8.0348      0.00702
     24       8.5204      0.00000
     25      13.9702      0.00000
     26      14.4863      0.00000
     27      15.6584      0.00000

 k-point  1684 :      -0.3333   -0.0667    0.4667
  band No.  band energies     occupation 
      1       1.7871      2.00000
      2       2.1126      2.00000
      3       2.6069      2.00000
      4       2.6946      2.00000
      5       3.1022      2.00000
      6       3.1026      2.00000
      7       3.1658      2.00000
      8       3.1878      2.00000
      9       3.4223      2.00000
     10       3.5593      2.00000
     11       3.5973      2.00000
     12       3.7089      2.00000
     13       4.3516      2.00000
     14       4.5104      2.00000
     15       4.6349      2.00000
     16       4.6895      2.00000
     17       4.8193      2.00000
     18       5.0422      2.00000
     19       5.4222      2.00000
     20       5.4460      2.00000
     21       6.2814      2.00000
     22       6.6705      2.00000
     23       8.6390      0.00000
     24       9.1160      0.00000
     25      13.5543      0.00000
     26      14.0123      0.00000
     27      16.1313      0.00000

 k-point  1685 :      -0.2667   -0.0667    0.4667
  band No.  band energies     occupation 
      1       1.5872      2.00000
      2       1.9530      2.00000
      3       2.6703      2.00000
      4       2.8405      2.00000
      5       2.9672      2.00000
      6       2.9715      2.00000
      7       3.0825      2.00000
      8       3.1069      2.00000
      9       3.3901      2.00000
     10       3.5596      2.00000
     11       3.6667      2.00000
     12       3.7724      2.00000
     13       4.3712      2.00000
     14       4.5513      2.00000
     15       4.7412      2.00000
     16       4.7970      2.00000
     17       4.8593      2.00000
     18       5.1001      2.00000
     19       5.6083      2.00000
     20       5.6172      2.00000
     21       5.9391      2.00000
     22       6.2780      2.00000
     23       9.3273      0.00000
     24       9.7744      0.00000
     25      13.2154      0.00000
     26      13.6159      0.00000
     27      15.6941      0.00000

 k-point  1686 :      -0.2000   -0.0667    0.4667
  band No.  band energies     occupation 
      1       1.4100      2.00000
      2       1.7996      2.00000
      3       2.7105      2.00000
      4       2.8481      2.00000
      5       2.8541      2.00000
      6       2.9641      2.00000
      7       3.0051      2.00000
      8       3.0525      2.00000
      9       3.3854      2.00000
     10       3.5214      2.00000
     11       3.8266      2.00000
     12       3.8762      2.00000
     13       4.3846      2.00000
     14       4.5813      2.00000
     15       4.8123      2.00000
     16       4.8555      2.00000
     17       4.9016      2.00000
     18       5.1607      2.00000
     19       5.6369      2.00000
     20       5.7795      2.00000
     21       5.7815      2.00000
     22       5.9100      2.00000
     23      10.0758      0.00000
     24      10.4558      0.00000
     25      12.9876      0.00000
     26      13.3162      0.00000
     27      15.3291      0.00000

 k-point  1687 :      -0.1333   -0.0667    0.4667
  band No.  band energies     occupation 
      1       1.2717      2.00000
      2       1.6742      2.00000
      3       2.7097      2.00000
      4       2.7505      2.00000
      5       2.7720      2.00000
      6       2.9449      2.00000
      7       3.0491      2.00000
      8       3.0552      2.00000
      9       3.4082      2.00000
     10       3.4810      2.00000
     11       4.0114      2.00000
     12       4.0180      2.00000
     13       4.4020      2.00000
     14       4.6127      2.00000
     15       4.8482      2.00000
     16       4.8696      2.00000
     17       4.8843      2.00000
     18       5.1769      2.00000
     19       5.4123      2.00000
     20       5.5984      2.00000
     21       5.9228      2.00000
     22       5.9229      2.00000
     23      10.8156      0.00000
     24      11.0490      0.00000
     25      12.9658      0.00000
     26      13.1633      0.00000
     27      14.9994      0.00000

 k-point  1688 :      -0.0667   -0.0667    0.4667
  band No.  band energies     occupation 
      1       1.1840      2.00000
      2       1.5930      2.00000
      3       2.6886      2.00000
      4       2.6886      2.00000
      5       2.7227      2.00000
      6       2.9072      2.00000
      7       3.0909      2.00000
      8       3.0909      2.00000
      9       3.4441      2.00000
     10       3.4441      2.00000
     11       4.1466      2.00000
     12       4.1988      2.00000
     13       4.4433      2.00000
     14       4.6718      2.00000
     15       4.7604      2.00000
     16       4.8607      2.00000
     17       4.8607      2.00000
     18       5.0529      2.00000
     19       5.3107      2.00000
     20       5.4424      2.00000
     21       6.0201      2.00000
     22       6.0201      2.00000
     23      11.3857      0.00000
     24      11.3857      0.00000
     25      13.2643      0.00000
     26      13.2643      0.00000
     27      14.6220      0.00000


--------------------------------------------------------------------------------------------------------


 soft charge-density along one line, spin component           1
         0         1         2         3         4         5         6         7         8         9
 total charge-density along one line
 
 pseudopotential strength for first ion, spin component:           1
 -4.312   0.000  -0.000  -0.000   0.000  -4.542   0.000  -0.000
  0.000  -4.317   0.000   0.000  -0.000   0.000  -4.546   0.000
 -0.000   0.000  -4.301  -0.000   0.000  -0.000   0.000  -4.531
 -0.000   0.000  -0.000  -4.317  -0.000  -0.000   0.000  -0.000
  0.000  -0.000   0.000  -0.000  -4.303   0.000  -0.000   0.000
 -4.542   0.000  -0.000  -0.000   0.000  -4.754   0.000  -0.000
  0.000  -4.546   0.000   0.000  -0.000   0.000  -4.758   0.000
 -0.000   0.000  -4.531  -0.000   0.000  -0.000   0.000  -4.743
 -0.000   0.000  -0.000  -4.546  -0.000  -0.000   0.000  -0.000
  0.000  -0.000   0.000  -0.000  -4.532   0.000  -0.000   0.000
  0.000  -0.000   0.000  -0.000   0.000   0.000  -0.000   0.000
  0.000  -0.000   0.001  -0.000   0.000   0.000  -0.000   0.001
 -0.000  -0.000  -0.000  -0.000  -0.000  -0.000  -0.000  -0.000
 -0.000   0.000  -0.000  -0.000   0.000  -0.000   0.000  -0.000
  0.000  -0.000   0.000  -0.000  -0.000   0.000  -0.000   0.000
 -0.000  -0.000  -0.000  -0.000  -0.000  -0.000  -0.000  -0.000
 -0.000   0.000  -0.000  -0.000   0.000  -0.000   0.000  -0.000
  0.000  -0.000   0.000  -0.000  -0.000   0.000  -0.000   0.000
 total augmentation occupancy for first ion, spin component:           1
  4.341   0.000  -0.000  -0.000   0.000  -2.233   0.000   0.000   0.000  -0.000   0.000  -0.000  -0.000   0.000   0.000   0.000
  0.000   4.283  -0.000   0.000   0.000  -0.000  -2.235   0.000  -0.000  -0.000   0.000  -0.000   0.000   0.000  -0.000   0.000
 -0.000  -0.000   4.176  -0.000   0.000   0.000   0.000  -1.908   0.000  -0.000  -0.015  -0.000  -0.000  -0.000   0.000   0.000
 -0.000   0.000  -0.000   4.283  -0.000   0.000  -0.000  -0.000  -2.235  -0.000  -0.000   0.000   0.000   0.000  -0.000   0.000
  0.000   0.000   0.000  -0.000   4.137  -0.000  -0.000   0.000  -0.000  -1.909   0.000  -0.000  -0.000   0.000   0.000   0.000
 -2.233  -0.000   0.000   0.000  -0.000   2.050   0.000  -0.000  -0.000   0.000  -0.000   0.000   0.000  -0.000  -0.000  -0.000
  0.000  -2.235   0.000  -0.000  -0.000   0.000   2.101  -0.000  -0.000   0.000  -0.000   0.000  -0.000   0.000   0.000   0.000
  0.000   0.000  -1.908  -0.000   0.000  -0.000  -0.000   1.612   0.000  -0.000   0.017  -0.001   0.000   0.000  -0.000  -0.000
  0.000  -0.000   0.000  -2.235  -0.000  -0.000  -0.000   0.000   2.101   0.000   0.000  -0.000   0.000  -0.000   0.000  -0.000
 -0.000  -0.000  -0.000  -0.000  -1.909   0.000   0.000  -0.000   0.000   1.644  -0.000   0.000   0.000  -0.000  -0.000   0.000
  0.000   0.000  -0.015  -0.000   0.000  -0.000  -0.000   0.017   0.000  -0.000   2.293  -0.555   0.000  -0.000  -0.000  -0.000
 -0.000  -0.000  -0.000   0.000  -0.000   0.000   0.000  -0.001  -0.000   0.000  -0.555   0.177  -0.000   0.000   0.000   0.000
 -0.000   0.000  -0.000   0.000  -0.000   0.000  -0.000   0.000   0.000   0.000   0.000  -0.000   0.147  -0.000  -0.000  -0.005
  0.000   0.000  -0.000   0.000   0.000  -0.000   0.000   0.000  -0.000  -0.000  -0.000   0.000  -0.000   0.149  -0.000   0.000
  0.000  -0.000   0.000  -0.000   0.000  -0.000   0.000  -0.000   0.000  -0.000  -0.000   0.000  -0.000  -0.000   0.147   0.000
  0.000   0.000   0.000   0.000   0.000  -0.000   0.000  -0.000  -0.000   0.000  -0.000   0.000  -0.005   0.000   0.000   0.000
  0.000  -0.000   0.000  -0.000  -0.000  -0.000   0.000  -0.000  -0.000  -0.000   0.000  -0.000  -0.000  -0.005   0.000   0.000
 -0.000   0.000   0.000   0.000  -0.000   0.000   0.000  -0.000  -0.000  -0.000   0.000  -0.000   0.000   0.000  -0.005  -0.000


------------------------ aborting loop because EDIFF is reached ----------------------------------------


    CHARGE:  cpu time    0.9269: real time    0.9282
    FORLOC:  cpu time    0.0010: real time    0.0034
    FORNL :  cpu time    2.8256: real time    2.8363
    STRESS:  cpu time    5.2592: real time    5.2795
    FORCOR:  cpu time    0.0080: real time    0.0181
    FORHAR:  cpu time    0.0030: real time    0.0058
    MIXING:  cpu time    0.0000: real time    0.0005
    OFIELD:  cpu time    0.0000: real time    0.0024

  FORCE on cell =-STRESS in cart. coord.  units (eV):
  Direction    XX          YY          ZZ          XY          YZ          ZX
  --------------------------------------------------------------------------------------
  Alpha Z   246.19930   246.19930   246.19930
  Ewald   -1260.16523 -1260.16520 -1256.54581     0.00001    -0.00005     0.00002
  Hartree   168.87685   168.87686   169.55809     0.00000    -0.00002     0.00001
  E(xc)    -197.59793  -197.59793  -197.58885     0.00000    -0.00000     0.00000
  Local     163.43967   163.43964   159.60854    -0.00001     0.00007    -0.00003
  n-local    -7.90945    -7.90945    -7.72224    -0.00000    -0.00000    -0.00000
  augment   271.74981   271.74981   271.56840    -0.00000     0.00000    -0.00000
  Kinetic   612.35519   612.35519   612.07151    -0.00000     0.00000    -0.00000
  Fock        0.00000     0.00000     0.00000     0.00000     0.00000     0.00000
  -------------------------------------------------------------------------------------
  Total      -3.05179    -3.05179    -2.85106    -0.00000    -0.00000     0.00000
  in kB     -64.59251   -64.59243   -60.34407    -0.00001    -0.00002     0.00001
  external pressure =      -63.18 kB  Pullay stress =        0.00 kB


 VOLUME and BASIS-vectors are now :
 -----------------------------------------------------------------------------
  energy-cutoff  :      500.00
  volume of cell :       75.70
      direct lattice vectors                 reciprocal lattice vectors
     4.268628136 -0.000000031 -0.000000062     0.234267303  0.000000002  0.000000004
    -0.000000031  4.268627722  0.000000138     0.000000002  0.234267326 -0.000000008
    -0.000000063  0.000000142  4.154382275     0.000000003 -0.000000008  0.240709673

  length of vectors
     4.268628136  4.268627722  4.154382275     0.234267303  0.234267326  0.240709673


 FORCES acting on ions
    electron-ion (+dipol)            ewald-force                    non-local-force                 convergence-correction
 -----------------------------------------------------------------------------------------------
   0.118E-05 -.376E-06 0.219E-05   -.149E-05 0.187E-06 -.226E-05   -.526E-06 0.713E-06 -.499E-06   0.923E-06 -.767E-06 0.621E-06
   0.254E-05 -.847E-06 0.139E-05   -.313E-05 0.189E-06 -.657E-06   -.203E-06 0.605E-06 -.356E-06   0.762E-06 0.102E-06 -.275E-06
   -.895E-06 -.141E-05 -.218E-05   0.166E-05 0.200E-05 0.190E-05   -.143E-06 -.551E-06 0.941E-06   -.695E-06 -.171E-06 -.784E-06
   -.273E-05 0.274E-05 -.149E-05   0.295E-05 -.237E-05 0.102E-05   0.728E-06 -.925E-06 0.777E-07   -.935E-06 0.883E-06 0.414E-06
 -----------------------------------------------------------------------------------------------
   0.934E-07 0.109E-06 -.897E-07   -.467E-16 -.134E-14 0.987E-15   -.143E-06 -.158E-06 0.164E-06   0.552E-07 0.471E-07 -.228E-07
 
 
 POSITION                                       TOTAL-FORCE (eV/Angst)
 -----------------------------------------------------------------------------------
      4.26863     -0.00000     -0.00000         0.000000     -0.000000      0.000000
     -0.00000      2.13431      2.07719        -0.000000      0.000000      0.000000
      2.13431      4.26863      2.07719        -0.000000     -0.000000     -0.000000
      2.13431      2.13431      4.15438         0.000000      0.000000      0.000000
 -----------------------------------------------------------------------------------
    total drift:                                0.000000     -0.000000      0.000000


--------------------------------------------------------------------------------------------------------



  FREE ENERGIE OF THE ION-ELECTRON SYSTEM (eV)
  ---------------------------------------------------
  free  energy   TOTEN  =       -12.80413168 eV

  energy  without entropy=      -12.79870598  energy(sigma->0) =      -12.80141883
 


--------------------------------------------------------------------------------------------------------


    POTLOK:  cpu time    0.0140: real time    0.0196


--------------------------------------------------------------------------------------------------------


 stress matrix after NEB project (eV)
     -3.05179     -0.00000      0.00000
     -0.00000     -3.05179     -0.00000
      0.00000     -0.00000     -2.85106
  FORCES: max atom, RMS     0.000000    0.000000
  FORCE total and by dimension    0.000000    0.000000
  Stress total and by dimension    5.172561    3.051790


--------------------------------------------------------------------------------------------------------


  
 reached required accuracy - stopping structural energy minimisation
     LOOP+:  cpu time  235.9501: real time  236.9710
    4ORBIT:  cpu time    0.0000: real time    0.0000

 total amount of memory used by VASP MPI-rank0   159600. kBytes
=======================================================================

   base      :      30000. kBytes
   nonl-proj :      61999. kBytes
   fftplans  :        508. kBytes
   grid      :        720. kBytes
   one-center:         15. kBytes
   wavefun   :      66358. kBytes
 
  
  
 General timing and accounting informations for this job:
 ========================================================
  
                  Total CPU time used (sec):      249.980
                            User time (sec):      244.623
                          System time (sec):        5.357
                         Elapsed time (sec):      251.658
  
                   Maximum memory used (kb):      240108.
                   Average memory used (kb):           0.
  
                          Minor page faults:        66095
                          Major page faults:          375
                 Voluntary context switches:         9048
