 running on   24 total cores
 distrk:  each k-point on   24 cores,    1 groups
 distr:  one band on    8 cores,    3 groups
 using from now: INCAR     
 vasp.5.4.4.18Apr17-6-g9f103f2a35 (build Jan 14 2019 14:48:31) complex          
  
 POSCAR found type information on POSCAR  Au
 POSCAR found :  1 types and       4 ions
 scaLAPACK will be used
 LDA part: xc-table for Pade appr. of Perdew
 POSCAR found type information on POSCAR  Au
 POSCAR found :  1 types and       4 ions
 POSCAR, INCAR and KPOINTS ok, starting setup
 FFT: planning ...
 WAVECAR not read
 entering main loop
       N       E                     dE             d eps       ncg     rms          rms(c)
DAV:   1     0.270073696729E+03    0.27007E+03   -0.22414E+04 91791   0.151E+03
DAV:   2    -0.879695259213E+01   -0.27887E+03   -0.27067E+03105984   0.321E+02
DAV:   3    -0.137956527415E+02   -0.49987E+01   -0.49663E+01101160   0.450E+01
DAV:   4    -0.138264226235E+02   -0.30770E-01   -0.30750E-01104481   0.368E+00
DAV:   5    -0.138267255924E+02   -0.30297E-03   -0.30296E-03107181   0.379E-01    0.136E+01
RMM:   6    -0.128580025322E+02    0.96872E+00   -0.26731E+00 91160   0.106E+01    0.911E+00
RMM:   7    -0.128106299756E+02    0.47373E-01   -0.25810E-01 91240   0.312E+00    0.468E+00
RMM:   8    -0.128042676495E+02    0.63623E-02   -0.10714E-02 91212   0.667E-01    0.508E-01
RMM:   9    -0.128041108390E+02    0.15681E-03   -0.41029E-04 91202   0.118E-01    0.410E-02
RMM:  10    -0.128041306239E+02   -0.19785E-04   -0.26400E-05 91244   0.378E-02    0.217E-02
RMM:  11    -0.128041318025E+02   -0.11786E-05   -0.12433E-06 51110   0.634E-03    0.545E-04
RMM:  12    -0.128041316772E+02    0.12534E-06   -0.15008E-07 46104   0.246E-03
   1 F= -.12804132E+02 E0= -.12801419E+02  d E =-.128041E+02
 curvature:   0.00 expect dE= 0.000E+00 dE for cont linesearch  0.000E+00
 trial: gam= 0.00000 g(F)=  0.440E-14 g(S)=  0.000E+00 ort = 0.000E+00 (trialstep = 0.100E+01)
 search vector abs. value=  0.100E-09
 reached required accuracy - stopping structural energy minimisation
