   8   8   0   0
  0.5704659E+01  0.3573605E-09  0.3573605E-09  0.3573605E-09  0.5000000E-15
  1.000000000000000E-004
  CAR 
 unknown system                          
     24.32482332    -12.16941495  301     11.07285305      1.00000000
    -12.169  0.0000E+00  0.0000E+00
    -12.048  0.0000E+00  0.0000E+00
    -11.926  0.0000E+00  0.0000E+00
    -11.804  0.0000E+00  0.0000E+00
    -11.683  0.0000E+00  0.0000E+00
    -11.561  0.0000E+00  0.0000E+00
    -11.440  0.0000E+00  0.0000E+00
    -11.318  0.0000E+00  0.0000E+00
    -11.196  0.0000E+00  0.0000E+00
    -11.075  0.0000E+00  0.0000E+00
    -10.953  0.0000E+00  0.0000E+00
    -10.831  0.0000E+00  0.0000E+00
    -10.710  0.4313E-11  0.5246E-12
    -10.588  0.6845E-05  0.8327E-06
    -10.466  0.5379E-03  0.6626E-04
    -10.345  0.1733E-02  0.2771E-03
    -10.223  0.2190E-02  0.5435E-03
    -10.101  0.3277E-02  0.9421E-03
     -9.980  0.2344E-02  0.1227E-02
     -9.858  0.4415E-02  0.1764E-02
     -9.736  0.3481E-02  0.2188E-02
     -9.615  0.3992E-02  0.2673E-02
     -9.493  0.5008E-02  0.3283E-02
     -9.372  0.4929E-02  0.3882E-02
     -9.250  0.5421E-02  0.4542E-02
     -9.128  0.3866E-02  0.5012E-02
     -9.007  0.6734E-02  0.5831E-02
     -8.885  0.6543E-02  0.6627E-02
     -8.763  0.5226E-02  0.7263E-02
     -8.642  0.5034E-02  0.7875E-02
     -8.520  0.7319E-02  0.8765E-02
     -8.398  0.8181E-02  0.9761E-02
     -8.277  0.5796E-02  0.1047E-01
     -8.155  0.7574E-02  0.1139E-01
     -8.033  0.6279E-02  0.1215E-01
     -7.912  0.8647E-02  0.1320E-01
     -7.790  0.5682E-02  0.1389E-01
     -7.668  0.9317E-02  0.1503E-01
     -7.547  0.1065E-01  0.1632E-01
     -7.425  0.5424E-02  0.1698E-01
     -7.304  0.8241E-02  0.1799E-01
     -7.182  0.7183E-02  0.1886E-01
     -7.060  0.1252E-01  0.2038E-01
     -6.939  0.8549E-02  0.2142E-01
     -6.817  0.9569E-02  0.2259E-01
     -6.695  0.7373E-02  0.2348E-01
     -6.574  0.1077E-01  0.2479E-01
     -6.452  0.8888E-02  0.2587E-01
     -6.330  0.1070E-01  0.2718E-01
     -6.209  0.1005E-01  0.2840E-01
     -6.087  0.1082E-01  0.2972E-01
     -5.965  0.1126E-01  0.3109E-01
     -5.844  0.1088E-01  0.3241E-01
     -5.722  0.1366E-01  0.3407E-01
     -5.600  0.6482E-02  0.3486E-01
     -5.479  0.9686E-02  0.3604E-01
     -5.357  0.1672E-01  0.3807E-01
     -5.236  0.1330E-01  0.3969E-01
     -5.114  0.1170E-01  0.4111E-01
     -4.992  0.1483E-01  0.4292E-01
     -4.871  0.1076E-01  0.4423E-01
     -4.749  0.1469E-01  0.4601E-01
     -4.627  0.1590E-01  0.4795E-01
     -4.506  0.1581E-01  0.4987E-01
     -4.384  0.1402E-01  0.5158E-01
     -4.262  0.1409E-01  0.5329E-01
     -4.141  0.1236E-01  0.5480E-01
     -4.019  0.2121E-01  0.5738E-01
     -3.897  0.8542E-02  0.5841E-01
     -3.776  0.1283E-01  0.5998E-01
     -3.654  0.9912E-02  0.6118E-01
     -3.532  0.9909E-02  0.6239E-01
     -3.411  0.1588E-01  0.6432E-01
     -3.289  0.1521E-01  0.6617E-01
     -3.168  0.6328E-02  0.6694E-01
     -3.046  0.1124E-01  0.6831E-01
     -2.924  0.1113E-01  0.6966E-01
     -2.803  0.1225E-01  0.7115E-01
     -2.681  0.9225E-02  0.7227E-01
     -2.559  0.5109E-02  0.7289E-01
     -2.438  0.7370E-02  0.7379E-01
     -2.316  0.1005E-01  0.7501E-01
     -2.194  0.1273E-01  0.7656E-01
     -2.073  0.1212E-01  0.7804E-01
     -1.951  0.1516E-01  0.7988E-01
     -1.829  0.1243E-01  0.8139E-01
     -1.708  0.5782E-02  0.8210E-01
     -1.586  0.7441E-02  0.8300E-01
     -1.464  0.1239E-01  0.8451E-01
     -1.343  0.8334E-02  0.8552E-01
     -1.221  0.8881E-02  0.8660E-01
     -1.099  0.1643E-01  0.8860E-01
     -0.978  0.1883E-01  0.9089E-01
     -0.856  0.1609E-01  0.9285E-01
     -0.735  0.2481E-01  0.9587E-01
     -0.613  0.2011E-01  0.9831E-01
     -0.491  0.2404E-01  0.1012E+00
     -0.370  0.1342E-01  0.1029E+00
     -0.248  0.2033E-01  0.1053E+00
     -0.126  0.2218E-01  0.1080E+00
     -0.005  0.2840E-01  0.1115E+00
      0.117  0.1469E-01  0.1133E+00
      0.239  0.1571E-01  0.1152E+00
      0.360  0.7895E-02  0.1162E+00
      0.482  0.1056E-01  0.1174E+00
      0.604  0.1557E-01  0.1193E+00
      0.725  0.8935E-02  0.1204E+00
      0.847  0.1350E-01  0.1221E+00
      0.969  0.1306E-01  0.1236E+00
      1.090  0.1717E-01  0.1257E+00
      1.212  0.7646E-02  0.1267E+00
      1.333  0.8758E-02  0.1277E+00
      1.455  0.1298E-01  0.1293E+00
      1.577  0.1204E-01  0.1308E+00
      1.698  0.8041E-02  0.1318E+00
      1.820  0.1646E-01  0.1338E+00
      1.942  0.1370E-01  0.1354E+00
      2.063  0.2535E-01  0.1385E+00
      2.185  0.1477E-01  0.1403E+00
      2.307  0.2391E-01  0.1432E+00
      2.428  0.2045E-01  0.1457E+00
      2.550  0.2583E-01  0.1488E+00
      2.672  0.1934E-01  0.1512E+00
      2.793  0.1681E-01  0.1532E+00
      2.915  0.1417E-01  0.1550E+00
      3.037  0.1647E-01  0.1570E+00
      3.158  0.3149E-01  0.1608E+00
      3.280  0.3250E-01  0.1648E+00
      3.401  0.1075E-01  0.1661E+00
      3.523  0.1737E-01  0.1682E+00
      3.645  0.2262E-01  0.1709E+00
      3.766  0.2302E-01  0.1737E+00
      3.888  0.2745E-01  0.1771E+00
      4.010  0.2270E-01  0.1798E+00
      4.131  0.2560E-01  0.1829E+00
      4.253  0.1566E-01  0.1848E+00
      4.375  0.2898E-01  0.1884E+00
      4.496  0.3590E-01  0.1927E+00
      4.618  0.3059E-01  0.1965E+00
      4.740  0.2969E-01  0.2001E+00
      4.861  0.2852E-01  0.2035E+00
      4.983  0.2835E-01  0.2070E+00
      5.105  0.2694E-01  0.2103E+00
      5.226  0.4028E-01  0.2152E+00
      5.348  0.4365E-01  0.2205E+00
      5.469  0.2319E-01  0.2233E+00
      5.591  0.1605E-01  0.2252E+00
      5.713  0.2998E-01  0.2289E+00
      5.834  0.3366E-01  0.2330E+00
      5.956  0.4120E-01  0.2380E+00
      6.078  0.2461E-01  0.2410E+00
      6.199  0.2157E-01  0.2436E+00
      6.321  0.3099E-01  0.2474E+00
      6.443  0.2894E-01  0.2509E+00
      6.564  0.2473E-01  0.2539E+00
      6.686  0.3305E-01  0.2579E+00
      6.808  0.2723E-01  0.2613E+00
      6.929  0.2114E-01  0.2638E+00
      7.051  0.2668E-01  0.2671E+00
      7.173  0.3808E-01  0.2717E+00
      7.294  0.2216E-01  0.2744E+00
      7.416  0.2024E-01  0.2769E+00
      7.537  0.2939E-01  0.2804E+00
      7.659  0.1743E-01  0.2826E+00
      7.781  0.3619E-01  0.2870E+00
      7.902  0.3163E-01  0.2908E+00
      8.024  0.1713E-01  0.2929E+00
      8.146  0.1411E-01  0.2946E+00
      8.267  0.2700E-01  0.2979E+00
      8.389  0.1896E-01  0.3002E+00
      8.511  0.2130E-01  0.3028E+00
      8.632  0.1238E-01  0.3043E+00
      8.754  0.7280E-02  0.3052E+00
      8.876  0.1128E-01  0.3066E+00
      8.997  0.1913E-01  0.3089E+00
      9.119  0.1113E-01  0.3102E+00
      9.241  0.9876E-02  0.3114E+00
      9.362  0.7643E-02  0.3124E+00
      9.484  0.5290E-02  0.3130E+00
      9.605  0.1193E-01  0.3145E+00
      9.727  0.9036E-02  0.3156E+00
      9.849  0.4920E-02  0.3162E+00
      9.970  0.5725E-02  0.3169E+00
     10.092  0.4611E-02  0.3174E+00
     10.214  0.6915E-02  0.3183E+00
     10.335  0.3405E-02  0.3187E+00
     10.457  0.4369E-02  0.3192E+00
     10.579  0.2423E-02  0.3195E+00
     10.700  0.2568E-02  0.3198E+00
     10.822  0.1438E-02  0.3200E+00
     10.944  0.1519E-03  0.3200E+00
     11.065  0.4275E-08  0.3200E+00
     11.187  0.0000E+00  0.3200E+00
     11.309  0.0000E+00  0.3200E+00
     11.430  0.0000E+00  0.3200E+00
     11.552  0.0000E+00  0.3200E+00
     11.673  0.0000E+00  0.3200E+00
     11.795  0.0000E+00  0.3200E+00
     11.917  0.0000E+00  0.3200E+00
     12.038  0.0000E+00  0.3200E+00
     12.160  0.0000E+00  0.3200E+00
     12.282  0.0000E+00  0.3200E+00
     12.403  0.0000E+00  0.3200E+00
     12.525  0.0000E+00  0.3200E+00
     12.647  0.0000E+00  0.3200E+00
     12.768  0.0000E+00  0.3200E+00
     12.890  0.0000E+00  0.3200E+00
     13.012  0.0000E+00  0.3200E+00
     13.133  0.0000E+00  0.3200E+00
     13.255  0.0000E+00  0.3200E+00
     13.377  0.0000E+00  0.3200E+00
     13.498  0.0000E+00  0.3200E+00
     13.620  0.0000E+00  0.3200E+00
     13.741  0.0000E+00  0.3200E+00
     13.863  0.0000E+00  0.3200E+00
     13.985  0.0000E+00  0.3200E+00
     14.106  0.0000E+00  0.3200E+00
     14.228  0.0000E+00  0.3200E+00
     14.350  0.0000E+00  0.3200E+00
     14.471  0.0000E+00  0.3200E+00
     14.593  0.0000E+00  0.3200E+00
     14.715  0.0000E+00  0.3200E+00
     14.836  0.6920E-14  0.3200E+00
     14.958  0.6452E-06  0.3200E+00
     15.080  0.1364E-02  0.3202E+00
     15.201  0.4063E-02  0.3207E+00
     15.323  0.2520E-02  0.3210E+00
     15.445  0.2687E-02  0.3213E+00
     15.566  0.1099E-01  0.3226E+00
     15.688  0.8211E-02  0.3236E+00
     15.810  0.9266E-02  0.3248E+00
     15.931  0.7536E-02  0.3257E+00
     16.053  0.4767E-02  0.3263E+00
     16.174  0.1970E-01  0.3286E+00
     16.296  0.1670E-01  0.3307E+00
     16.418  0.1736E-01  0.3328E+00
     16.539  0.1636E-01  0.3348E+00
     16.661  0.1338E-01  0.3364E+00
     16.783  0.1933E-01  0.3388E+00
     16.904  0.1178E-01  0.3402E+00
     17.026  0.2050E-01  0.3427E+00
     17.148  0.2437E-01  0.3457E+00
     17.269  0.2736E-01  0.3490E+00
     17.391  0.2361E-01  0.3519E+00
     17.513  0.1380E-01  0.3535E+00
     17.634  0.1717E-01  0.3556E+00
     17.756  0.3328E-01  0.3597E+00
     17.878  0.2362E-01  0.3625E+00
     17.999  0.2553E-01  0.3656E+00
     18.121  0.1511E-01  0.3675E+00
     18.242  0.2732E-01  0.3708E+00
     18.364  0.3391E-01  0.3749E+00
     18.486  0.3544E-01  0.3792E+00
     18.607  0.3335E-01  0.3833E+00
     18.729  0.3819E-01  0.3879E+00
     18.851  0.3321E-01  0.3920E+00
     18.972  0.2922E-01  0.3955E+00
     19.094  0.3918E-01  0.4003E+00
     19.216  0.3382E-01  0.4044E+00
     19.337  0.4373E-01  0.4097E+00
     19.459  0.4002E-01  0.4146E+00
     19.581  0.6251E-01  0.4222E+00
     19.702  0.3839E-01  0.4269E+00
     19.824  0.2815E-01  0.4303E+00
     19.946  0.3602E-01  0.4347E+00
     20.067  0.2548E-01  0.4378E+00
     20.189  0.2556E-01  0.4409E+00
     20.310  0.2112E-01  0.4435E+00
     20.432  0.2299E-01  0.4463E+00
     20.554  0.4489E-01  0.4517E+00
     20.675  0.2651E-01  0.4549E+00
     20.797  0.3331E-01  0.4590E+00
     20.919  0.2312E-01  0.4618E+00
     21.040  0.2515E-01  0.4649E+00
     21.162  0.2553E-01  0.4680E+00
     21.284  0.1358E-01  0.4696E+00
     21.405  0.9912E-02  0.4708E+00
     21.527  0.1816E-01  0.4730E+00
     21.649  0.1756E-01  0.4752E+00
     21.770  0.1164E-01  0.4766E+00
     21.892  0.1347E-01  0.4782E+00
     22.014  0.4142E-02  0.4787E+00
     22.135  0.6205E-02  0.4795E+00
     22.257  0.9166E-03  0.4796E+00
     22.378  0.3526E-03  0.4797E+00
     22.500  0.8055E-07  0.4797E+00
     22.622  0.3256E-03  0.4797E+00
     22.743  0.2513E-02  0.4800E+00
     22.865  0.3719E-04  0.4800E+00
     22.987  0.2099E-10  0.4800E+00
     23.108  0.0000E+00  0.4800E+00
     23.230  0.0000E+00  0.4800E+00
     23.352  0.0000E+00  0.4800E+00
     23.473  0.0000E+00  0.4800E+00
     23.595  0.0000E+00  0.4800E+00
     23.717  0.0000E+00  0.4800E+00
     23.838  0.0000E+00  0.4800E+00
     23.960  0.0000E+00  0.4800E+00
     24.082  0.0000E+00  0.4800E+00
     24.203  0.0000E+00  0.4800E+00
     24.325  0.0000E+00  0.4800E+00
