       N       E                     dE             d eps       ncg     rms          rms(c)
DAV:   1     0.101474883442E+03    0.10147E+03   -0.25978E+04  4032   0.199E+03
DAV:   2    -0.724834194056E+02   -0.17396E+03   -0.17065E+03  6480   0.225E+02
DAV:   3    -0.752663254264E+02   -0.27829E+01   -0.27829E+01  4920   0.403E+01
DAV:   4    -0.752834256881E+02   -0.17100E-01   -0.17100E-01  7272   0.249E+00
DAV:   5    -0.752834285910E+02   -0.29029E-05   -0.29029E-05  4848   0.382E-02    0.165E+01
DAV:   6    -0.734577288901E+02    0.18257E+01   -0.13757E+00  4752   0.625E+00    0.108E+01
DAV:   7    -0.728464041571E+02    0.61132E+00   -0.17856E+00  5712   0.720E+00    0.229E+00
DAV:   8    -0.728448043256E+02    0.15998E-02   -0.24506E-02  6744   0.119E+00    0.120E-01
DAV:   9    -0.728449811295E+02   -0.17680E-03   -0.44857E-04  5544   0.140E-01    0.615E-02
DAV:  10    -0.728451045976E+02   -0.12347E-03   -0.11725E-04  6480   0.858E-02    0.475E-03
DAV:  11    -0.728451057011E+02   -0.11035E-05   -0.16008E-06  6240   0.999E-03    0.291E-03
DAV:  12    -0.728451060502E+02   -0.34902E-06   -0.67961E-08  6216   0.236E-03    0.161E-04
DAV:  13    -0.728451060583E+02   -0.80909E-08   -0.11457E-10  6216   0.844E-05
   1 F= -.72845106E+02 E0= -.72845106E+02  d E =-.728451E+02
