 running on   24 total cores
 distrk:  each k-point on   24 cores,    1 groups
 distr:  one band on    1 cores,   24 groups
 using from now: INCAR     
 vasp.5.4.4.18Apr17-6-g9f103f2a35 (build Jan 14 2019 14:48:31) complex          
  
 POSCAR found type information on POSCAR  C 
 POSCAR found :  1 types and       8 ions
 scaLAPACK will be used

 ----------------------------------------------------------------------------- 
|                                                                             |
|           W    W    AA    RRRRR   N    N  II  N    N   GGGG   !!!           |
|           W    W   A  A   R    R  NN   N  II  NN   N  G    G  !!!           |
|           W    W  A    A  R    R  N N  N  II  N N  N  G       !!!           |
|           W WW W  AAAAAA  RRRRR   N  N N  II  N  N N  G  GGG   !            |
|           WW  WW  A    A  R   R   N   NN  II  N   NN  G    G                |
|           W    W  A    A  R    R  N    N  II  N    N   GGGG   !!!           |
|                                                                             |
|      For optimal performance we recommend to set                            |
|        NCORE= 4 - approx SQRT( number of cores)                             |
|      NCORE specifies how many cores store one orbital (NPAR=cpu/NCORE).     |
|      This setting can  greatly improve the performance of VASP for DFT.     |
|      The default,   NCORE=1            might be grossly inefficient         |
|      on modern multi-core architectures or massively parallel machines.     |
|      Do your own testing !!!!                                               |
|      Unfortunately you need to use the default for GW and RPA calculations. |
|      (for HF NCORE is supported but not extensively tested yet)             |
|                                                                             |
 ----------------------------------------------------------------------------- 

 WARNING: for PREC=h ENMAX is automatically increase by 25 %
        this was not the case for versions prior to vasp.4.4
 LDA part: xc-table for Pade appr. of Perdew
 POSCAR found type information on POSCAR  C 
 POSCAR found :  1 types and       8 ions
 POSCAR, INCAR and KPOINTS ok, starting setup
 FFT: planning ...
 WAVECAR not read
 entering main loop
       N       E                     dE             d eps       ncg     rms          rms(c)
DAV:   1     0.101474883442E+03    0.10147E+03   -0.25978E+04  4032   0.199E+03
DAV:   2    -0.724834194056E+02   -0.17396E+03   -0.17065E+03  6480   0.225E+02
DAV:   3    -0.752663254264E+02   -0.27829E+01   -0.27829E+01  4920   0.403E+01
DAV:   4    -0.752834256881E+02   -0.17100E-01   -0.17100E-01  7272   0.249E+00
DAV:   5    -0.752834285910E+02   -0.29029E-05   -0.29029E-05  4848   0.382E-02    0.165E+01
DAV:   6    -0.734577288901E+02    0.18257E+01   -0.13757E+00  4752   0.625E+00    0.108E+01
DAV:   7    -0.728464041571E+02    0.61132E+00   -0.17856E+00  5712   0.720E+00    0.229E+00
DAV:   8    -0.728448043256E+02    0.15998E-02   -0.24506E-02  6744   0.119E+00    0.120E-01
DAV:   9    -0.728449811295E+02   -0.17680E-03   -0.44857E-04  5544   0.140E-01    0.615E-02
DAV:  10    -0.728451045976E+02   -0.12347E-03   -0.11725E-04  6480   0.858E-02    0.475E-03
DAV:  11    -0.728451057011E+02   -0.11035E-05   -0.16008E-06  6240   0.999E-03    0.291E-03
DAV:  12    -0.728451060502E+02   -0.34902E-06   -0.67961E-08  6216   0.236E-03    0.161E-04
DAV:  13    -0.728451060583E+02   -0.80909E-08   -0.11457E-10  6216   0.844E-05
   1 F= -.72845106E+02 E0= -.72845106E+02  d E =-.728451E+02
 curvature:   0.00 expect dE= 0.000E+00 dE for cont linesearch  0.000E+00
 trial: gam= 0.00000 g(F)=  0.891E-59 g(S)=  0.000E+00 ort = 0.000E+00 (trialstep = 0.100E+01)
 search vector abs. value=  0.100E-09
 reached required accuracy - stopping structural energy minimisation
