<?xml version="1.0" encoding="ISO-8859-1"?>
<modeling>
 <generator>
  <i name="program" type="string">vasp </i>
  <i name="version" type="string">5.4.4.18Apr17-6-g9f103f2a35  </i>
  <i name="subversion" type="string">(build Jan 14 2019 14:48:31) complex            parallel </i>
  <i name="platform" type="string">LinuxIFC </i>
  <i name="date" type="string">2019 08 26 </i>
  <i name="time" type="string">21:07:08 </i>
 </generator>
 <incar>
  <i type="int" name="ISTART">     0</i>
  <i type="string" name="PREC">high     (precision level)</i>
  <i type="logical" name="ADDGRID"> T  </i>
  <i type="int" name="NELM">    40</i>
  <i type="int" name="NELMIN">     4</i>
  <i type="int" name="IBRION">     2</i>
  <i name="EDIFF">      0.00000001</i>
  <i name="EDIFFG">     -0.01000000</i>
  <i type="int" name="NSW">   100</i>
  <i type="int" name="ISIF">     2</i>
  <i type="logical" name="LREAL"> F  </i>
  <i type="int" name="ISMEAR">     0</i>
  <i name="SIGMA">      0.05000000</i>
  <i type="logical" name="LWAVE"> F  </i>
  <i type="logical" name="LCHARG"> F  </i>
  <v type="int" name="KPOINT_BSE">    -1     0     0     0</v>
  <i type="int" name="NELM">    40</i>
 </incar>
 <structure name="primitive_cell" >
  <crystal>
   <varray name="basis" >
    <v>       1.78680254       1.78680254      -0.00000000 </v>
    <v>       1.78680254       0.00000000      -1.78680254 </v>
    <v>       0.00000000       1.78680254      -1.78680254 </v>
   </varray>
   <i name="volume">     11.40931776 </i>
   <varray name="rec_basis" >
    <v>       0.27982947       0.27982947       0.27982947 </v>
    <v>       0.27982947      -0.27982947      -0.27982947 </v>
    <v>      -0.27982947       0.27982947      -0.27982947 </v>
   </varray>
  </crystal>
  <varray name="positions" >
   <v>      -0.25000000      -0.25000000      -0.25000000 </v>
   <v>       0.00000000       0.00000000       0.00000000 </v>
  </varray>
 </structure>
 <varray name="primitive_index" >
  <v type="int" >        1 </v>
  <v type="int" >        2 </v>
 </varray>
 <kpoints>
  <generation param="Monkhorst-Pack">
   <v type="int" name="divisions">      14       14       14 </v>
   <v name="usershift">      0.00000000       0.00000000       0.00000000 </v>
   <v name="genvec1">      0.07142857       0.00000000       0.00000000 </v>
   <v name="genvec2">      0.00000000       0.07142857       0.00000000 </v>
   <v name="genvec3">      0.00000000       0.00000000       0.07142857 </v>
   <v name="shift">      0.50000000       0.50000000       0.50000000 </v>
  </generation>
  <varray name="kpointlist" >
   <v>       0.03571429       0.03571429       0.03571429 </v>
   <v>       0.10714286       0.03571429       0.03571429 </v>
   <v>       0.17857143       0.03571429       0.03571429 </v>
   <v>       0.25000000       0.03571429       0.03571429 </v>
   <v>       0.32142857       0.03571429       0.03571429 </v>
   <v>       0.39285714       0.03571429       0.03571429 </v>
   <v>       0.46428571       0.03571429       0.03571429 </v>
   <v>       0.10714286       0.10714286       0.03571429 </v>
   <v>       0.17857143       0.10714286       0.03571429 </v>
   <v>       0.25000000       0.10714286       0.03571429 </v>
   <v>       0.32142857       0.10714286       0.03571429 </v>
   <v>       0.39285714       0.10714286       0.03571429 </v>
   <v>       0.46428571       0.10714286       0.03571429 </v>
   <v>       0.17857143       0.17857143       0.03571429 </v>
   <v>       0.25000000       0.17857143       0.03571429 </v>
   <v>       0.32142857       0.17857143       0.03571429 </v>
   <v>       0.39285714       0.17857143       0.03571429 </v>
   <v>       0.46428571       0.17857143       0.03571429 </v>
   <v>       0.25000000       0.25000000       0.03571429 </v>
   <v>       0.32142857       0.25000000       0.03571429 </v>
   <v>       0.39285714       0.25000000       0.03571429 </v>
   <v>       0.46428571       0.25000000       0.03571429 </v>
   <v>       0.32142857       0.32142857       0.03571429 </v>
   <v>       0.39285714       0.32142857       0.03571429 </v>
   <v>       0.46428571       0.32142857       0.03571429 </v>
   <v>       0.39285714       0.39285714       0.03571429 </v>
   <v>       0.46428571       0.39285714       0.03571429 </v>
   <v>       0.46428571       0.46428571       0.03571429 </v>
   <v>       0.10714286       0.10714286       0.10714286 </v>
   <v>       0.17857143       0.10714286       0.10714286 </v>
   <v>       0.25000000       0.10714286       0.10714286 </v>
   <v>       0.32142857       0.10714286       0.10714286 </v>
   <v>       0.39285714       0.10714286       0.10714286 </v>
   <v>       0.46428571       0.10714286       0.10714286 </v>
   <v>       0.17857143       0.17857143       0.10714286 </v>
   <v>       0.25000000       0.17857143       0.10714286 </v>
   <v>       0.32142857       0.17857143       0.10714286 </v>
   <v>       0.39285714       0.17857143       0.10714286 </v>
   <v>       0.46428571       0.17857143       0.10714286 </v>
   <v>       0.25000000       0.25000000       0.10714286 </v>
   <v>       0.32142857       0.25000000       0.10714286 </v>
   <v>       0.39285714       0.25000000       0.10714286 </v>
   <v>       0.46428571       0.25000000       0.10714286 </v>
   <v>       0.32142857       0.32142857       0.10714286 </v>
   <v>       0.39285714       0.32142857       0.10714286 </v>
   <v>       0.46428571       0.32142857       0.10714286 </v>
   <v>       0.39285714       0.39285714       0.10714286 </v>
   <v>       0.46428571       0.39285714       0.10714286 </v>
   <v>       0.46428571       0.46428571       0.10714286 </v>
   <v>       0.17857143       0.17857143       0.17857143 </v>
   <v>       0.25000000       0.17857143       0.17857143 </v>
   <v>       0.32142857       0.17857143       0.17857143 </v>
   <v>       0.39285714       0.17857143       0.17857143 </v>
   <v>       0.46428571       0.17857143       0.17857143 </v>
   <v>       0.25000000       0.25000000       0.17857143 </v>
   <v>       0.32142857       0.25000000       0.17857143 </v>
   <v>       0.39285714       0.25000000       0.17857143 </v>
   <v>       0.46428571       0.25000000       0.17857143 </v>
   <v>       0.32142857       0.32142857       0.17857143 </v>
   <v>       0.39285714       0.32142857       0.17857143 </v>
   <v>       0.46428571       0.32142857       0.17857143 </v>
   <v>       0.39285714       0.39285714       0.17857143 </v>
   <v>       0.46428571       0.39285714       0.17857143 </v>
   <v>       0.46428571       0.46428571       0.17857143 </v>
   <v>       0.25000000       0.25000000       0.25000000 </v>
   <v>       0.32142857       0.25000000       0.25000000 </v>
   <v>       0.39285714       0.25000000       0.25000000 </v>
   <v>       0.46428571       0.25000000       0.25000000 </v>
   <v>       0.32142857       0.32142857       0.25000000 </v>
   <v>       0.39285714       0.32142857       0.25000000 </v>
   <v>       0.46428571       0.32142857       0.25000000 </v>
   <v>       0.39285714       0.39285714       0.25000000 </v>
   <v>       0.46428571       0.39285714       0.25000000 </v>
   <v>       0.46428571       0.46428571       0.25000000 </v>
   <v>       0.32142857       0.32142857       0.32142857 </v>
   <v>       0.39285714       0.32142857       0.32142857 </v>
   <v>       0.46428571       0.32142857       0.32142857 </v>
   <v>       0.39285714       0.39285714       0.32142857 </v>
   <v>       0.46428571       0.39285714       0.32142857 </v>
   <v>       0.46428571       0.46428571       0.32142857 </v>
   <v>       0.39285714       0.39285714       0.39285714 </v>
   <v>       0.46428571       0.39285714       0.39285714 </v>
   <v>       0.46428571       0.46428571       0.39285714 </v>
   <v>       0.46428571       0.46428571       0.46428571 </v>
  </varray>
  <varray name="weights" >
   <v>       0.00291545 </v>
   <v>       0.00874636 </v>
   <v>       0.00874636 </v>
   <v>       0.00874636 </v>
   <v>       0.00874636 </v>
   <v>       0.00874636 </v>
   <v>       0.00874636 </v>
   <v>       0.00874636 </v>
   <v>       0.01749271 </v>
   <v>       0.01749271 </v>
   <v>       0.01749271 </v>
   <v>       0.01749271 </v>
   <v>       0.01749271 </v>
   <v>       0.00874636 </v>
   <v>       0.01749271 </v>
   <v>       0.01749271 </v>
   <v>       0.01749271 </v>
   <v>       0.01749271 </v>
   <v>       0.00874636 </v>
   <v>       0.01749271 </v>
   <v>       0.01749271 </v>
   <v>       0.01749271 </v>
   <v>       0.00874636 </v>
   <v>       0.01749271 </v>
   <v>       0.01749271 </v>
   <v>       0.00874636 </v>
   <v>       0.01749271 </v>
   <v>       0.00874636 </v>
   <v>       0.00291545 </v>
   <v>       0.00874636 </v>
   <v>       0.00874636 </v>
   <v>       0.00874636 </v>
   <v>       0.00874636 </v>
   <v>       0.00874636 </v>
   <v>       0.00874636 </v>
   <v>       0.01749271 </v>
   <v>       0.01749271 </v>
   <v>       0.01749271 </v>
   <v>       0.01749271 </v>
   <v>       0.00874636 </v>
   <v>       0.01749271 </v>
   <v>       0.01749271 </v>
   <v>       0.01749271 </v>
   <v>       0.00874636 </v>
   <v>       0.01749271 </v>
   <v>       0.01749271 </v>
   <v>       0.00874636 </v>
   <v>       0.01749271 </v>
   <v>       0.00874636 </v>
   <v>       0.00291545 </v>
   <v>       0.00874636 </v>
   <v>       0.00874636 </v>
   <v>       0.00874636 </v>
   <v>       0.00874636 </v>
   <v>       0.00874636 </v>
   <v>       0.01749271 </v>
   <v>       0.01749271 </v>
   <v>       0.01749271 </v>
   <v>       0.00874636 </v>
   <v>       0.01749271 </v>
   <v>       0.01749271 </v>
   <v>       0.00874636 </v>
   <v>       0.01749271 </v>
   <v>       0.00874636 </v>
   <v>       0.00291545 </v>
   <v>       0.00874636 </v>
   <v>       0.00874636 </v>
   <v>       0.00874636 </v>
   <v>       0.00874636 </v>
   <v>       0.01749271 </v>
   <v>       0.01749271 </v>
   <v>       0.00874636 </v>
   <v>       0.01749271 </v>
   <v>       0.00874636 </v>
   <v>       0.00291545 </v>
   <v>       0.00874636 </v>
   <v>       0.00874636 </v>
   <v>       0.00874636 </v>
   <v>       0.01749271 </v>
   <v>       0.00874636 </v>
   <v>       0.00291545 </v>
   <v>       0.00874636 </v>
   <v>       0.00874636 </v>
   <v>       0.00291545 </v>
  </varray>
 </kpoints>
 <parameters>
  <separator name="general" >
   <i type="string" name="SYSTEM">unknown system</i>
   <i type="logical" name="LCOMPAT"> F  </i>
  </separator>
  <separator name="electronic" >
   <i type="string" name="PREC">high</i>
   <i name="ENMAX">    875.00000000</i>
   <i name="ENAUG">    946.76800000</i>
   <i name="EDIFF">      0.00000001</i>
   <i type="int" name="IALGO">    38</i>
   <i type="int" name="IWAVPR">    11</i>
   <i type="int" name="NBANDS">    24</i>
   <i name="NELECT">     32.00000000</i>
   <i type="int" name="TURBO">     0</i>
   <i type="int" name="IRESTART">     0</i>
   <i type="int" name="NREBOOT">     0</i>
   <i type="int" name="NMIN">     0</i>
   <i name="EREF">      0.00000000</i>
   <separator name="electronic smearing" >
    <i type="int" name="ISMEAR">     0</i>
    <i name="SIGMA">      0.05000000</i>
    <i name="KSPACING">      0.50000000</i>
    <i type="logical" name="KGAMMA"> T  </i>
   </separator>
   <separator name="electronic projectors" >
    <i type="logical" name="LREAL"> F  </i>
    <v name="ROPT">      0.00000000</v>
    <i type="int" name="LMAXPAW">  -100</i>
    <i type="int" name="LMAXMIX">     2</i>
    <i type="logical" name="NLSPLINE"> F  </i>
   </separator>
   <separator name="electronic startup" >
    <i type="int" name="ISTART">     0</i>
    <i type="int" name="ICHARG">     2</i>
    <i type="int" name="INIWAV">     1</i>
   </separator>
   <separator name="electronic spin" >
    <i type="int" name="ISPIN">     1</i>
    <i type="logical" name="LNONCOLLINEAR"> F  </i>
    <v name="MAGMOM">      1.00000000      1.00000000      1.00000000      1.00000000      1.00000000      1.00000000      1.00000000      1.00000000</v>
    <i name="NUPDOWN">     -1.00000000</i>
    <i type="logical" name="LSORBIT"> F  </i>
    <v name="SAXIS">      0.00000000      0.00000000      1.00000000</v>
    <i type="logical" name="LSPIRAL"> F  </i>
    <v name="QSPIRAL">      0.00000000      0.00000000      0.00000000</v>
    <i type="logical" name="LZEROZ"> F  </i>
   </separator>
   <separator name="electronic exchange-correlation" >
    <i type="logical" name="LASPH"> F  </i>
    <i type="logical" name="LMETAGGA"> F  </i>
   </separator>
   <separator name="electronic convergence" >
    <i type="int" name="NELM">    40</i>
    <i type="int" name="NELMDL">    -5</i>
    <i type="int" name="NELMIN">     4</i>
    <i name="ENINI">    875.00000000</i>
    <separator name="electronic convergence detail" >
     <i type="logical" name="LDIAG"> T  </i>
     <i type="logical" name="LSUBROT"> F  </i>
     <i name="WEIMIN">      0.00100000</i>
     <i name="EBREAK">      0.00000000</i>
     <i name="DEPER">      0.30000000</i>
     <i type="int" name="NRMM">     4</i>
     <i name="TIME">      0.40000000</i>
    </separator>
   </separator>
   <separator name="electronic mixer" >
    <i name="AMIX">      0.40000000</i>
    <i name="BMIX">      1.00000000</i>
    <i name="AMIN">      0.10000000</i>
    <i name="AMIX_MAG">      1.60000000</i>
    <i name="BMIX_MAG">      1.00000000</i>
    <separator name="electronic mixer details" >
     <i type="int" name="IMIX">     4</i>
     <i type="logical" name="MIXFIRST"> F  </i>
     <i type="int" name="MAXMIX">   -45</i>
     <i name="WC">    100.00000000</i>
     <i type="int" name="INIMIX">     1</i>
     <i type="int" name="MIXPRE">     1</i>
     <i type="int" name="MREMOVE">     5</i>
    </separator>
   </separator>
   <separator name="electronic dipolcorrection" >
    <i type="logical" name="LDIPOL"> F  </i>
    <i type="logical" name="LMONO"> F  </i>
    <i type="int" name="IDIPOL">     0</i>
    <i name="EPSILON">      1.00000000</i>
    <v name="DIPOL">   -100.00000000   -100.00000000   -100.00000000</v>
    <i name="EFIELD">      0.00000000</i>
   </separator>
  </separator>
  <separator name="grids" >
   <i type="int" name="NGX">    36</i>
   <i type="int" name="NGY">    36</i>
   <i type="int" name="NGZ">    36</i>
   <i type="int" name="NGXF">    48</i>
   <i type="int" name="NGYF">    48</i>
   <i type="int" name="NGZF">    48</i>
   <i type="logical" name="ADDGRID"> T  </i>
  </separator>
  <separator name="ionic" >
   <i type="int" name="NSW">   100</i>
   <i type="int" name="IBRION">     2</i>
   <i type="int" name="MDALGO">     0</i>
   <i type="int" name="ISIF">     2</i>
   <i name="PSTRESS">      0.00000000</i>
   <i name="EDIFFG">     -0.01000000</i>
   <i type="int" name="NFREE">     1</i>
   <i name="POTIM">      0.50000000</i>
   <i name="SMASS">     -3.00000000</i>
   <i name="SCALEE">      1.00000000</i>
  </separator>
  <separator name="ionic md" >
   <i name="TEBEG">      0.00010000</i>
   <i name="TEEND">      0.00010000</i>
   <i type="int" name="NBLOCK">     1</i>
   <i type="int" name="KBLOCK">   100</i>
   <i type="int" name="NPACO">   256</i>
   <i name="APACO">     16.00000000</i>
  </separator>
  <separator name="symmetry" >
   <i type="int" name="ISYM">     2</i>
   <i name="SYMPREC">      0.00001000</i>
  </separator>
  <separator name="dos" >
   <i type="int" name="LORBIT">     0</i>
   <v name="RWIGS">     -1.00000000</v>
   <i type="int" name="NEDOS">   301</i>
   <i name="EMIN">     10.00000000</i>
   <i name="EMAX">    -10.00000000</i>
   <i name="EFERMI">      0.00000000</i>
  </separator>
  <separator name="writing" >
   <i type="int" name="NWRITE">     2</i>
   <i type="logical" name="LWAVE"> F  </i>
   <i type="logical" name="LDOWNSAMPLE"> F  </i>
   <i type="logical" name="LCHARG"> F  </i>
   <i type="logical" name="LPARD"> F  </i>
   <i type="logical" name="LVTOT"> F  </i>
   <i type="logical" name="LVHAR"> F  </i>
   <i type="logical" name="LELF"> F  </i>
   <i type="logical" name="LOPTICS"> F  </i>
   <v name="STM">      0.00000000      0.00000000      0.00000000      0.00000000      0.00000000      0.00000000      0.00000000</v>
  </separator>
  <separator name="performance" >
   <i type="int" name="NPAR">    24</i>
   <i type="int" name="NSIM">     4</i>
   <i type="int" name="NBLK">    -1</i>
   <i type="logical" name="LPLANE"> T  </i>
   <i type="logical" name="LSCALAPACK"> T  </i>
   <i type="logical" name="LSCAAWARE"> F  </i>
   <i type="logical" name="LSCALU"> F  </i>
   <i type="logical" name="LASYNC"> F  </i>
   <i type="logical" name="LORBITALREAL"> F  </i>
  </separator>
  <separator name="miscellaneous" >
   <i type="int" name="IDIOT">     3</i>
   <i type="int" name="ISPECIAL">     0</i>
   <i type="logical" name="LMUSIC"> F  </i>
   <v name="POMASS">     12.01100000</v>
   <v name="DARWINR">      0.00000000</v>
   <v name="DARWINV">      1.00000000</v>
   <i type="logical" name="LCORR"> T  </i>
  </separator>
  <i type="logical" name="GGA_COMPAT"> T  </i>
  <i type="logical" name="LBERRY"> F  </i>
  <i type="int" name="ICORELEVEL">     0</i>
  <i type="logical" name="LDAU"> F  </i>
  <i type="int" name="I_CONSTRAINED_M">     0</i>
  <separator name="electronic exchange-correlation" >
   <i type="string" name="GGA">--</i>
   <i type="int" name="VOSKOWN">     0</i>
   <i type="logical" name="LHFCALC"> F  </i>
   <i type="string" name="PRECFOCK"></i>
   <i type="logical" name="LSYMGRAD"> F  </i>
   <i type="logical" name="LHFONE"> F  </i>
   <i type="logical" name="LRHFCALC"> F  </i>
   <i type="logical" name="LTHOMAS"> F  </i>
   <i type="logical" name="LMODELHF"> F  </i>
   <i name="ENCUT4O">     -1.00000000</i>
   <i type="int" name="EXXOEP">     0</i>
   <i type="int" name="FOURORBIT">     0</i>
   <i name="AEXX">      0.00000000</i>
   <i name="HFALPHA">      0.00000000</i>
   <i name="MCALPHA">      0.00000000</i>
   <i name="ALDAX">      1.00000000</i>
   <i name="AGGAX">      1.00000000</i>
   <i name="ALDAC">      1.00000000</i>
   <i name="AGGAC">      1.00000000</i>
   <i type="int" name="NKREDX">     1</i>
   <i type="int" name="NKREDY">     1</i>
   <i type="int" name="NKREDZ">     1</i>
   <i type="logical" name="SHIFTRED"> F  </i>
   <i type="logical" name="ODDONLY"> F  </i>
   <i type="logical" name="EVENONLY"> F  </i>
   <i type="int" name="LMAXFOCK">     0</i>
   <i type="int" name="NMAXFOCKAE">     0</i>
   <i type="logical" name="LFOCKAEDFT"> F  </i>
   <i name="HFSCREEN">      0.00000000</i>
   <i name="HFSCREENC">      0.00000000</i>
   <i type="int" name="NBANDSGWLOW">     0</i>
  </separator>
  <separator name="vdW DFT" >
   <i type="logical" name="LUSE_VDW"> F  </i>
   <i name="Zab_VDW">     -0.84910000</i>
   <i name="PARAM1">      0.12340000</i>
   <i name="PARAM2">      1.00000000</i>
   <i name="PARAM3">      0.00000000</i>
  </separator>
  <separator name="model GW" >
   <i type="int" name="MODEL_GW">     0</i>
   <i name="MODEL_EPS0">      3.42279533</i>
   <i name="MODEL_ALPHA">      1.00000000</i>
  </separator>
  <separator name="linear response parameters" >
   <i type="logical" name="LEPSILON"> F  </i>
   <i type="logical" name="LRPA"> F  </i>
   <i type="logical" name="LNABLA"> F  </i>
   <i type="logical" name="LVEL"> F  </i>
   <i type="int" name="KINTER">     0</i>
   <i name="CSHIFT">      0.10000000</i>
   <i name="OMEGAMAX">     -1.00000000</i>
   <i name="DEG_THRESHOLD">      0.00200000</i>
   <i name="RTIME">     -0.10000000</i>
   <i name="WPLASMAI">      0.00000000</i>
   <v name="DFIELD">      0.00000000      0.00000000      0.00000000</v>
   <v name="WPLASMA">      0.00000000      0.00000000      0.00000000      0.00000000      0.00000000      0.00000000      0.00000000      0.00000000      0.00000000</v>
  </separator>
  <separator name="orbital magnetization" >
   <i type="logical" name="NUCIND"> F  </i>
   <v name="MAGPOS">      0.00000000      0.00000000      0.00000000</v>
   <i type="logical" name="LNICSALL"> T  </i>
   <i type="logical" name="ORBITALMAG"> F  </i>
   <i type="logical" name="LMAGBLOCH"> F  </i>
   <i type="logical" name="LCHIMAG"> F  </i>
   <i type="logical" name="LGAUGE"> T  </i>
   <i type="int" name="MAGATOM">     0</i>
   <v name="MAGDIPOL">      0.00000000      0.00000000      0.00000000</v>
   <v name="AVECCONST">      0.00000000      0.00000000      0.00000000</v>
  </separator>
  <separator name="response functions" >
   <i type="logical" name="LADDER"> F  </i>
   <i type="logical" name="LRPAFORCE"> F  </i>
   <i type="logical" name="LFXC"> F  </i>
   <i type="logical" name="LHARTREE"> T  </i>
   <i type="int" name="IBSE">     0</i>
   <v type="int" name="KPOINT">    -1     0     0     0</v>
   <i type="logical" name="LTCTE"> F  </i>
   <i type="logical" name="LTETE"> F  </i>
   <i type="logical" name="LTRIPLET"> F  </i>
   <i type="logical" name="LFXCEPS"> F  </i>
   <i type="logical" name="LFXHEG"> F  </i>
   <i type="int" name="NATURALO">     2</i>
   <i type="logical" name="L2ORDER"> F  </i>
   <i type="logical" name="LMP2LT"> F  </i>
   <i type="logical" name="LUSEW"> F  </i>
   <i name="ENCUTGW">     -2.00000000</i>
   <i name="ENCUTGWSOFT">     -2.00000000</i>
   <i name="ENCUTLF">     -1.00000000</i>
   <i type="int" name="LMAXMP2">    -1</i>
   <i name="SCISSOR">      0.00000000</i>
   <i type="int" name="NOMEGA">     0</i>
   <i type="int" name="NOMEGAR">     0</i>
   <i type="int" name="NBANDSGW">    -1</i>
   <i type="int" name="NBANDSO">    -1</i>
   <i type="int" name="NBANDSV">    -1</i>
   <i type="int" name="NELM">    40</i>
   <i type="int" name="NELMHF">     1</i>
   <i type="int" name="DIM">     3</i>
   <i type="int" name="ANTIRES">     0</i>
   <i name="OMEGAMAX">    -30.00000000</i>
   <i name="OMEGAMIN">    -30.00000000</i>
   <i name="OMEGATL">   -200.00000000</i>
   <i type="int" name="OMEGAGRID">   140</i>
   <i name="CSHIFT">     -0.10000000</i>
   <i type="logical" name="SELFENERGY"> F  </i>
   <i type="logical" name="LSPECTRAL"> F  </i>
   <i type="logical" name="LSPECTRALGW"> F  </i>
   <i type="logical" name="LSINGLES"> F  </i>
   <i type="logical" name="LFERMIGW"> F  </i>
   <i type="logical" name="ODDONLYGW"> F  </i>
   <i type="logical" name="EVENONLYGW"> F  </i>
   <i type="int" name="NKREDLFX">     1</i>
   <i type="int" name="NKREDLFY">     1</i>
   <i type="int" name="NKREDLFZ">     1</i>
   <i type="int" name="MAXMEM">  2800</i>
   <i type="int" name="TELESCOPE">     0</i>
   <i type="int" name="TAUPAR">     1</i>
   <i type="int" name="OMEGAPAR">    -1</i>
   <i name="LAMBDA">      1.00000000</i>
  </separator>
  <separator name="External order field" >
   <i name="OFIELD_KAPPA">      0.00000000</i>
   <v name="OFIELD_K">      0.00000000      0.00000000      0.00000000</v>
   <i name="OFIELD_Q6_NEAR">      0.00000000</i>
   <i name="OFIELD_Q6_FAR">      0.00000000</i>
   <i name="OFIELD_A">      0.00000000</i>
  </separator>
 </parameters>
 <atominfo>
  <atoms>       8 </atoms>
  <types>       1 </types>
  <array name="atoms" >
   <dimension dim="1">ion</dimension>
   <field type="string">element</field>
   <field type="int">atomtype</field>
   <set>
    <rc><c>C </c><c>   1</c></rc>
    <rc><c>C </c><c>   1</c></rc>
    <rc><c>C </c><c>   1</c></rc>
    <rc><c>C </c><c>   1</c></rc>
    <rc><c>C </c><c>   1</c></rc>
    <rc><c>C </c><c>   1</c></rc>
    <rc><c>C </c><c>   1</c></rc>
    <rc><c>C </c><c>   1</c></rc>
   </set>
  </array>
  <array name="atomtypes" >
   <dimension dim="1">type</dimension>
   <field type="int">atomspertype</field>
   <field type="string">element</field>
   <field>mass</field>
   <field>valence</field>
   <field type="string">pseudopotential</field>
   <set>
    <rc><c>   8</c><c>C </c><c>     12.01100000</c><c>      4.00000000</c><c>  PAW_PBE C_h 06Feb2004                 </c></rc>
   </set>
  </array>
 </atominfo>
 <structure name="initialpos" >
  <crystal>
   <varray name="basis" >
    <v>       3.57360507       0.00000000       0.00000000 </v>
    <v>       0.00000000       3.57360507       0.00000000 </v>
    <v>       0.00000000       0.00000000       3.57360507 </v>
   </varray>
   <i name="volume">     45.63727105 </i>
   <varray name="rec_basis" >
    <v>       0.27982947       0.00000000       0.00000000 </v>
    <v>       0.00000000       0.27982947       0.00000000 </v>
    <v>       0.00000000       0.00000000       0.27982947 </v>
   </varray>
  </crystal>
  <varray name="positions" >
   <v>       0.25000000       0.25000000       0.25000000 </v>
   <v>       0.00000000       0.00000000       0.00000000 </v>
   <v>       0.25000000       0.75000000       0.75000000 </v>
   <v>       0.00000000       0.50000000       0.50000000 </v>
   <v>       0.75000000       0.25000000       0.75000000 </v>
   <v>       0.50000000       0.00000000       0.50000000 </v>
   <v>       0.75000000       0.75000000       0.25000000 </v>
   <v>       0.50000000       0.50000000       0.00000000 </v>
  </varray>
 </structure>
 <calculation>
  <scstep>
   <time name="dav">    1.36    2.29</time>
   <time name="total">    1.47    2.57</time>
   <energy>
    <i name="alphaZ">     76.87855859 </i>
    <i name="ewald">  -1389.18538594 </i>
    <i name="hartreedc">    -70.48055929 </i>
    <i name="XCdc">     62.04312116 </i>
    <i name="pawpsdc">    914.77613359 </i>
    <i name="pawaedc">   -872.73161751 </i>
    <i name="eentropy">     -0.00129050 </i>
    <i name="bandstr">    202.96315068 </i>
    <i name="atom">   1177.21277265 </i>
    <i name="e_fr_energy">    101.47488344 </i>
    <i name="e_wo_entrp">    101.47617394 </i>
    <i name="e_0_energy">    101.47552869 </i>
   </energy>
  </scstep>
  <scstep>
   <time name="dav">    2.30    2.40</time>
   <time name="total">    2.30    2.40</time>
   <energy>
    <i name="e_fr_energy">    -72.48341941 </i>
    <i name="e_wo_entrp">    -72.48341941 </i>
    <i name="e_0_energy">    -72.48341941 </i>
   </energy>
  </scstep>
  <scstep>
   <time name="dav">    1.72    1.74</time>
   <time name="total">    1.72    1.74</time>
   <energy>
    <i name="e_fr_energy">    -75.26632543 </i>
    <i name="e_wo_entrp">    -75.26632543 </i>
    <i name="e_0_energy">    -75.26632543 </i>
   </energy>
  </scstep>
  <scstep>
   <time name="dav">    2.75    2.77</time>
   <time name="total">    2.75    2.77</time>
   <energy>
    <i name="e_fr_energy">    -75.28342569 </i>
    <i name="e_wo_entrp">    -75.28342569 </i>
    <i name="e_0_energy">    -75.28342569 </i>
   </energy>
  </scstep>
  <scstep>
   <time name="dav">    1.70    1.71</time>
   <time name="total">    1.78    2.29</time>
   <energy>
    <i name="e_fr_energy">    -75.28342859 </i>
    <i name="e_wo_entrp">    -75.28342859 </i>
    <i name="e_0_energy">    -75.28342859 </i>
   </energy>
  </scstep>
  <scstep>
   <time name="dav">    1.63    1.64</time>
   <time name="total">    1.72    1.89</time>
   <energy>
    <i name="e_fr_energy">    -73.45772889 </i>
    <i name="e_wo_entrp">    -73.45772889 </i>
    <i name="e_0_energy">    -73.45772889 </i>
   </energy>
  </scstep>
  <scstep>
   <time name="dav">    2.01    2.01</time>
   <time name="total">    2.09    2.18</time>
   <energy>
    <i name="e_fr_energy">    -72.84640416 </i>
    <i name="e_wo_entrp">    -72.84640416 </i>
    <i name="e_0_energy">    -72.84640416 </i>
   </energy>
  </scstep>
  <scstep>
   <time name="dav">    2.50    2.50</time>
   <time name="total">    2.58    2.63</time>
   <energy>
    <i name="e_fr_energy">    -72.84480433 </i>
    <i name="e_wo_entrp">    -72.84480433 </i>
    <i name="e_0_energy">    -72.84480433 </i>
   </energy>
  </scstep>
  <scstep>
   <time name="dav">    2.00    2.00</time>
   <time name="total">    2.08    2.10</time>
   <energy>
    <i name="e_fr_energy">    -72.84498113 </i>
    <i name="e_wo_entrp">    -72.84498113 </i>
    <i name="e_0_energy">    -72.84498113 </i>
   </energy>
  </scstep>
  <scstep>
   <time name="dav">    2.40    2.41</time>
   <time name="total">    2.49    2.51</time>
   <energy>
    <i name="e_fr_energy">    -72.84510460 </i>
    <i name="e_wo_entrp">    -72.84510460 </i>
    <i name="e_0_energy">    -72.84510460 </i>
   </energy>
  </scstep>
  <scstep>
   <time name="dav">    2.30    2.31</time>
   <time name="total">    2.39    2.41</time>
   <energy>
    <i name="e_fr_energy">    -72.84510570 </i>
    <i name="e_wo_entrp">    -72.84510570 </i>
    <i name="e_0_energy">    -72.84510570 </i>
   </energy>
  </scstep>
  <scstep>
   <time name="dav">    2.29    2.29</time>
   <time name="total">    2.37    2.39</time>
   <energy>
    <i name="e_fr_energy">    -72.84510605 </i>
    <i name="e_wo_entrp">    -72.84510605 </i>
    <i name="e_0_energy">    -72.84510605 </i>
   </energy>
  </scstep>
  <scstep>
   <time name="dav">    2.29    2.30</time>
   <time name="total">    2.30    2.31</time>
   <energy>
    <i name="alphaZ">     76.87855859 </i>
    <i name="ewald">  -1389.18538594 </i>
    <i name="hartreedc">   -105.58027988 </i>
    <i name="XCdc">     65.06706506 </i>
    <i name="pawpsdc">  14455.09534960 </i>
    <i name="pawaedc"> -14413.56617187 </i>
    <i name="eentropy">     -0.00000000 </i>
    <i name="bandstr">     61.23298573 </i>
    <i name="atom">   1177.21277265 </i>
    <i name="e_fr_energy">    -72.84510606 </i>
    <i name="e_wo_entrp">    -72.84510606 </i>
    <i name="e_0_energy">    -72.84510606 </i>
   </energy>
  </scstep>
  <structure>
   <crystal>
    <varray name="basis" >
     <v>       3.57360507       0.00000000       0.00000000 </v>
     <v>       0.00000000       3.57360507       0.00000000 </v>
     <v>       0.00000000       0.00000000       3.57360507 </v>
    </varray>
    <i name="volume">     45.63727105 </i>
    <varray name="rec_basis" >
     <v>       0.27982947       0.00000000       0.00000000 </v>
     <v>       0.00000000       0.27982947       0.00000000 </v>
     <v>       0.00000000       0.00000000       0.27982947 </v>
    </varray>
   </crystal>
   <varray name="positions" >
    <v>       0.25000000       0.25000000       0.25000000 </v>
    <v>       0.00000000       0.00000000       0.00000000 </v>
    <v>       0.25000000       0.75000000       0.75000000 </v>
    <v>       0.00000000       0.50000000       0.50000000 </v>
    <v>       0.75000000       0.25000000       0.75000000 </v>
    <v>       0.50000000       0.00000000       0.50000000 </v>
    <v>       0.75000000       0.75000000       0.25000000 </v>
    <v>       0.50000000       0.50000000       0.00000000 </v>
   </varray>
  </structure>
  <varray name="forces" >
   <v>      -0.00000000       0.00000000      -0.00000000 </v>
   <v>       0.00000000      -0.00000000      -0.00000000 </v>
   <v>       0.00000000      -0.00000000       0.00000000 </v>
   <v>      -0.00000000       0.00000000      -0.00000000 </v>
   <v>       0.00000000      -0.00000000       0.00000000 </v>
   <v>      -0.00000000       0.00000000      -0.00000000 </v>
   <v>      -0.00000000       0.00000000       0.00000000 </v>
   <v>       0.00000000      -0.00000000       0.00000000 </v>
  </varray>
  <varray name="stress" >
   <v>     -13.67611549       0.00000000       0.00000000 </v>
   <v>       0.00000000     -13.67611549      -0.00000000 </v>
   <v>      -0.00000000      -0.00000000     -13.67611549 </v>
  </varray>
  <energy>
   <i name="e_fr_energy">    -72.84510606 </i>
   <i name="e_wo_entrp">    -72.84510606 </i>
   <i name="e_0_energy">     -0.00000000 </i>
  </energy>
  <time name="totalsc">   29.64   32.80</time>
  <eigenvalues>
   <array>
    <dimension dim="1">band</dimension>
    <dimension dim="2">kpoint</dimension>
    <dimension dim="3">spin</dimension>
    <field>eigene</field>
    <field>occ</field>
    <set>
     <set comment="spin 1">
      <set comment="kpoint 1">
       <r>  -10.5106    1.0000 </r>
       <r>   -2.4188    1.0000 </r>
       <r>   -2.4188    1.0000 </r>
       <r>   -2.4188    1.0000 </r>
       <r>   -1.2838    1.0000 </r>
       <r>   -1.2838    1.0000 </r>
       <r>   -1.2838    1.0000 </r>
       <r>    4.4768    1.0000 </r>
       <r>    4.4768    1.0000 </r>
       <r>    4.4768    1.0000 </r>
       <r>    4.6199    1.0000 </r>
       <r>    4.6199    1.0000 </r>
       <r>    4.6199    1.0000 </r>
       <r>   10.5967    1.0000 </r>
       <r>   10.7866    1.0000 </r>
       <r>   10.7866    1.0000 </r>
       <r>   15.5224    0.0000 </r>
       <r>   15.5224    0.0000 </r>
       <r>   15.5224    0.0000 </r>
       <r>   15.9048    0.0000 </r>
       <r>   15.9048    0.0000 </r>
       <r>   15.9048    0.0000 </r>
       <r>   16.5189    0.0000 </r>
       <r>   16.5191    0.0000 </r>
      </set>
      <set comment="kpoint 2">
       <r>  -10.4168    1.0000 </r>
       <r>   -3.5049    1.0000 </r>
       <r>   -2.3544    1.0000 </r>
       <r>   -2.3544    1.0000 </r>
       <r>   -1.2324    1.0000 </r>
       <r>   -1.2324    1.0000 </r>
       <r>   -0.1125    1.0000 </r>
       <r>    4.1524    1.0000 </r>
       <r>    4.1524    1.0000 </r>
       <r>    4.5557    1.0000 </r>
       <r>    4.5557    1.0000 </r>
       <r>    4.5713    1.0000 </r>
       <r>    4.7112    1.0000 </r>
       <r>   10.1447    1.0000 </r>
       <r>   10.4258    1.0000 </r>
       <r>   10.6710    1.0000 </r>
       <r>   15.2881    0.0000 </r>
       <r>   15.8087    0.0000 </r>
       <r>   15.8087    0.0000 </r>
       <r>   16.3573    0.0000 </r>
       <r>   16.3666    0.0000 </r>
       <r>   16.3666    0.0000 </r>
       <r>   16.4498    0.0000 </r>
       <r>   16.9584    0.0000 </r>
      </set>
      <set comment="kpoint 3">
       <r>  -10.2294    1.0000 </r>
       <r>   -4.5324    1.0000 </r>
       <r>   -2.2303    1.0000 </r>
       <r>   -2.2303    1.0000 </r>
       <r>   -1.1365    1.0000 </r>
       <r>   -1.1365    1.0000 </r>
       <r>    1.0801    1.0000 </r>
       <r>    3.7120    1.0000 </r>
       <r>    3.7120    1.0000 </r>
       <r>    4.3126    1.0000 </r>
       <r>    4.3126    1.0000 </r>
       <r>    4.7608    1.0000 </r>
       <r>    4.8929    1.0000 </r>
       <r>    9.5139    1.0000 </r>
       <r>    9.8341    1.0000 </r>
       <r>   10.2952    1.0000 </r>
       <r>   15.1405    0.0000 </r>
       <r>   16.3118    0.0000 </r>
       <r>   16.4167    0.0000 </r>
       <r>   16.4167    0.0000 </r>
       <r>   16.9410    0.0000 </r>
       <r>   17.1614    0.0000 </r>
       <r>   17.1614    0.0000 </r>
       <r>   17.7066    0.0000 </r>
      </set>
      <set comment="kpoint 4">
       <r>   -9.9490    1.0000 </r>
       <r>   -5.4931    1.0000 </r>
       <r>   -2.0570    1.0000 </r>
       <r>   -2.0570    1.0000 </r>
       <r>   -1.0112    1.0000 </r>
       <r>   -1.0112    1.0000 </r>
       <r>    2.2758    1.0000 </r>
       <r>    3.2341    1.0000 </r>
       <r>    3.2341    1.0000 </r>
       <r>    3.9577    1.0000 </r>
       <r>    3.9577    1.0000 </r>
       <r>    5.0457    1.0000 </r>
       <r>    5.1637    1.0000 </r>
       <r>    8.7952    1.0000 </r>
       <r>    9.1398    1.0000 </r>
       <r>    9.7163    1.0000 </r>
       <r>   15.0775    0.0000 </r>
       <r>   16.1258    0.0000 </r>
       <r>   17.3025    0.0000 </r>
       <r>   17.3025    0.0000 </r>
       <r>   17.6560    0.0000 </r>
       <r>   18.1891    0.0000 </r>
       <r>   18.1891    0.0000 </r>
       <r>   18.6343    0.0000 </r>
      </set>
      <set comment="kpoint 5">
       <r>   -9.5763    1.0000 </r>
       <r>   -6.3806    1.0000 </r>
       <r>   -1.8547    1.0000 </r>
       <r>   -1.8547    1.0000 </r>
       <r>   -0.8820    1.0000 </r>
       <r>   -0.8820    1.0000 </r>
       <r>    2.7951    1.0000 </r>
       <r>    2.7951    1.0000 </r>
       <r>    3.4521    1.0000 </r>
       <r>    3.5716    1.0000 </r>
       <r>    3.5716    1.0000 </r>
       <r>    5.4292    1.0000 </r>
       <r>    5.5211    1.0000 </r>
       <r>    8.0459    1.0000 </r>
       <r>    8.4218    1.0000 </r>
       <r>    8.9876    1.0000 </r>
       <r>   15.0906    0.0000 </r>
       <r>   15.9123    0.0000 </r>
       <r>   18.3913    0.0000 </r>
       <r>   18.3913    0.0000 </r>
       <r>   18.5046    0.0000 </r>
       <r>   19.3676    0.0000 </r>
       <r>   19.3682    0.0000 </r>
       <r>   19.6502    0.0000 </r>
      </set>
      <set comment="kpoint 6">
       <r>   -9.1124    1.0000 </r>
       <r>   -7.1900    1.0000 </r>
       <r>   -1.6598    1.0000 </r>
       <r>   -1.6598    1.0000 </r>
       <r>   -0.7820    1.0000 </r>
       <r>   -0.7820    1.0000 </r>
       <r>    2.4641    1.0000 </r>
       <r>    2.4641    1.0000 </r>
       <r>    3.2371    1.0000 </r>
       <r>    3.2371    1.0000 </r>
       <r>    4.5786    1.0000 </r>
       <r>    5.9200    1.0000 </r>
       <r>    5.9621    1.0000 </r>
       <r>    7.2881    1.0000 </r>
       <r>    7.7241    1.0000 </r>
       <r>    8.1616    1.0000 </r>
       <r>   15.1703    0.0000 </r>
       <r>   15.6919    0.0000 </r>
       <r>   19.4818    0.0000 </r>
       <r>   19.5980    0.0000 </r>
       <r>   19.5980    0.0000 </r>
       <r>   20.6012    0.0000 </r>
       <r>   20.6540    0.0000 </r>
       <r>   20.7158    0.0000 </r>
      </set>
      <set comment="kpoint 7">
       <r>   -8.5587    1.0000 </r>
       <r>   -7.9170    1.0000 </r>
       <r>   -1.5314    1.0000 </r>
       <r>   -1.5314    1.0000 </r>
       <r>   -0.7338    1.0000 </r>
       <r>   -0.7338    1.0000 </r>
       <r>    2.2902    1.0000 </r>
       <r>    2.2902    1.0000 </r>
       <r>    3.0369    1.0000 </r>
       <r>    3.0369    1.0000 </r>
       <r>    5.6089    1.0000 </r>
       <r>    6.4813    1.0000 </r>
       <r>    6.4999    1.0000 </r>
       <r>    6.5408    1.0000 </r>
       <r>    7.0721    1.0000 </r>
       <r>    7.3098    1.0000 </r>
       <r>   15.3055    0.0000 </r>
       <r>   15.4842    0.0000 </r>
       <r>   20.5658    0.0000 </r>
       <r>   20.7608    0.0000 </r>
       <r>   20.7608    0.0000 </r>
       <r>   21.5738    0.0000 </r>
       <r>   21.5826    0.0000 </r>
       <r>   21.7009    0.0000 </r>
      </set>
      <set comment="kpoint 8">
       <r>  -10.3231    1.0000 </r>
       <r>   -3.4315    1.0000 </r>
       <r>   -3.4315    1.0000 </r>
       <r>   -2.2962    1.0000 </r>
       <r>   -1.1849    1.0000 </r>
       <r>   -0.0827    1.0000 </r>
       <r>   -0.0827    1.0000 </r>
       <r>    3.6324    1.0000 </r>
       <r>    4.2552    1.0000 </r>
       <r>    4.2552    1.0000 </r>
       <r>    4.6515    1.0000 </r>
       <r>    4.6515    1.0000 </r>
       <r>    4.7759    1.0000 </r>
       <r>    9.5958    1.0000 </r>
       <r>   10.1487    1.0000 </r>
       <r>   10.6754    1.0000 </r>
       <r>   15.6339    0.0000 </r>
       <r>   15.6339    0.0000 </r>
       <r>   15.7666    0.0000 </r>
       <r>   16.7018    0.0000 </r>
       <r>   16.7559    0.0000 </r>
       <r>   16.7559    0.0000 </r>
       <r>   17.0687    0.0000 </r>
       <r>   17.0759    0.0000 </r>
      </set>
      <set comment="kpoint 9">
       <r>  -10.1359    1.0000 </r>
       <r>   -4.4530    1.0000 </r>
       <r>   -3.2875    1.0000 </r>
       <r>   -2.1879    1.0000 </r>
       <r>   -1.0966    1.0000 </r>
       <r>   -0.0350    1.0000 </r>
       <r>    1.0748    1.0000 </r>
       <r>    3.0747    1.0000 </r>
       <r>    3.8245    1.0000 </r>
       <r>    4.4265    1.0000 </r>
       <r>    4.4620    1.0000 </r>
       <r>    4.7890    1.0000 </r>
       <r>    4.8446    1.0000 </r>
       <r>    8.9124    1.0000 </r>
       <r>    9.5868    1.0000 </r>
       <r>   10.4592    1.0000 </r>
       <r>   15.5070    0.0000 </r>
       <r>   16.0786    0.0000 </r>
       <r>   16.2959    0.0000 </r>
       <r>   16.6627    0.0000 </r>
       <r>   17.3110    0.0000 </r>
       <r>   17.4886    0.0000 </r>
       <r>   17.7067    0.0000 </r>
       <r>   17.8855    0.0000 </r>
      </set>
      <set comment="kpoint 10">
       <r>   -9.8559    1.0000 </r>
       <r>   -5.4095    1.0000 </r>
       <r>   -3.0791    1.0000 </r>
       <r>   -2.0503    1.0000 </r>
       <r>   -0.9803    1.0000 </r>
       <r>    0.0052    1.0000 </r>
       <r>    2.2118    1.0000 </r>
       <r>    2.5605    1.0000 </r>
       <r>    3.3531    1.0000 </r>
       <r>    4.1132    1.0000 </r>
       <r>    4.6243    1.0000 </r>
       <r>    4.7753    1.0000 </r>
       <r>    5.1410    1.0000 </r>
       <r>    8.1696    1.0000 </r>
       <r>    8.9120    1.0000 </r>
       <r>    9.9989    1.0000 </r>
       <r>   15.4549    0.0000 </r>
       <r>   16.4957    0.0000 </r>
       <r>   16.7333    0.0000 </r>
       <r>   17.2181    0.0000 </r>
       <r>   18.0037    0.0000 </r>
       <r>   18.4661    0.0000 </r>
       <r>   18.6098    0.0000 </r>
       <r>   18.6605    0.0000 </r>
      </set>
      <set comment="kpoint 11">
       <r>   -9.4836    1.0000 </r>
       <r>   -6.2942    1.0000 </r>
       <r>   -2.8179    1.0000 </r>
       <r>   -1.9268    1.0000 </r>
       <r>   -0.8467    1.0000 </r>
       <r>   -0.0008    1.0000 </r>
       <r>    2.1713    1.0000 </r>
       <r>    2.9023    1.0000 </r>
       <r>    3.2893    1.0000 </r>
       <r>    3.8108    1.0000 </r>
       <r>    4.3477    1.0000 </r>
       <r>    5.1927    1.0000 </r>
       <r>    5.5583    1.0000 </r>
       <r>    7.4099    1.0000 </r>
       <r>    8.2061    1.0000 </r>
       <r>    9.3490    1.0000 </r>
       <r>   15.4743    0.0000 </r>
       <r>   16.2911    0.0000 </r>
       <r>   17.6602    0.0000 </r>
       <r>   18.3318    0.0000 </r>
       <r>   18.8309    0.0000 </r>
       <r>   19.5615    0.0000 </r>
       <r>   19.5933    0.0000 </r>
       <r>   19.6277    0.0000 </r>
      </set>
      <set comment="kpoint 12">
       <r>   -9.0203    1.0000 </r>
       <r>   -7.1014    1.0000 </r>
       <r>   -2.5239    1.0000 </r>
       <r>   -1.8903    1.0000 </r>
       <r>   -0.6877    1.0000 </r>
       <r>   -0.0904    1.0000 </r>
       <r>    1.9754    1.0000 </r>
       <r>    2.5082    1.0000 </r>
       <r>    3.6206    1.0000 </r>
       <r>    4.0364    1.0000 </r>
       <r>    4.2637    1.0000 </r>
       <r>    5.6939    1.0000 </r>
       <r>    6.1329    1.0000 </r>
       <r>    6.6536    1.0000 </r>
       <r>    7.5136    1.0000 </r>
       <r>    8.5694    1.0000 </r>
       <r>   15.5572    0.0000 </r>
       <r>   16.0762    0.0000 </r>
       <r>   18.7698    0.0000 </r>
       <r>   19.5579    0.0000 </r>
       <r>   19.7857    0.0000 </r>
       <r>   20.5368    0.0000 </r>
       <r>   20.7022    0.0000 </r>
       <r>   20.7190    0.0000 </r>
      </set>
      <set comment="kpoint 13">
       <r>   -8.4674    1.0000 </r>
       <r>   -7.8269    1.0000 </r>
       <r>   -2.2323    1.0000 </r>
       <r>   -1.9990    1.0000 </r>
       <r>   -0.4862    1.0000 </r>
       <r>   -0.2670    1.0000 </r>
       <r>    1.9951    1.0000 </r>
       <r>    2.1926    1.0000 </r>
       <r>    3.6080    1.0000 </r>
       <r>    3.7659    1.0000 </r>
       <r>    5.1207    1.0000 </r>
       <r>    5.8997    1.0000 </r>
       <r>    6.2512    1.0000 </r>
       <r>    6.8583    1.0000 </r>
       <r>    6.8766    1.0000 </r>
       <r>    7.7204    1.0000 </r>
       <r>   15.6936    0.0000 </r>
       <r>   15.8714    0.0000 </r>
       <r>   19.9424    0.0000 </r>
       <r>   20.6255    0.0000 </r>
       <r>   20.8456    0.0000 </r>
       <r>   21.2738    0.0000 </r>
       <r>   21.5480    0.0000 </r>
       <r>   21.7944    0.0000 </r>
      </set>
      <set comment="kpoint 14">
       <r>   -9.9492    1.0000 </r>
       <r>   -4.2960    1.0000 </r>
       <r>   -4.2960    1.0000 </r>
       <r>   -2.1212    1.0000 </r>
       <r>   -1.0217    1.0000 </r>
       <r>    1.0458    1.0000 </r>
       <r>    1.0458    1.0000 </r>
       <r>    2.4787    1.0000 </r>
       <r>    4.0486    1.0000 </r>
       <r>    4.0486    1.0000 </r>
       <r>    4.6651    1.0000 </r>
       <r>    4.6651    1.0000 </r>
       <r>    5.0824    1.0000 </r>
       <r>    8.2007    1.0000 </r>
       <r>    9.0569    1.0000 </r>
       <r>   10.4421    1.0000 </r>
       <r>   16.0814    0.0000 </r>
       <r>   16.1968    0.0000 </r>
       <r>   16.1968    0.0000 </r>
       <r>   17.0671    0.0000 </r>
       <r>   17.8987    0.0000 </r>
       <r>   17.9999    0.0000 </r>
       <r>   17.9999    0.0000 </r>
       <r>   18.2317    0.0000 </r>
      </set>
      <set comment="kpoint 15">
       <r>   -9.6698    1.0000 </r>
       <r>   -5.2437    1.0000 </r>
       <r>   -4.0654    1.0000 </r>
       <r>   -2.0752    1.0000 </r>
       <r>   -0.9125    1.0000 </r>
       <r>    0.9585    1.0000 </r>
       <r>    2.0105    1.0000 </r>
       <r>    2.0629    1.0000 </r>
       <r>    3.5810    1.0000 </r>
       <r>    4.3773    1.0000 </r>
       <r>    4.4493    1.0000 </r>
       <r>    5.0543    1.0000 </r>
       <r>    5.1690    1.0000 </r>
       <r>    7.4488    1.0000 </r>
       <r>    8.4082    1.0000 </r>
       <r>   10.1596    1.0000 </r>
       <r>   16.1591    0.0000 </r>
       <r>   16.4548    0.0000 </r>
       <r>   17.0967    0.0000 </r>
       <r>   17.1430    0.0000 </r>
       <r>   18.6156    0.0000 </r>
       <r>   18.6536    0.0000 </r>
       <r>   18.7607    0.0000 </r>
       <r>   18.9255    0.0000 </r>
      </set>
      <set comment="kpoint 16">
       <r>   -9.2984    1.0000 </r>
       <r>   -6.1221    1.0000 </r>
       <r>   -3.7683    1.0000 </r>
       <r>   -2.1247    1.0000 </r>
       <r>   -0.7509    1.0000 </r>
       <r>    0.7781    1.0000 </r>
       <r>    1.7468    1.0000 </r>
       <r>    2.9760    1.0000 </r>
       <r>    3.1019    1.0000 </r>
       <r>    4.3032    1.0000 </r>
       <r>    4.7916    1.0000 </r>
       <r>    5.0787    1.0000 </r>
       <r>    5.6262    1.0000 </r>
       <r>    6.6921    1.0000 </r>
       <r>    7.7224    1.0000 </r>
       <r>    9.6384    1.0000 </r>
       <r>   16.1855    0.0000 </r>
       <r>   16.9493    0.0000 </r>
       <r>   17.1605    0.0000 </r>
       <r>   18.2741    0.0000 </r>
       <r>   19.4406    0.0000 </r>
       <r>   19.4423    0.0000 </r>
       <r>   19.5966    0.0000 </r>
       <r>   19.9756    0.0000 </r>
      </set>
      <set comment="kpoint 17">
       <r>   -8.8364    1.0000 </r>
       <r>   -6.9249    1.0000 </r>
       <r>   -3.4170    1.0000 </r>
       <r>   -2.3242    1.0000 </r>
       <r>   -0.5106    1.0000 </r>
       <r>    0.4993    1.0000 </r>
       <r>    1.7204    1.0000 </r>
       <r>    2.6395    1.0000 </r>
       <r>    3.7794    1.0000 </r>
       <r>    4.2930    1.0000 </r>
       <r>    4.8753    1.0000 </r>
       <r>    5.2716    1.0000 </r>
       <r>    5.9496    1.0000 </r>
       <r>    6.3754    1.0000 </r>
       <r>    7.0454    1.0000 </r>
       <r>    8.9355    1.0000 </r>
       <r>   16.2698    0.0000 </r>
       <r>   16.7611    0.0000 </r>
       <r>   18.1192    0.0000 </r>
       <r>   19.5127    0.0000 </r>
       <r>   20.2337    0.0000 </r>
       <r>   20.3510    0.0000 </r>
       <r>   20.6711    0.0000 </r>
       <r>   20.8357    0.0000 </r>
      </set>
      <set comment="kpoint 18">
       <r>   -8.2853    1.0000 </r>
       <r>   -7.6472    1.0000 </r>
       <r>   -3.0321    1.0000 </r>
       <r>   -2.6491    1.0000 </r>
       <r>   -0.1961    1.0000 </r>
       <r>    0.1569    1.0000 </r>
       <r>    1.8998    1.0000 </r>
       <r>    2.2246    1.0000 </r>
       <r>    4.4176    1.0000 </r>
       <r>    4.5133    1.0000 </r>
       <r>    4.6320    1.0000 </r>
       <r>    5.2267    1.0000 </r>
       <r>    5.8096    1.0000 </r>
       <r>    6.4031    1.0000 </r>
       <r>    7.2337    1.0000 </r>
       <r>    8.1125    1.0000 </r>
       <r>   16.4026    0.0000 </r>
       <r>   16.5716    0.0000 </r>
       <r>   19.2261    0.0000 </r>
       <r>   20.2468    0.0000 </r>
       <r>   20.9996    0.0000 </r>
       <r>   21.0939    0.0000 </r>
       <r>   21.3536    0.0000 </r>
       <r>   21.7781    0.0000 </r>
      </set>
      <set comment="kpoint 19">
       <r>   -9.3913    1.0000 </r>
       <r>   -4.9982    1.0000 </r>
       <r>   -4.9982    1.0000 </r>
       <r>   -2.2040    1.0000 </r>
       <r>   -0.7842    1.0000 </r>
       <r>    1.6679    1.0000 </r>
       <r>    1.8064    1.0000 </r>
       <r>    1.8064    1.0000 </r>
       <r>    3.8979    1.0000 </r>
       <r>    3.8979    1.0000 </r>
       <r>    4.9962    1.0000 </r>
       <r>    4.9962    1.0000 </r>
       <r>    5.5285    1.0000 </r>
       <r>    6.6994    1.0000 </r>
       <r>    7.7834    1.0000 </r>
       <r>   10.0736    1.0000 </r>
       <r>   16.5269    0.0000 </r>
       <r>   17.1163    0.0000 </r>
       <r>   17.1163    0.0000 </r>
       <r>   17.6120    0.0000 </r>
       <r>   18.8720    0.0000 </r>
       <r>   18.9891    0.0000 </r>
       <r>   19.5235    0.0000 </r>
       <r>   19.5235    0.0000 </r>
      </set>
      <set comment="kpoint 20">
       <r>   -9.0215    1.0000 </r>
       <r>   -5.8664    1.0000 </r>
       <r>   -4.6778    1.0000 </r>
       <r>   -2.4882    1.0000 </r>
       <r>   -0.5666    1.0000 </r>
       <r>    1.4457    1.0000 </r>
       <r>    1.5726    1.0000 </r>
       <r>    2.5453    1.0000 </r>
       <r>    3.3814    1.0000 </r>
       <r>    4.2864    1.0000 </r>
       <r>    5.0257    1.0000 </r>
       <r>    5.6815    1.0000 </r>
       <r>    5.7425    1.0000 </r>
       <r>    5.9533    1.0000 </r>
       <r>    7.1181    1.0000 </r>
       <r>    9.7256    1.0000 </r>
       <r>   16.9579    0.0000 </r>
       <r>   17.1443    0.0000 </r>
       <r>   17.7239    0.0000 </r>
       <r>   18.2521    0.0000 </r>
       <r>   19.3706    0.0000 </r>
       <r>   19.6312    0.0000 </r>
       <r>   20.2414    0.0000 </r>
       <r>   20.4522    0.0000 </r>
      </set>
      <set comment="kpoint 21">
       <r>   -8.5615    1.0000 </r>
       <r>   -6.6619    1.0000 </r>
       <r>   -4.2902    1.0000 </r>
       <r>   -2.9005    1.0000 </r>
       <r>   -0.2560    1.0000 </r>
       <r>    1.0162    1.0000 </r>
       <r>    1.6985    1.0000 </r>
       <r>    2.8673    1.0000 </r>
       <r>    3.2158    1.0000 </r>
       <r>    4.7401    1.0000 </r>
       <r>    5.1465    1.0000 </r>
       <r>    5.2287    1.0000 </r>
       <r>    5.6572    1.0000 </r>
       <r>    6.4589    1.0000 </r>
       <r>    6.6162    1.0000 </r>
       <r>    9.1474    1.0000 </r>
       <r>   17.2222    0.0000 </r>
       <r>   17.6282    0.0000 </r>
       <r>   17.7018    0.0000 </r>
       <r>   19.4875    0.0000 </r>
       <r>   19.8935    0.0000 </r>
       <r>   20.6583    0.0000 </r>
       <r>   20.7210    0.0000 </r>
       <r>   21.0303    0.0000 </r>
      </set>
      <set comment="kpoint 22">
       <r>   -8.0132    1.0000 </r>
       <r>   -7.3789    1.0000 </r>
       <r>   -3.8482    1.0000 </r>
       <r>   -3.3729    1.0000 </r>
       <r>    0.1294    1.0000 </r>
       <r>    0.5640    1.0000 </r>
       <r>    1.9885    1.0000 </r>
       <r>    2.3914    1.0000 </r>
       <r>    3.8678    1.0000 </r>
       <r>    4.5340    1.0000 </r>
       <r>    5.2572    1.0000 </r>
       <r>    5.3263    1.0000 </r>
       <r>    5.5163    1.0000 </r>
       <r>    5.8332    1.0000 </r>
       <r>    7.5267    1.0000 </r>
       <r>    8.3934    1.0000 </r>
       <r>   17.3401    0.0000 </r>
       <r>   17.4834    0.0000 </r>
       <r>   18.6712    0.0000 </r>
       <r>   19.7293    0.0000 </r>
       <r>   20.5234    0.0000 </r>
       <r>   20.8790    0.0000 </r>
       <r>   21.1811    0.0000 </r>
       <r>   21.7678    0.0000 </r>
      </set>
      <set comment="kpoint 23">
       <r>   -8.6538    1.0000 </r>
       <r>   -5.5302    1.0000 </r>
       <r>   -5.5302    1.0000 </r>
       <r>   -2.9845    1.0000 </r>
       <r>   -0.2885    1.0000 </r>
       <r>    1.6284    1.0000 </r>
       <r>    2.0430    1.0000 </r>
       <r>    2.0430    1.0000 </r>
       <r>    3.7360    1.0000 </r>
       <r>    3.7360    1.0000 </r>
       <r>    5.2222    1.0000 </r>
       <r>    5.9002    1.0000 </r>
       <r>    5.9002    1.0000 </r>
       <r>    6.0966    1.0000 </r>
       <r>    6.4711    1.0000 </r>
       <r>    9.5671    1.0000 </r>
       <r>   17.0939    0.0000 </r>
       <r>   18.2733    0.0000 </r>
       <r>   18.2733    0.0000 </r>
       <r>   18.3309    0.0000 </r>
       <r>   19.4117    0.0000 </r>
       <r>   19.9472    0.0000 </r>
       <r>   20.8854    0.0000 </r>
       <r>   20.8854    0.0000 </r>
      </set>
      <set comment="kpoint 24">
       <r>   -8.1968    1.0000 </r>
       <r>   -6.3148    1.0000 </r>
       <r>   -5.1188    1.0000 </r>
       <r>   -3.5438    1.0000 </r>
       <r>    0.0735    1.0000 </r>
       <r>    1.5134    1.0000 </r>
       <r>    1.8602    1.0000 </r>
       <r>    2.6215    1.0000 </r>
       <r>    3.1861    1.0000 </r>
       <r>    4.1635    1.0000 </r>
       <r>    4.5167    1.0000 </r>
       <r>    5.8286    1.0000 </r>
       <r>    6.0770    1.0000 </r>
       <r>    6.3046    1.0000 </r>
       <r>    6.8306    1.0000 </r>
       <r>    9.1588    1.0000 </r>
       <r>   17.5684    0.0000 </r>
       <r>   18.3325    0.0000 </r>
       <r>   18.5285    0.0000 </r>
       <r>   19.4878    0.0000 </r>
       <r>   19.5996    0.0000 </r>
       <r>   20.3436    0.0000 </r>
       <r>   20.7416    0.0000 </r>
       <r>   20.8254    0.0000 </r>
      </set>
      <set comment="kpoint 25">
       <r>   -7.6526    1.0000 </r>
       <r>   -7.0240    1.0000 </r>
       <r>   -4.6404    1.0000 </r>
       <r>   -4.1081    1.0000 </r>
       <r>    0.5056    1.0000 </r>
       <r>    0.9921    1.0000 </r>
       <r>    2.2196    1.0000 </r>
       <r>    2.6710    1.0000 </r>
       <r>    3.2170    1.0000 </r>
       <r>    3.8470    1.0000 </r>
       <r>    4.6602    1.0000 </r>
       <r>    5.2190    1.0000 </r>
       <r>    6.2373    1.0000 </r>
       <r>    6.3330    1.0000 </r>
       <r>    7.7317    1.0000 </r>
       <r>    8.5294    1.0000 </r>
       <r>   18.3288    0.0000 </r>
       <r>   18.4171    0.0000 </r>
       <r>   18.5019    0.0000 </r>
       <r>   19.2776    0.0000 </r>
       <r>   19.9325    0.0000 </r>
       <r>   20.3759    0.0000 </r>
       <r>   20.8114    0.0000 </r>
       <r>   21.7962    0.0000 </r>
      </set>
      <set comment="kpoint 26">
       <r>   -7.7441    1.0000 </r>
       <r>   -5.8872    1.0000 </r>
       <r>   -5.8872    1.0000 </r>
       <r>   -4.1949    1.0000 </r>
       <r>    0.4743    1.0000 </r>
       <r>    2.0292    1.0000 </r>
       <r>    2.0292    1.0000 </r>
       <r>    2.1593    1.0000 </r>
       <r>    3.5880    1.0000 </r>
       <r>    3.5880    1.0000 </r>
       <r>    3.8313    1.0000 </r>
       <r>    5.2015    1.0000 </r>
       <r>    6.7610    1.0000 </r>
       <r>    6.9940    1.0000 </r>
       <r>    6.9940    1.0000 </r>
       <r>    8.9402    1.0000 </r>
       <r>   17.7517    0.0000 </r>
       <r>   19.2133    0.0000 </r>
       <r>   19.4234    0.0000 </r>
       <r>   19.5030    0.0000 </r>
       <r>   19.5030    0.0000 </r>
       <r>   19.9311    0.0000 </r>
       <r>   19.9311    0.0000 </r>
       <r>   21.1210    0.0000 </r>
      </set>
      <set comment="kpoint 27">
       <r>   -7.2057    1.0000 </r>
       <r>   -6.5851    1.0000 </r>
       <r>   -5.3847    1.0000 </r>
       <r>   -4.8160    1.0000 </r>
       <r>    0.9404    1.0000 </r>
       <r>    1.4630    1.0000 </r>
       <r>    2.5626    1.0000 </r>
       <r>    2.5838    1.0000 </r>
       <r>    3.0461    1.0000 </r>
       <r>    3.1847    1.0000 </r>
       <r>    4.0650    1.0000 </r>
       <r>    4.6073    1.0000 </r>
       <r>    7.0080    1.0000 </r>
       <r>    7.0695    1.0000 </r>
       <r>    7.8197    1.0000 </r>
       <r>    8.4856    1.0000 </r>
       <r>   18.2436    0.0000 </r>
       <r>   18.9856    0.0000 </r>
       <r>   19.4012    0.0000 </r>
       <r>   19.4910    0.0000 </r>
       <r>   19.5074    0.0000 </r>
       <r>   19.6366    0.0000 </r>
       <r>   20.7433    0.0000 </r>
       <r>   21.8237    0.0000 </r>
      </set>
      <set comment="kpoint 28">
       <r>   -6.6754    1.0000 </r>
       <r>   -6.0663    1.0000 </r>
       <r>   -6.0663    1.0000 </r>
       <r>   -5.4736    1.0000 </r>
       <r>    1.4351    1.0000 </r>
       <r>    1.9856    1.0000 </r>
       <r>    1.9856    1.0000 </r>
       <r>    2.5611    1.0000 </r>
       <r>    2.9961    1.0000 </r>
       <r>    3.5029    1.0000 </r>
       <r>    3.5029    1.0000 </r>
       <r>    4.0284    1.0000 </r>
       <r>    7.4870    1.0000 </r>
       <r>    7.7512    1.0000 </r>
       <r>    7.7512    1.0000 </r>
       <r>    8.2301    1.0000 </r>
       <r>   18.4402    0.0000 </r>
       <r>   18.9033    0.0000 </r>
       <r>   18.9033    0.0000 </r>
       <r>   19.0511    0.0000 </r>
       <r>   20.2423    0.0000 </r>
       <r>   20.6051    0.0000 </r>
       <r>   20.6051    0.0000 </r>
       <r>   21.3927    0.0000 </r>
      </set>
      <set comment="kpoint 29">
       <r>  -10.2295    1.0000 </r>
       <r>   -3.3607    1.0000 </r>
       <r>   -3.3607    1.0000 </r>
       <r>   -3.3607    1.0000 </r>
       <r>   -0.0660    1.0000 </r>
       <r>   -0.0660    1.0000 </r>
       <r>   -0.0660    1.0000 </r>
       <r>    3.7587    1.0000 </r>
       <r>    3.7587    1.0000 </r>
       <r>    3.7587    1.0000 </r>
       <r>    4.8654    1.0000 </r>
       <r>    4.8654    1.0000 </r>
       <r>    4.8654    1.0000 </r>
       <r>    8.9799    1.0000 </r>
       <r>   10.3508    1.0000 </r>
       <r>   10.3508    1.0000 </r>
       <r>   15.7190    0.0000 </r>
       <r>   15.7190    0.0000 </r>
       <r>   15.7190    0.0000 </r>
       <r>   17.0925    0.0000 </r>
       <r>   17.0925    0.0000 </r>
       <r>   17.3347    0.0000 </r>
       <r>   17.3347    0.0000 </r>
       <r>   17.3351    0.0000 </r>
      </set>
      <set comment="kpoint 30">
       <r>  -10.0426    1.0000 </r>
       <r>   -4.3750    1.0000 </r>
       <r>   -3.2230    1.0000 </r>
       <r>   -3.2230    1.0000 </r>
       <r>   -0.0498    1.0000 </r>
       <r>   -0.0498    1.0000 </r>
       <r>    1.0407    1.0000 </r>
       <r>    3.2391    1.0000 </r>
       <r>    3.2391    1.0000 </r>
       <r>    4.0224    1.0000 </r>
       <r>    4.8818    1.0000 </r>
       <r>    4.8818    1.0000 </r>
       <r>    5.0439    1.0000 </r>
       <r>    8.2542    1.0000 </r>
       <r>    9.8067    1.0000 </r>
       <r>   10.2764    1.0000 </r>
       <r>   15.6773    0.0000 </r>
       <r>   16.0825    0.0000 </r>
       <r>   16.0825    0.0000 </r>
       <r>   16.9866    0.0000 </r>
       <r>   17.7681    0.0000 </r>
       <r>   17.7986    0.0000 </r>
       <r>   17.9369    0.0000 </r>
       <r>   18.2469    0.0000 </r>
      </set>
      <set comment="kpoint 31">
       <r>   -9.7628    1.0000 </r>
       <r>   -5.3268    1.0000 </r>
       <r>   -3.0278    1.0000 </r>
       <r>   -3.0278    1.0000 </r>
       <r>   -0.0698    1.0000 </r>
       <r>   -0.0698    1.0000 </r>
       <r>    2.0880    1.0000 </r>
       <r>    2.7878    1.0000 </r>
       <r>    2.7878    1.0000 </r>
       <r>    4.4484    1.0000 </r>
       <r>    4.7304    1.0000 </r>
       <r>    4.7304    1.0000 </r>
       <r>    5.3094    1.0000 </r>
       <r>    7.4904    1.0000 </r>
       <r>    9.1554    1.0000 </r>
       <r>    9.9203    1.0000 </r>
       <r>   15.6775    0.0000 </r>
       <r>   16.7590    0.0000 </r>
       <r>   16.7590    0.0000 </r>
       <r>   16.8135    0.0000 </r>
       <r>   18.4296    0.0000 </r>
       <r>   18.6162    0.0000 </r>
       <r>   18.6417    0.0000 </r>
       <r>   19.3536    0.0000 </r>
      </set>
      <set comment="kpoint 32">
       <r>   -9.3910    1.0000 </r>
       <r>   -6.2082    1.0000 </r>
       <r>   -2.7940    1.0000 </r>
       <r>   -2.7940    1.0000 </r>
       <r>   -0.1652    1.0000 </r>
       <r>   -0.1652    1.0000 </r>
       <r>    2.4830    1.0000 </r>
       <r>    2.4830    1.0000 </r>
       <r>    3.0229    1.0000 </r>
       <r>    4.4829    1.0000 </r>
       <r>    4.4829    1.0000 </r>
       <r>    5.0669    1.0000 </r>
       <r>    5.6596    1.0000 </r>
       <r>    6.7254    1.0000 </r>
       <r>    8.4722    1.0000 </r>
       <r>    9.3328    1.0000 </r>
       <r>   15.7310    0.0000 </r>
       <r>   16.6067    0.0000 </r>
       <r>   17.6942    0.0000 </r>
       <r>   17.6942    0.0000 </r>
       <r>   19.2103    0.0000 </r>
       <r>   19.5083    0.0000 </r>
       <r>   19.5606    0.0000 </r>
       <r>   20.5609    0.0000 </r>
      </set>
      <set comment="kpoint 33">
       <r>   -8.9283    1.0000 </r>
       <r>   -7.0132    1.0000 </r>
       <r>   -2.5604    1.0000 </r>
       <r>   -2.5604    1.0000 </r>
       <r>   -0.3298    1.0000 </r>
       <r>   -0.3298    1.0000 </r>
       <r>    2.3467    1.0000 </r>
       <r>    2.3467    1.0000 </r>
       <r>    3.8285    1.0000 </r>
       <r>    4.2291    1.0000 </r>
       <r>    4.2291    1.0000 </r>
       <r>    5.8693    1.0000 </r>
       <r>    5.9796    1.0000 </r>
       <r>    6.0907    1.0000 </r>
       <r>    7.8019    1.0000 </r>
       <r>    8.5758    1.0000 </r>
       <r>   15.8371    0.0000 </r>
       <r>   16.3886    0.0000 </r>
       <r>   18.8017    0.0000 </r>
       <r>   18.8017    0.0000 </r>
       <r>   20.1263    0.0000 </r>
       <r>   20.4770    0.0000 </r>
       <r>   20.5556    0.0000 </r>
       <r>   21.6795    0.0000 </r>
      </set>
      <set comment="kpoint 34">
       <r>   -8.3763    1.0000 </r>
       <r>   -7.7370    1.0000 </r>
       <r>   -2.4001    1.0000 </r>
       <r>   -2.4001    1.0000 </r>
       <r>   -0.4712    1.0000 </r>
       <r>   -0.4712    1.0000 </r>
       <r>    2.3185    1.0000 </r>
       <r>    2.3185    1.0000 </r>
       <r>    4.0645    1.0000 </r>
       <r>    4.0645    1.0000 </r>
       <r>    4.5535    1.0000 </r>
       <r>    5.2590    1.0000 </r>
       <r>    6.5971    1.0000 </r>
       <r>    6.7798    1.0000 </r>
       <r>    7.1713    1.0000 </r>
       <r>    7.7058    1.0000 </r>
       <r>   15.9892    0.0000 </r>
       <r>   16.1774    0.0000 </r>
       <r>   19.9183    0.0000 </r>
       <r>   19.9183    0.0000 </r>
       <r>   21.1501    0.0000 </r>
       <r>   21.4975    0.0000 </r>
       <r>   21.5561    0.0000 </r>
       <r>   21.5716    0.0000 </r>
      </set>
      <set comment="kpoint 35">
       <r>   -9.8560    1.0000 </r>
       <r>   -4.2213    1.0000 </r>
       <r>   -4.2213    1.0000 </r>
       <r>   -3.1011    1.0000 </r>
       <r>   -0.1073    1.0000 </r>
       <r>    0.9426    1.0000 </r>
       <r>    0.9426    1.0000 </r>
       <r>    2.7242    1.0000 </r>
       <r>    3.5897    1.0000 </r>
       <r>    3.5897    1.0000 </r>
       <r>    5.0684    1.0000 </r>
       <r>    5.0684    1.0000 </r>
       <r>    5.1684    1.0000 </r>
       <r>    7.5010    1.0000 </r>
       <r>    9.4927    1.0000 </r>
       <r>   10.1815    1.0000 </r>
       <r>   16.1039    0.0000 </r>
       <r>   16.1039    0.0000 </r>
       <r>   16.1233    0.0000 </r>
       <r>   17.3681    0.0000 </r>
       <r>   17.9280    0.0000 </r>
       <r>   18.2223    0.0000 </r>
       <r>   18.6335    0.0000 </r>
       <r>   18.6335    0.0000 </r>
      </set>
      <set comment="kpoint 36">
       <r>   -9.5769    1.0000 </r>
       <r>   -5.1628    1.0000 </r>
       <r>   -3.9971    1.0000 </r>
       <r>   -2.9398    1.0000 </r>
       <r>   -0.2466    1.0000 </r>
       <r>    0.7365    1.0000 </r>
       <r>    1.8173    1.0000 </r>
       <r>    2.3832    1.0000 </r>
       <r>    3.2557    1.0000 </r>
       <r>    4.1526    1.0000 </r>
       <r>    4.9513    1.0000 </r>
       <r>    5.2569    1.0000 </r>
       <r>    5.3537    1.0000 </r>
       <r>    6.7243    1.0000 </r>
       <r>    8.9088    1.0000 </r>
       <r>    9.9551    1.0000 </r>
       <r>   16.1576    0.0000 </r>
       <r>   16.5111    0.0000 </r>
       <r>   16.8135    0.0000 </r>
       <r>   17.3425    0.0000 </r>
       <r>   18.6021    0.0000 </r>
       <r>   18.7261    0.0000 </r>
       <r>   19.1896    0.0000 </r>
       <r>   19.6806    0.0000 </r>
      </set>
      <set comment="kpoint 37">
       <r>   -9.2061    1.0000 </r>
       <r>   -6.0373    1.0000 </r>
       <r>   -3.7126    1.0000 </r>
       <r>   -2.7801    1.0000 </r>
       <r>   -0.4572    1.0000 </r>
       <r>    0.4111    1.0000 </r>
       <r>    2.2657    1.0000 </r>
       <r>    2.5575    1.0000 </r>
       <r>    3.0452    1.0000 </r>
       <r>    4.7774    1.0000 </r>
       <r>    4.8967    1.0000 </r>
       <r>    5.1770    1.0000 </r>
       <r>    5.7555    1.0000 </r>
       <r>    5.9575    1.0000 </r>
       <r>    8.2597    1.0000 </r>
       <r>    9.4859    1.0000 </r>
       <r>   16.2512    0.0000 </r>
       <r>   17.1690    0.0000 </r>
       <r>   17.2204    0.0000 </r>
       <r>   17.7618    0.0000 </r>
       <r>   19.4024    0.0000 </r>
       <r>   19.5026    0.0000 </r>
       <r>   19.9007    0.0000 </r>
       <r>   20.8125    0.0000 </r>
      </set>
      <set comment="kpoint 38">
       <r>   -8.7448    1.0000 </r>
       <r>   -6.8374    1.0000 </r>
       <r>   -3.3871    1.0000 </r>
       <r>   -2.7027    1.0000 </r>
       <r>   -0.6229    1.0000 </r>
       <r>    0.0194    1.0000 </r>
       <r>    2.3356    1.0000 </r>
       <r>    2.8932    1.0000 </r>
       <r>    3.2156    1.0000 </r>
       <r>    4.6539    1.0000 </r>
       <r>    4.9965    1.0000 </r>
       <r>    5.2197    1.0000 </r>
       <r>    5.6763    1.0000 </r>
       <r>    6.3344    1.0000 </r>
       <r>    7.6050    1.0000 </r>
       <r>    8.8141    1.0000 </r>
       <r>   16.3853    0.0000 </r>
       <r>   16.9623    0.0000 </r>
       <r>   18.1740    0.0000 </r>
       <r>   18.8634    0.0000 </r>
       <r>   20.2048    0.0000 </r>
       <r>   20.4877    0.0000 </r>
       <r>   20.7501    0.0000 </r>
       <r>   21.5533    0.0000 </r>
      </set>
      <set comment="kpoint 39">
       <r>   -8.1946    1.0000 </r>
       <r>   -7.5578    1.0000 </r>
       <r>   -3.0584    1.0000 </r>
       <r>   -2.7990    1.0000 </r>
       <r>   -0.5947    1.0000 </r>
       <r>   -0.3498    1.0000 </r>
       <r>    2.5132    1.0000 </r>
       <r>    2.7186    1.0000 </r>
       <r>    3.8568    1.0000 </r>
       <r>    4.5199    1.0000 </r>
       <r>    4.6607    1.0000 </r>
       <r>    4.7968    1.0000 </r>
       <r>    6.3472    1.0000 </r>
       <r>    6.9690    1.0000 </r>
       <r>    7.1314    1.0000 </r>
       <r>    8.0030    1.0000 </r>
       <r>   16.5551    0.0000 </r>
       <r>   16.7518    0.0000 </r>
       <r>   19.2491    0.0000 </r>
       <r>   19.8280    0.0000 </r>
       <r>   20.9882    0.0000 </r>
       <r>   21.0824    0.0000 </r>
       <r>   21.5124    0.0000 </r>
       <r>   21.6557    0.0000 </r>
      </set>
      <set comment="kpoint 40">
       <r>   -9.2989    1.0000 </r>
       <r>   -4.9209    1.0000 </r>
       <r>   -4.9209    1.0000 </r>
       <r>   -2.8556    1.0000 </r>
       <r>   -0.5096    1.0000 </r>
       <r>    1.4030    1.0000 </r>
       <r>    1.4030    1.0000 </r>
       <r>    2.2202    1.0000 </r>
       <r>    3.9233    1.0000 </r>
       <r>    3.9233    1.0000 </r>
       <r>    5.3117    1.0000 </r>
       <r>    5.3117    1.0000 </r>
       <r>    5.6087    1.0000 </r>
       <r>    5.9437    1.0000 </r>
       <r>    8.3836    1.0000 </r>
       <r>    9.8902    1.0000 </r>
       <r>   16.5952    0.0000 </r>
       <r>   16.9000    0.0000 </r>
       <r>   16.9000    0.0000 </r>
       <r>   17.7987    0.0000 </r>
       <r>   18.8014    0.0000 </r>
       <r>   18.9516    0.0000 </r>
       <r>   20.1611    0.0000 </r>
       <r>   20.1611    0.0000 </r>
      </set>
      <set comment="kpoint 41">
       <r>   -8.9296    1.0000 </r>
       <r>   -5.7836    1.0000 </r>
       <r>   -4.6070    1.0000 </r>
       <r>   -2.8587    1.0000 </r>
       <r>   -0.7298    1.0000 </r>
       <r>    0.8987    1.0000 </r>
       <r>    1.9827    1.0000 </r>
       <r>    2.2738    1.0000 </r>
       <r>    3.7019    1.0000 </r>
       <r>    4.6507    1.0000 </r>
       <r>    5.1799    1.0000 </r>
       <r>    5.2781    1.0000 </r>
       <r>    5.7614    1.0000 </r>
       <r>    5.8606    1.0000 </r>
       <r>    7.7718    1.0000 </r>
       <r>    9.5830    1.0000 </r>
       <r>   17.0198    0.0000 </r>
       <r>   17.0291    0.0000 </r>
       <r>   17.8529    0.0000 </r>
       <r>   17.8611    0.0000 </r>
       <r>   19.3398    0.0000 </r>
       <r>   19.4984    0.0000 </r>
       <r>   20.7803    0.0000 </r>
       <r>   21.1474    0.0000 </r>
      </set>
      <set comment="kpoint 42">
       <r>   -8.4704    1.0000 </r>
       <r>   -6.5757    1.0000 </r>
       <r>   -4.2317    1.0000 </r>
       <r>   -3.0432    1.0000 </r>
       <r>   -0.7418    1.0000 </r>
       <r>    0.3727    1.0000 </r>
       <r>    2.4765    1.0000 </r>
       <r>    2.5457    1.0000 </r>
       <r>    3.4269    1.0000 </r>
       <r>    4.4512    1.0000 </r>
       <r>    5.3123    1.0000 </r>
       <r>    5.3266    1.0000 </r>
       <r>    5.7441    1.0000 </r>
       <r>    6.6140    1.0000 </r>
       <r>    7.1412    1.0000 </r>
       <r>    9.0393    1.0000 </r>
       <r>   17.1704    0.0000 </r>
       <r>   17.7165    0.0000 </r>
       <r>   17.7685    0.0000 </r>
       <r>   18.9512    0.0000 </r>
       <r>   19.8772    0.0000 </r>
       <r>   20.4481    0.0000 </r>
       <r>   21.1198    0.0000 </r>
       <r>   21.4661    0.0000 </r>
      </set>
      <set comment="kpoint 43">
       <r>   -7.9232    1.0000 </r>
       <r>   -7.2905    1.0000 </r>
       <r>   -3.8148    1.0000 </r>
       <r>   -3.3942    1.0000 </r>
       <r>   -0.5120    1.0000 </r>
       <r>   -0.1163    1.0000 </r>
       <r>    2.7685    1.0000 </r>
       <r>    3.1013    1.0000 </r>
       <r>    3.1345    1.0000 </r>
       <r>    3.7681    1.0000 </r>
       <r>    5.4570    1.0000 </r>
       <r>    5.6187    1.0000 </r>
       <r>    5.9182    1.0000 </r>
       <r>    6.5212    1.0000 </r>
       <r>    7.4732    1.0000 </r>
       <r>    8.3124    1.0000 </r>
       <r>   17.3453    0.0000 </r>
       <r>   17.5336    0.0000 </r>
       <r>   18.7184    0.0000 </r>
       <r>   19.5930    0.0000 </r>
       <r>   20.5280    0.0000 </r>
       <r>   20.6433    0.0000 </r>
       <r>   21.2402    0.0000 </r>
       <r>   21.4781    0.0000 </r>
      </set>
      <set comment="kpoint 44">
       <r>   -8.5626    1.0000 </r>
       <r>   -5.4511    1.0000 </r>
       <r>   -5.4511    1.0000 </r>
       <r>   -3.1251    1.0000 </r>
       <r>   -0.7989    1.0000 </r>
       <r>    1.3701    1.0000 </r>
       <r>    1.3701    1.0000 </r>
       <r>    2.4459    1.0000 </r>
       <r>    4.3136    1.0000 </r>
       <r>    4.3136    1.0000 </r>
       <r>    4.4225    1.0000 </r>
       <r>    5.9993    1.0000 </r>
       <r>    5.9993    1.0000 </r>
       <r>    6.1674    1.0000 </r>
       <r>    7.1920    1.0000 </r>
       <r>    9.4588    1.0000 </r>
       <r>   17.1689    0.0000 </r>
       <r>   17.9886    0.0000 </r>
       <r>   17.9886    0.0000 </r>
       <r>   18.3968    0.0000 </r>
       <r>   19.3915    0.0000 </r>
       <r>   19.7508    0.0000 </r>
       <r>   21.3450    0.0000 </r>
       <r>   21.3450    0.0000 </r>
      </set>
      <set comment="kpoint 45">
       <r>   -8.1065    1.0000 </r>
       <r>   -6.2308    1.0000 </r>
       <r>   -5.0462    1.0000 </r>
       <r>   -3.5630    1.0000 </r>
       <r>   -0.6198    1.0000 </r>
       <r>    0.7691    1.0000 </r>
       <r>    1.8719    1.0000 </r>
       <r>    2.7291    1.0000 </r>
       <r>    3.7040    1.0000 </r>
       <r>    3.9139    1.0000 </r>
       <r>    4.8718    1.0000 </r>
       <r>    6.1616    1.0000 </r>
       <r>    6.3724    1.0000 </r>
       <r>    6.5890    1.0000 </r>
       <r>    6.8526    1.0000 </r>
       <r>    9.0833    1.0000 </r>
       <r>   17.6405    0.0000 </r>
       <r>   18.1375    0.0000 </r>
       <r>   18.5322    0.0000 </r>
       <r>   19.0579    0.0000 </r>
       <r>   19.5973    0.0000 </r>
       <r>   20.4808    0.0000 </r>
       <r>   20.5748    0.0000 </r>
       <r>   20.9789    0.0000 </r>
      </set>
      <set comment="kpoint 46">
       <r>   -7.5636    1.0000 </r>
       <r>   -6.9370    1.0000 </r>
       <r>   -4.5801    1.0000 </r>
       <r>   -4.0727    1.0000 </r>
       <r>   -0.2611    1.0000 </r>
       <r>    0.2148    1.0000 </r>
       <r>    2.4250    1.0000 </r>
       <r>    3.0360    1.0000 </r>
       <r>    3.0879    1.0000 </r>
       <r>    3.4930    1.0000 </r>
       <r>    5.4233    1.0000 </r>
       <r>    5.9948    1.0000 </r>
       <r>    6.3124    1.0000 </r>
       <r>    6.4025    1.0000 </r>
       <r>    7.7134    1.0000 </r>
       <r>    8.4824    1.0000 </r>
       <r>   18.2969    0.0000 </r>
       <r>   18.3883    0.0000 </r>
       <r>   18.4453    0.0000 </r>
       <r>   19.2665    0.0000 </r>
       <r>   19.9556    0.0000 </r>
       <r>   20.4365    0.0000 </r>
       <r>   20.5258    0.0000 </r>
       <r>   21.4644    0.0000 </r>
      </set>
      <set comment="kpoint 47">
       <r>   -7.6549    1.0000 </r>
       <r>   -5.8070    1.0000 </r>
       <r>   -5.8070    1.0000 </r>
       <r>   -4.1589    1.0000 </r>
       <r>   -0.3165    1.0000 </r>
       <r>    1.2269    1.0000 </r>
       <r>    1.2269    1.0000 </r>
       <r>    2.9973    1.0000 </r>
       <r>    3.0667    1.0000 </r>
       <r>    4.3964    1.0000 </r>
       <r>    4.3964    1.0000 </r>
       <r>    6.0125    1.0000 </r>
       <r>    6.8173    1.0000 </r>
       <r>    7.0296    1.0000 </r>
       <r>    7.0296    1.0000 </r>
       <r>    8.8946    1.0000 </r>
       <r>   17.8234    0.0000 </r>
       <r>   19.1683    0.0000 </r>
       <r>   19.1712    0.0000 </r>
       <r>   19.1712    0.0000 </r>
       <r>   19.4329    0.0000 </r>
       <r>   20.0882    0.0000 </r>
       <r>   20.0882    0.0000 </r>
       <r>   20.7832    0.0000 </r>
      </set>
      <set comment="kpoint 48">
       <r>   -7.1183    1.0000 </r>
       <r>   -6.5005    1.0000 </r>
       <r>   -5.3111    1.0000 </r>
       <r>   -4.7549    1.0000 </r>
       <r>    0.1120    1.0000 </r>
       <r>    0.6336    1.0000 </r>
       <r>    1.7520    1.0000 </r>
       <r>    2.3437    1.0000 </r>
       <r>    3.4697    1.0000 </r>
       <r>    3.9201    1.0000 </r>
       <r>    4.9041    1.0000 </r>
       <r>    5.4447    1.0000 </r>
       <r>    7.0570    1.0000 </r>
       <r>    7.1127    1.0000 </r>
       <r>    7.8247    1.0000 </r>
       <r>    8.4656    1.0000 </r>
       <r>   18.3072    0.0000 </r>
       <r>   19.0177    0.0000 </r>
       <r>   19.2690    0.0000 </r>
       <r>   19.3205    0.0000 </r>
       <r>   19.5079    0.0000 </r>
       <r>   19.7290    0.0000 </r>
       <r>   20.4907    0.0000 </r>
       <r>   21.5385    0.0000 </r>
      </set>
      <set comment="kpoint 49">
       <r>   -6.5906    1.0000 </r>
       <r>   -5.9856    1.0000 </r>
       <r>   -5.9856    1.0000 </r>
       <r>   -5.3997    1.0000 </r>
       <r>    0.5820    1.0000 </r>
       <r>    1.1329    1.0000 </r>
       <r>    1.1329    1.0000 </r>
       <r>    1.7058    1.0000 </r>
       <r>    3.9078    1.0000 </r>
       <r>    4.3914    1.0000 </r>
       <r>    4.3914    1.0000 </r>
       <r>    4.9035    1.0000 </r>
       <r>    7.5213    1.0000 </r>
       <r>    7.7722    1.0000 </r>
       <r>    7.7722    1.0000 </r>
       <r>    8.2316    1.0000 </r>
       <r>   18.5001    0.0000 </r>
       <r>   18.9469    0.0000 </r>
       <r>   18.9469    0.0000 </r>
       <r>   19.0898    0.0000 </r>
       <r>   20.1058    0.0000 </r>
       <r>   20.4133    0.0000 </r>
       <r>   20.4133    0.0000 </r>
       <r>   21.1875    0.0000 </r>
      </set>
      <set comment="kpoint 50">
       <r>   -9.6700    1.0000 </r>
       <r>   -4.0754    1.0000 </r>
       <r>   -4.0754    1.0000 </r>
       <r>   -4.0754    1.0000 </r>
       <r>    0.7010    1.0000 </r>
       <r>    0.7010    1.0000 </r>
       <r>    0.7010    1.0000 </r>
       <r>    3.2442    1.0000 </r>
       <r>    3.2442    1.0000 </r>
       <r>    3.2442    1.0000 </r>
       <r>    5.3396    1.0000 </r>
       <r>    5.3396    1.0000 </r>
       <r>    5.3396    1.0000 </r>
       <r>    6.7151    1.0000 </r>
       <r>    9.7273    1.0000 </r>
       <r>    9.7273    1.0000 </r>
       <r>   16.2063    0.0000 </r>
       <r>   16.2063    0.0000 </r>
       <r>   16.2063    0.0000 </r>
       <r>   17.9051    0.0000 </r>
       <r>   17.9051    0.0000 </r>
       <r>   18.3434    0.0000 </r>
       <r>   19.6004    0.0000 </r>
       <r>   19.6004    0.0000 </r>
      </set>
      <set comment="kpoint 51">
       <r>   -9.3916    1.0000 </r>
       <r>   -5.0032    1.0000 </r>
       <r>   -3.8672    1.0000 </r>
       <r>   -3.8672    1.0000 </r>
       <r>    0.3134    1.0000 </r>
       <r>    0.3134    1.0000 </r>
       <r>    1.3619    1.0000 </r>
       <r>    3.0903    1.0000 </r>
       <r>    3.0903    1.0000 </r>
       <r>    4.0272    1.0000 </r>
       <r>    5.4333    1.0000 </r>
       <r>    5.4333    1.0000 </r>
       <r>    5.5941    1.0000 </r>
       <r>    5.9191    1.0000 </r>
       <r>    9.1623    1.0000 </r>
       <r>    9.6707    1.0000 </r>
       <r>   16.3287    0.0000 </r>
       <r>   16.6206    0.0000 </r>
       <r>   16.6206    0.0000 </r>
       <r>   17.7704    0.0000 </r>
       <r>   18.5989    0.0000 </r>
       <r>   18.7216    0.0000 </r>
       <r>   20.0712    0.0000 </r>
       <r>   20.7322    0.0000 </r>
      </set>
      <set comment="kpoint 52">
       <r>   -9.0218    1.0000 </r>
       <r>   -5.8690    1.0000 </r>
       <r>   -3.6152    1.0000 </r>
       <r>   -3.6152    1.0000 </r>
       <r>   -0.1517    1.0000 </r>
       <r>   -0.1517    1.0000 </r>
       <r>    1.9349    1.0000 </r>
       <r>    3.0945    1.0000 </r>
       <r>    3.0945    1.0000 </r>
       <r>    4.9806    1.0000 </r>
       <r>    5.1438    1.0000 </r>
       <r>    5.3805    1.0000 </r>
       <r>    5.3805    1.0000 </r>
       <r>    5.9285    1.0000 </r>
       <r>    8.5518    1.0000 </r>
       <r>    9.3188    1.0000 </r>
       <r>   16.4874    0.0000 </r>
       <r>   17.3368    0.0000 </r>
       <r>   17.3368    0.0000 </r>
       <r>   17.5766    0.0000 </r>
       <r>   19.3274    0.0000 </r>
       <r>   19.3893    0.0000 </r>
       <r>   20.6947    0.0000 </r>
       <r>   21.8950    0.0000 </r>
      </set>
      <set comment="kpoint 53">
       <r>   -8.5619    1.0000 </r>
       <r>   -6.6633    1.0000 </r>
       <r>   -3.3594    1.0000 </r>
       <r>   -3.3594    1.0000 </r>
       <r>   -0.5860    1.0000 </r>
       <r>   -0.5860    1.0000 </r>
       <r>    2.4940    1.0000 </r>
       <r>    3.1755    1.0000 </r>
       <r>    3.1755    1.0000 </r>
       <r>    4.4069    1.0000 </r>
       <r>    5.2574    1.0000 </r>
       <r>    5.2574    1.0000 </r>
       <r>    5.9973    1.0000 </r>
       <r>    6.3382    1.0000 </r>
       <r>    7.9398    1.0000 </r>
       <r>    8.7159    1.0000 </r>
       <r>   16.6774    0.0000 </r>
       <r>   17.3543    0.0000 </r>
       <r>   18.2803    0.0000 </r>
       <r>   18.2803    0.0000 </r>
       <r>   20.1082    0.0000 </r>
       <r>   20.2382    0.0000 </r>
       <r>   21.4585    0.0000 </r>
       <r>   22.0623    0.0000 </r>
[...]
       <r>   -4.8572    1.0000 </r>
       <r>   -4.8572    1.0000 </r>
       <r>   -1.8447    1.0000 </r>
       <r>   -1.8447    1.0000 </r>
       <r>   -1.8447    1.0000 </r>
       <r>   -0.3046    1.0000 </r>
       <r>    7.0422    1.0000 </r>
       <r>    7.0422    1.0000 </r>
       <r>    7.0422    1.0000 </r>
       <r>    7.5188    1.0000 </r>
       <r>    7.5188    1.0000 </r>
       <r>    7.5188    1.0000 </r>
       <r>    8.2664    1.0000 </r>
       <r>    8.2664    1.0000 </r>
       <r>   18.6545    0.0000 </r>
       <r>   18.6545    0.0000 </r>
       <r>   18.6545    0.0000 </r>
       <r>   19.2466    0.0000 </r>
       <r>   19.2466    0.0000 </r>
       <r>   19.5211    0.0000 </r>
       <r>   20.3074    0.0000 </r>
       <r>   20.3074    0.0000 </r>
      </set>
      <set comment="kpoint 82">
       <r>   -5.9458    1.0000 </r>
       <r>   -5.4038    1.0000 </r>
       <r>   -4.6495    1.0000 </r>
       <r>   -4.6495    1.0000 </r>
       <r>   -2.2133    1.0000 </r>
       <r>   -2.2133    1.0000 </r>
       <r>   -1.4748    1.0000 </r>
       <r>   -0.9467    1.0000 </r>
       <r>    7.1671    1.0000 </r>
       <r>    7.1671    1.0000 </r>
       <r>    7.6803    1.0000 </r>
       <r>    7.6803    1.0000 </r>
       <r>    7.7295    1.0000 </r>
       <r>    7.7692    1.0000 </r>
       <r>    8.0233    1.0000 </r>
       <r>    8.1560    1.0000 </r>
       <r>   18.8999    0.0000 </r>
       <r>   19.0044    0.0000 </r>
       <r>   19.0044    0.0000 </r>
       <r>   19.1016    0.0000 </r>
       <r>   19.4937    0.0000 </r>
       <r>   19.6856    0.0000 </r>
       <r>   19.7469    0.0000 </r>
       <r>   19.7469    0.0000 </r>
      </set>
      <set comment="kpoint 83">
       <r>   -5.4902    1.0000 </r>
       <r>   -5.0269    1.0000 </r>
       <r>   -5.0269    1.0000 </r>
       <r>   -4.7329    1.0000 </r>
       <r>   -2.2978    1.0000 </r>
       <r>   -2.0090    1.0000 </r>
       <r>   -2.0090    1.0000 </r>
       <r>   -1.5554    1.0000 </r>
       <r>    7.4818    1.0000 </r>
       <r>    7.6478    1.0000 </r>
       <r>    7.6478    1.0000 </r>
       <r>    7.8944    1.0000 </r>
       <r>    7.9037    1.0000 </r>
       <r>    7.9519    1.0000 </r>
       <r>    7.9519    1.0000 </r>
       <r>    8.1566    1.0000 </r>
       <r>   19.1110    0.0000 </r>
       <r>   19.1807    0.0000 </r>
       <r>   19.1807    0.0000 </r>
       <r>   19.2964    0.0000 </r>
       <r>   19.3349    0.0000 </r>
       <r>   19.4962    0.0000 </r>
       <r>   19.4963    0.0000 </r>
       <r>   19.6998    0.0000 </r>
      </set>
      <set comment="kpoint 84">
       <r>   -5.1115    1.0000 </r>
       <r>   -4.8160    1.0000 </r>
       <r>   -4.8160    1.0000 </r>
       <r>   -4.8160    1.0000 </r>
       <r>   -2.3837    1.0000 </r>
       <r>   -2.3837    1.0000 </r>
       <r>   -2.3837    1.0000 </r>
       <r>   -2.0931    1.0000 </r>
       <r>    7.9411    1.0000 </r>
       <r>    7.9411    1.0000 </r>
       <r>    7.9411    1.0000 </r>
       <r>    7.9998    1.0000 </r>
       <r>    7.9998    1.0000 </r>
       <r>    7.9998    1.0000 </r>
       <r>    8.0892    1.0000 </r>
       <r>    8.0892    1.0000 </r>
       <r>   19.2307    0.0000 </r>
       <r>   19.2307    0.0000 </r>
       <r>   19.2307    0.0000 </r>
       <r>   19.2913    0.0000 </r>
       <r>   19.2913    0.0000 </r>
       <r>   19.4144    0.0000 </r>
       <r>   19.4144    0.0000 </r>
       <r>   19.4144    0.0000 </r>
      </set>
     </set>
    </set>
   </array>
  </eigenvalues>
  <separator name="orbital magnetization" >
   <v name="MAGDIPOLOUT">      0.00000000      0.00000000      0.00000000</v>
  </separator>
  <dos>
   <i name="efermi">     11.07285305 </i>
   <total>
    <array>
     <dimension dim="1">gridpoints</dimension>
     <dimension dim="2">spin</dimension>
     <field>energy</field>
     <field>total</field>
     <field>integrated</field>
     <set>
      <set comment="spin 1">
       <r>   -12.1694     0.0000     0.0000 </r>
       <r>   -12.0478     0.0000     0.0000 </r>
       <r>   -11.9261     0.0000     0.0000 </r>
       <r>   -11.8045     0.0000     0.0000 </r>
       <r>   -11.6828     0.0000     0.0000 </r>
       <r>   -11.5612     0.0000     0.0000 </r>
       <r>   -11.4395     0.0000     0.0000 </r>
       <r>   -11.3179     0.0000     0.0000 </r>
       <r>   -11.1962     0.0000     0.0000 </r>
       <r>   -11.0746     0.0000     0.0000 </r>
       <r>   -10.9529     0.0000     0.0000 </r>
       <r>   -10.8313     0.0000     0.0000 </r>
       <r>   -10.7096     0.0000     0.0000 </r>
       <r>   -10.5880     0.0007     0.0001 </r>
       <r>   -10.4664     0.0538     0.0066 </r>
       <r>   -10.3447     0.1733     0.0277 </r>
       <r>   -10.2231     0.2190     0.0544 </r>
       <r>   -10.1014     0.3277     0.0942 </r>
       <r>    -9.9798     0.2344     0.1227 </r>
       <r>    -9.8581     0.4415     0.1764 </r>
       <r>    -9.7365     0.3481     0.2188 </r>
       <r>    -9.6148     0.3992     0.2673 </r>
       <r>    -9.4932     0.5008     0.3283 </r>
       <r>    -9.3715     0.4929     0.3882 </r>
       <r>    -9.2499     0.5421     0.4542 </r>
       <r>    -9.1282     0.3866     0.5012 </r>
       <r>    -9.0066     0.6734     0.5831 </r>
       <r>    -8.8849     0.6543     0.6627 </r>
       <r>    -8.7633     0.5226     0.7263 </r>
       <r>    -8.6416     0.5034     0.7875 </r>
       <r>    -8.5200     0.7319     0.8765 </r>
       <r>    -8.3983     0.8181     0.9761 </r>
       <r>    -8.2767     0.5796     1.0466 </r>
       <r>    -8.1550     0.7574     1.1387 </r>
       <r>    -8.0334     0.6279     1.2151 </r>
       <r>    -7.9118     0.8647     1.3203 </r>
       <r>    -7.7901     0.5682     1.3894 </r>
       <r>    -7.6685     0.9317     1.5027 </r>
       <r>    -7.5468     1.0651     1.6323 </r>
       <r>    -7.4252     0.5424     1.6983 </r>
       <r>    -7.3035     0.8241     1.7985 </r>
       <r>    -7.1819     0.7183     1.8859 </r>
       <r>    -7.0602     1.2520     2.0382 </r>
       <r>    -6.9386     0.8549     2.1422 </r>
       <r>    -6.8169     0.9569     2.2586 </r>
       <r>    -6.6953     0.7373     2.3483 </r>
       <r>    -6.5736     1.0770     2.4793 </r>
       <r>    -6.4520     0.8888     2.5874 </r>
       <r>    -6.3303     1.0704     2.7176 </r>
       <r>    -6.2087     1.0055     2.8399 </r>
       <r>    -6.0870     1.0823     2.9716 </r>
       <r>    -5.9654     1.1259     3.1086 </r>
       <r>    -5.8437     1.0877     3.2409 </r>
       <r>    -5.7221     1.3664     3.4071 </r>
       <r>    -5.6005     0.6482     3.4859 </r>
       <r>    -5.4788     0.9686     3.6038 </r>
       <r>    -5.3572     1.6722     3.8072 </r>
       <r>    -5.2355     1.3299     3.9690 </r>
       <r>    -5.1139     1.1698     4.1113 </r>
       <r>    -4.9922     1.4827     4.2916 </r>
       <r>    -4.8706     1.0765     4.4226 </r>
       <r>    -4.7489     1.4694     4.6013 </r>
       <r>    -4.6273     1.5903     4.7948 </r>
       <r>    -4.5056     1.5813     4.9871 </r>
       <r>    -4.3840     1.4021     5.1577 </r>
       <r>    -4.2623     1.4088     5.3291 </r>
       <r>    -4.1407     1.2364     5.4795 </r>
       <r>    -4.0190     2.1213     5.7376 </r>
       <r>    -3.8974     0.8542     5.8415 </r>
       <r>    -3.7757     1.2833     5.9976 </r>
       <r>    -3.6541     0.9912     6.1182 </r>
       <r>    -3.5324     0.9909     6.2387 </r>
       <r>    -3.4108     1.5876     6.4318 </r>
       <r>    -3.2892     1.5212     6.6169 </r>
       <r>    -3.1675     0.6328     6.6938 </r>
       <r>    -3.0459     1.1241     6.8306 </r>
       <r>    -2.9242     1.1128     6.9659 </r>
       <r>    -2.8026     1.2253     7.1150 </r>
       <r>    -2.6809     0.9225     7.2272 </r>
       <r>    -2.5593     0.5109     7.2894 </r>
       <r>    -2.4376     0.7370     7.3790 </r>
       <r>    -2.3160     1.0050     7.5013 </r>
       <r>    -2.1943     1.2735     7.6562 </r>
       <r>    -2.0727     1.2122     7.8037 </r>
       <r>    -1.9510     1.5161     7.9881 </r>
       <r>    -1.8294     1.2431     8.1393 </r>
       <r>    -1.7077     0.5782     8.2097 </r>
       <r>    -1.5861     0.7441     8.3002 </r>
       <r>    -1.4644     1.2391     8.4509 </r>
       <r>    -1.3428     0.8334     8.5523 </r>
       <r>    -1.2211     0.8881     8.6603 </r>
       <r>    -1.0995     1.6434     8.8602 </r>
       <r>    -0.9778     1.8825     9.0892 </r>
       <r>    -0.8562     1.6093     9.2850 </r>
       <r>    -0.7346     2.4807     9.5868 </r>
       <r>    -0.6129     2.0105     9.8314 </r>
       <r>    -0.4913     2.4035    10.1237 </r>
       <r>    -0.3696     1.3420    10.2870 </r>
       <r>    -0.2480     2.0331    10.5343 </r>
       <r>    -0.1263     2.2175    10.8041 </r>
       <r>    -0.0047     2.8396    11.1495 </r>
       <r>     0.1170     1.4687    11.3282 </r>
       <r>     0.2386     1.5713    11.5193 </r>
       <r>     0.3603     0.7895    11.6153 </r>
       <r>     0.4819     1.0557    11.7438 </r>
       <r>     0.6036     1.5566    11.9331 </r>
       <r>     0.7252     0.8935    12.0418 </r>
       <r>     0.8469     1.3501    12.2060 </r>
       <r>     0.9685     1.3062    12.3649 </r>
       <r>     1.0902     1.7174    12.5739 </r>
       <r>     1.2118     0.7646    12.6669 </r>
       <r>     1.3335     0.8758    12.7734 </r>
       <r>     1.4551     1.2978    12.9313 </r>
       <r>     1.5767     1.2043    13.0778 </r>
       <r>     1.6984     0.8041    13.1756 </r>
       <r>     1.8200     1.6460    13.3758 </r>
       <r>     1.9417     1.3701    13.5425 </r>
       <r>     2.0633     2.5345    13.8508 </r>
       <r>     2.1850     1.4768    14.0305 </r>
       <r>     2.3066     2.3913    14.3214 </r>
       <r>     2.4283     2.0449    14.5701 </r>
       <r>     2.5499     2.5830    14.8844 </r>
       <r>     2.6716     1.9338    15.1196 </r>
       <r>     2.7932     1.6808    15.3241 </r>
       <r>     2.9149     1.4175    15.4965 </r>
       <r>     3.0365     1.6474    15.6969 </r>
       <r>     3.1582     3.1491    16.0800 </r>
       <r>     3.2798     3.2497    16.4753 </r>
       <r>     3.4015     1.0753    16.6061 </r>
       <r>     3.5231     1.7373    16.8174 </r>
       <r>     3.6448     2.2620    17.0926 </r>
       <r>     3.7664     2.3021    17.3726 </r>
       <r>     3.8880     2.7447    17.7065 </r>
       <r>     4.0097     2.2701    17.9827 </r>
       <r>     4.1313     2.5599    18.2941 </r>
       <r>     4.2530     1.5659    18.4846 </r>
       <r>     4.3746     2.8979    18.8371 </r>
       <r>     4.4963     3.5897    19.2738 </r>
       <r>     4.6179     3.0593    19.6459 </r>
       <r>     4.7396     2.9691    20.0071 </r>
       <r>     4.8612     2.8517    20.3540 </r>
       <r>     4.9829     2.8351    20.6989 </r>
       <r>     5.1045     2.6941    21.0266 </r>
       <r>     5.2262     4.0283    21.5167 </r>
       <r>     5.3478     4.3650    22.0476 </r>
       <r>     5.4695     2.3187    22.3297 </r>
       <r>     5.5911     1.6046    22.5249 </r>
       <r>     5.7128     2.9976    22.8896 </r>
       <r>     5.8344     3.3656    23.2990 </r>
       <r>     5.9561     4.1195    23.8001 </r>
       <r>     6.0777     2.4609    24.0995 </r>
       <r>     6.1994     2.1572    24.3619 </r>
       <r>     6.3210     3.0995    24.7389 </r>
       <r>     6.4426     2.8936    25.0909 </r>
       <r>     6.5643     2.4732    25.3918 </r>
       <r>     6.6859     3.3047    25.7938 </r>
       <r>     6.8076     2.7228    26.1250 </r>
       <r>     6.9292     2.1140    26.3822 </r>
       <r>     7.0509     2.6682    26.7068 </r>
       <r>     7.1725     3.8080    27.1700 </r>
       <r>     7.2942     2.2164    27.4396 </r>
       <r>     7.4158     2.0237    27.6858 </r>
       <r>     7.5375     2.9394    28.0434 </r>
       <r>     7.6591     1.7434    28.2554 </r>
       <r>     7.7808     3.6187    28.6956 </r>
       <r>     7.9024     3.1625    29.0804 </r>
       <r>     8.0241     1.7129    29.2887 </r>
       <r>     8.1457     1.4115    29.4604 </r>
       <r>     8.2674     2.6995    29.7888 </r>
       <r>     8.3890     1.8965    30.0195 </r>
       <r>     8.5107     2.1303    30.2787 </r>
       <r>     8.6323     1.2380    30.4293 </r>
       <r>     8.7539     0.7280    30.5178 </r>
       <r>     8.8756     1.1283    30.6551 </r>
       <r>     8.9972     1.9127    30.8877 </r>
       <r>     9.1189     1.1133    31.0232 </r>
       <r>     9.2405     0.9876    31.1433 </r>
       <r>     9.3622     0.7643    31.2363 </r>
       <r>     9.4838     0.5290    31.3006 </r>
       <r>     9.6055     1.1931    31.4458 </r>
       <r>     9.7271     0.9036    31.5557 </r>
       <r>     9.8488     0.4920    31.6155 </r>
       <r>     9.9704     0.5725    31.6852 </r>
       <r>    10.0921     0.4611    31.7413 </r>
       <r>    10.2137     0.6915    31.8254 </r>
       <r>    10.3354     0.3405    31.8668 </r>
       <r>    10.4570     0.4369    31.9199 </r>
       <r>    10.5787     0.2423    31.9494 </r>
       <r>    10.7003     0.2568    31.9807 </r>
       <r>    10.8220     0.1438    31.9982 </r>
       <r>    10.9436     0.0152    32.0000 </r>
       <r>    11.0653     0.0000    32.0000 </r>
       <r>    11.1869     0.0000    32.0000 </r>
       <r>    11.3085     0.0000    32.0000 </r>
       <r>    11.4302     0.0000    32.0000 </r>
       <r>    11.5518     0.0000    32.0000 </r>
       <r>    11.6735     0.0000    32.0000 </r>
       <r>    11.7951     0.0000    32.0000 </r>
       <r>    11.9168     0.0000    32.0000 </r>
       <r>    12.0384     0.0000    32.0000 </r>
       <r>    12.1601     0.0000    32.0000 </r>
       <r>    12.2817     0.0000    32.0000 </r>
       <r>    12.4034     0.0000    32.0000 </r>
       <r>    12.5250     0.0000    32.0000 </r>
       <r>    12.6467     0.0000    32.0000 </r>
       <r>    12.7683     0.0000    32.0000 </r>
       <r>    12.8900     0.0000    32.0000 </r>
       <r>    13.0116     0.0000    32.0000 </r>
       <r>    13.1333     0.0000    32.0000 </r>
       <r>    13.2549     0.0000    32.0000 </r>
       <r>    13.3766     0.0000    32.0000 </r>
       <r>    13.4982     0.0000    32.0000 </r>
       <r>    13.6198     0.0000    32.0000 </r>
       <r>    13.7415     0.0000    32.0000 </r>
       <r>    13.8631     0.0000    32.0000 </r>
       <r>    13.9848     0.0000    32.0000 </r>
       <r>    14.1064     0.0000    32.0000 </r>
       <r>    14.2281     0.0000    32.0000 </r>
       <r>    14.3497     0.0000    32.0000 </r>
       <r>    14.4714     0.0000    32.0000 </r>
       <r>    14.5930     0.0000    32.0000 </r>
       <r>    14.7147     0.0000    32.0000 </r>
       <r>    14.8363     0.0000    32.0000 </r>
       <r>    14.9580     0.0001    32.0000 </r>
       <r>    15.0796     0.1364    32.0166 </r>
       <r>    15.2013     0.4063    32.0660 </r>
       <r>    15.3229     0.2520    32.0967 </r>
       <r>    15.4446     0.2687    32.1294 </r>
       <r>    15.5662     1.0987    32.2630 </r>
       <r>    15.6879     0.8211    32.3629 </r>
       <r>    15.8095     0.9266    32.4756 </r>
       <r>    15.9311     0.7536    32.5673 </r>
       <r>    16.0528     0.4767    32.6253 </r>
       <r>    16.1744     1.9697    32.8649 </r>
       <r>    16.2961     1.6701    33.0680 </r>
       <r>    16.4177     1.7363    33.2793 </r>
       <r>    16.5394     1.6360    33.4783 </r>
       <r>    16.6610     1.3382    33.6411 </r>
       <r>    16.7827     1.9327    33.8762 </r>
       <r>    16.9043     1.1780    34.0195 </r>
       <r>    17.0260     2.0499    34.2688 </r>
       <r>    17.1476     2.4368    34.5653 </r>
       <r>    17.2693     2.7364    34.8981 </r>
       <r>    17.3909     2.3609    35.1853 </r>
       <r>    17.5126     1.3797    35.3532 </r>
       <r>    17.6342     1.7172    35.5620 </r>
       <r>    17.7559     3.3277    35.9669 </r>
       <r>    17.8775     2.3621    36.2542 </r>
       <r>    17.9992     2.5528    36.5647 </r>
       <r>    18.1208     1.5109    36.7485 </r>
       <r>    18.2425     2.7318    37.0809 </r>
       <r>    18.3641     3.3914    37.4934 </r>
       <r>    18.4857     3.5445    37.9246 </r>
       <r>    18.6074     3.3347    38.3302 </r>
       <r>    18.7290     3.8188    38.7948 </r>
       <r>    18.8507     3.3209    39.1988 </r>
       <r>    18.9723     2.9218    39.5542 </r>
       <r>    19.0940     3.9183    40.0308 </r>
       <r>    19.2156     3.3815    40.4422 </r>
       <r>    19.3373     4.3727    40.9741 </r>
       <r>    19.4589     4.0017    41.4609 </r>
       <r>    19.5806     6.2506    42.2213 </r>
       <r>    19.7022     3.8392    42.6883 </r>
       <r>    19.8239     2.8150    43.0308 </r>
       <r>    19.9455     3.6021    43.4689 </r>
       <r>    20.0672     2.5478    43.7789 </r>
       <r>    20.1888     2.5557    44.0898 </r>
       <r>    20.3105     2.1119    44.3467 </r>
       <r>    20.4321     2.2993    44.6264 </r>
       <r>    20.5538     4.4894    45.1725 </r>
       <r>    20.6754     2.6508    45.4950 </r>
       <r>    20.7970     3.3306    45.9001 </r>
       <r>    20.9187     2.3121    46.1814 </r>
       <r>    21.0403     2.5155    46.4874 </r>
       <r>    21.1620     2.5528    46.7979 </r>
       <r>    21.2836     1.3579    46.9631 </r>
       <r>    21.4053     0.9912    47.0837 </r>
       <r>    21.5269     1.8157    47.3046 </r>
       <r>    21.6486     1.7564    47.5182 </r>
       <r>    21.7702     1.1640    47.6598 </r>
       <r>    21.8919     1.3470    47.8237 </r>
       <r>    22.0135     0.4142    47.8741 </r>
       <r>    22.1352     0.6205    47.9496 </r>
       <r>    22.2568     0.0917    47.9607 </r>
       <r>    22.3785     0.0353    47.9650 </r>
       <r>    22.5001     0.0000    47.9650 </r>
       <r>    22.6218     0.0326    47.9690 </r>
       <r>    22.7434     0.2513    47.9995 </r>
       <r>    22.8651     0.0037    48.0000 </r>
       <r>    22.9867     0.0000    48.0000 </r>
       <r>    23.1083     0.0000    48.0000 </r>
       <r>    23.2300     0.0000    48.0000 </r>
       <r>    23.3516     0.0000    48.0000 </r>
       <r>    23.4733     0.0000    48.0000 </r>
       <r>    23.5949     0.0000    48.0000 </r>
       <r>    23.7166     0.0000    48.0000 </r>
       <r>    23.8382     0.0000    48.0000 </r>
       <r>    23.9599     0.0000    48.0000 </r>
       <r>    24.0815     0.0000    48.0000 </r>
       <r>    24.2032     0.0000    48.0000 </r>
       <r>    24.3248     0.0000    48.0000 </r>
      </set>
     </set>
    </array>
   </total>
  </dos>
 </calculation>
 <structure name="finalpos" >
  <crystal>
   <varray name="basis" >
    <v>       3.57360507       0.00000000       0.00000000 </v>
    <v>       0.00000000       3.57360507       0.00000000 </v>
    <v>       0.00000000       0.00000000       3.57360507 </v>
   </varray>
   <i name="volume">     45.63727105 </i>
   <varray name="rec_basis" >
    <v>       0.27982947       0.00000000       0.00000000 </v>
    <v>       0.00000000       0.27982947       0.00000000 </v>
    <v>       0.00000000       0.00000000       0.27982947 </v>
   </varray>
  </crystal>
  <varray name="positions" >
   <v>       0.25000000       0.25000000       0.25000000 </v>
   <v>       0.00000000       0.00000000       0.00000000 </v>
   <v>       0.25000000       0.75000000       0.75000000 </v>
   <v>       0.00000000       0.50000000       0.50000000 </v>
   <v>       0.75000000       0.25000000       0.75000000 </v>
   <v>       0.50000000       0.00000000       0.50000000 </v>
   <v>       0.75000000       0.75000000       0.25000000 </v>
   <v>       0.50000000       0.50000000       0.00000000 </v>
  </varray>
 </structure>
</modeling>
