   4   4   0   0
  0.1648649E+02  0.4040137E-09  0.4040137E-09  0.4040137E-09  0.2000000E-15
  1.000000000000000E-004
  CAR 
 unknown system                          
     20.86299200     -1.17642587  301     10.06807750      1.00000000
     -1.176  0.0000E+00  0.0000E+00
     -1.103  0.0000E+00  0.0000E+00
     -1.029  0.0000E+00  0.0000E+00
     -0.956  0.0000E+00  0.0000E+00
     -0.883  0.0000E+00  0.0000E+00
     -0.809  0.0000E+00  0.0000E+00
     -0.736  0.8508E-19  0.6250E-20
     -0.662  0.2221E-15  0.1633E-16
     -0.589  0.2002E-12  0.1473E-13
     -0.515  0.6468E-10  0.4766E-11
     -0.442  0.7754E-08  0.5744E-09
     -0.368  0.3647E-06  0.2737E-07
     -0.295  0.7256E-05  0.5604E-06
     -0.221  0.6612E-04  0.5418E-05
     -0.148  0.2948E-03  0.2707E-04
     -0.074  0.6892E-03  0.7770E-04
     -0.001  0.1025E-02  0.1530E-03
      0.072  0.1419E-02  0.2573E-03
      0.146  0.1756E-02  0.3863E-03
      0.219  0.1678E-02  0.5096E-03
      0.293  0.1970E-02  0.6543E-03
      0.366  0.2479E-02  0.8364E-03
      0.440  0.2519E-02  0.1022E-02
      0.513  0.2645E-02  0.1216E-02
      0.587  0.2685E-02  0.1413E-02
      0.660  0.2586E-02  0.1603E-02
      0.734  0.3327E-02  0.1847E-02
      0.807  0.3837E-02  0.2129E-02
      0.881  0.3868E-02  0.2414E-02
      0.954  0.3399E-02  0.2663E-02
      1.028  0.2946E-02  0.2880E-02
      1.101  0.4011E-02  0.3174E-02
      1.174  0.5072E-02  0.3547E-02
      1.248  0.4979E-02  0.3913E-02
      1.321  0.4545E-02  0.4247E-02
      1.395  0.4450E-02  0.4574E-02
      1.468  0.5082E-02  0.4947E-02
      1.542  0.5464E-02  0.5348E-02
      1.615  0.5469E-02  0.5750E-02
      1.689  0.5607E-02  0.6162E-02
      1.762  0.6673E-02  0.6652E-02
      1.836  0.7742E-02  0.7221E-02
      1.909  0.7178E-02  0.7749E-02
      1.983  0.6711E-02  0.8242E-02
      2.056  0.6707E-02  0.8734E-02
      2.129  0.8335E-02  0.9347E-02
      2.203  0.1127E-01  0.1017E-01
      2.276  0.1206E-01  0.1106E-01
      2.350  0.1170E-01  0.1192E-01
      2.423  0.1610E-01  0.1310E-01
      2.497  0.2262E-01  0.1476E-01
      2.570  0.2594E-01  0.1667E-01
      2.644  0.2713E-01  0.1866E-01
      2.717  0.2858E-01  0.2076E-01
      2.791  0.3360E-01  0.2323E-01
      2.864  0.4041E-01  0.2620E-01
      2.938  0.4598E-01  0.2958E-01
      3.011  0.5082E-01  0.3331E-01
      3.085  0.5622E-01  0.3744E-01
      3.158  0.6439E-01  0.4217E-01
      3.231  0.7054E-01  0.4735E-01
      3.305  0.7177E-01  0.5263E-01
      3.378  0.7092E-01  0.5784E-01
      3.452  0.7107E-01  0.6306E-01
      3.525  0.6871E-01  0.6810E-01
      3.599  0.6311E-01  0.7274E-01
      3.672  0.6350E-01  0.7741E-01
      3.746  0.6439E-01  0.8214E-01
      3.819  0.6029E-01  0.8657E-01
      3.893  0.5836E-01  0.9085E-01
      3.966  0.5432E-01  0.9484E-01
      4.040  0.4613E-01  0.9823E-01
      4.113  0.4635E-01  0.1016E+00
      4.186  0.5126E-01  0.1054E+00
      4.260  0.5567E-01  0.1095E+00
      4.333  0.6067E-01  0.1140E+00
      4.407  0.6741E-01  0.1189E+00
      4.480  0.7117E-01  0.1241E+00
      4.554  0.7331E-01  0.1295E+00
      4.627  0.7437E-01  0.1350E+00
      4.701  0.7058E-01  0.1402E+00
      4.774  0.7161E-01  0.1454E+00
      4.848  0.7652E-01  0.1510E+00
      4.921  0.7882E-01  0.1568E+00
      4.995  0.7787E-01  0.1626E+00
      5.068  0.7668E-01  0.1682E+00
      5.142  0.8054E-01  0.1741E+00
      5.215  0.8934E-01  0.1807E+00
      5.288  0.1006E+00  0.1881E+00
      5.362  0.1089E+00  0.1961E+00
      5.435  0.1165E+00  0.2046E+00
      5.509  0.1231E+00  0.2137E+00
      5.582  0.1141E+00  0.2220E+00
      5.656  0.9254E-01  0.2288E+00
      5.729  0.7960E-01  0.2347E+00
      5.803  0.7242E-01  0.2400E+00
      5.876  0.6526E-01  0.2448E+00
      5.950  0.6280E-01  0.2494E+00
      6.023  0.6166E-01  0.2540E+00
      6.097  0.5986E-01  0.2583E+00
      6.170  0.6000E-01  0.2628E+00
      6.244  0.6207E-01  0.2673E+00
      6.317  0.6876E-01  0.2724E+00
      6.390  0.7600E-01  0.2780E+00
      6.464  0.7480E-01  0.2834E+00
      6.537  0.7478E-01  0.2889E+00
      6.611  0.8166E-01  0.2949E+00
      6.684  0.8411E-01  0.3011E+00
      6.758  0.7741E-01  0.3068E+00
      6.831  0.6928E-01  0.3119E+00
      6.905  0.6834E-01  0.3169E+00
      6.978  0.7041E-01  0.3221E+00
      7.052  0.6791E-01  0.3271E+00
      7.125  0.6080E-01  0.3315E+00
      7.199  0.5497E-01  0.3356E+00
      7.272  0.5776E-01  0.3398E+00
      7.345  0.6361E-01  0.3445E+00
      7.419  0.6595E-01  0.3493E+00
      7.492  0.6223E-01  0.3539E+00
      7.566  0.5888E-01  0.3582E+00
      7.639  0.6766E-01  0.3632E+00
      7.713  0.7540E-01  0.3687E+00
      7.786  0.7606E-01  0.3743E+00
      7.860  0.8552E-01  0.3806E+00
      7.933  0.1076E+00  0.3885E+00
      8.007  0.1134E+00  0.3969E+00
      8.080  0.9651E-01  0.4039E+00
      8.154  0.7660E-01  0.4096E+00
      8.227  0.5706E-01  0.4138E+00
      8.301  0.4609E-01  0.4171E+00
      8.374  0.4214E-01  0.4202E+00
      8.447  0.2844E-01  0.4223E+00
      8.521  0.1260E-01  0.4233E+00
      8.594  0.6406E-02  0.4237E+00
      8.668  0.6306E-02  0.4242E+00
      8.741  0.8847E-02  0.4248E+00
      8.815  0.1304E-01  0.4258E+00
      8.888  0.1597E-01  0.4270E+00
      8.962  0.1294E-01  0.4279E+00
      9.035  0.9201E-02  0.4286E+00
      9.109  0.9320E-02  0.4293E+00
      9.182  0.9776E-02  0.4300E+00
      9.256  0.1037E-01  0.4308E+00
      9.329  0.1315E-01  0.4317E+00
      9.402  0.1429E-01  0.4328E+00
      9.476  0.1134E-01  0.4336E+00
      9.549  0.9015E-02  0.4343E+00
      9.623  0.8128E-02  0.4349E+00
      9.696  0.8999E-02  0.4355E+00
      9.770  0.1176E-01  0.4364E+00
      9.843  0.1366E-01  0.4374E+00
      9.917  0.1332E-01  0.4384E+00
      9.990  0.1135E-01  0.4392E+00
     10.064  0.1011E-01  0.4400E+00
     10.137  0.9013E-02  0.4406E+00
     10.211  0.8876E-02  0.4413E+00
     10.284  0.1114E-01  0.4421E+00
     10.358  0.1391E-01  0.4431E+00
     10.431  0.1462E-01  0.4442E+00
     10.504  0.1141E-01  0.4450E+00
     10.578  0.7446E-02  0.4456E+00
     10.651  0.6998E-02  0.4461E+00
     10.725  0.9945E-02  0.4468E+00
     10.798  0.1166E-01  0.4477E+00
     10.872  0.1131E-01  0.4485E+00
     10.945  0.1264E-01  0.4494E+00
     11.019  0.1381E-01  0.4504E+00
     11.092  0.1175E-01  0.4513E+00
     11.166  0.9887E-02  0.4520E+00
     11.239  0.1035E-01  0.4528E+00
     11.313  0.1035E-01  0.4536E+00
     11.386  0.9747E-02  0.4543E+00
     11.460  0.9991E-02  0.4550E+00
     11.533  0.9977E-02  0.4557E+00
     11.606  0.9927E-02  0.4565E+00
     11.680  0.1136E-01  0.4573E+00
     11.753  0.1203E-01  0.4582E+00
     11.827  0.1072E-01  0.4590E+00
     11.900  0.8900E-02  0.4596E+00
     11.974  0.9403E-02  0.4603E+00
     12.047  0.1023E-01  0.4611E+00
     12.121  0.9714E-02  0.4618E+00
     12.194  0.1106E-01  0.4626E+00
     12.268  0.1223E-01  0.4635E+00
     12.341  0.1044E-01  0.4643E+00
     12.415  0.8226E-02  0.4649E+00
     12.488  0.6487E-02  0.4653E+00
     12.561  0.6430E-02  0.4658E+00
     12.635  0.9704E-02  0.4665E+00
     12.708  0.1272E-01  0.4675E+00
     12.782  0.1130E-01  0.4683E+00
     12.855  0.8033E-02  0.4689E+00
     12.929  0.7317E-02  0.4694E+00
     13.002  0.7747E-02  0.4700E+00
     13.076  0.8351E-02  0.4706E+00
     13.149  0.1011E-01  0.4713E+00
     13.223  0.1471E-01  0.4724E+00
     13.296  0.2099E-01  0.4740E+00
     13.370  0.2120E-01  0.4755E+00
     13.443  0.1425E-01  0.4766E+00
     13.517  0.1031E-01  0.4773E+00
     13.590  0.1251E-01  0.4782E+00
     13.663  0.1679E-01  0.4795E+00
     13.737  0.1722E-01  0.4807E+00
     13.810  0.1557E-01  0.4819E+00
     13.884  0.1346E-01  0.4829E+00
     13.957  0.9346E-02  0.4836E+00
     14.031  0.7238E-02  0.4841E+00
     14.104  0.7905E-02  0.4847E+00
     14.178  0.1034E-01  0.4854E+00
     14.251  0.1249E-01  0.4864E+00
     14.325  0.1431E-01  0.4874E+00
     14.398  0.1384E-01  0.4884E+00
     14.472  0.1076E-01  0.4892E+00
     14.545  0.8377E-02  0.4898E+00
     14.618  0.6831E-02  0.4903E+00
     14.692  0.8165E-02  0.4909E+00
     14.765  0.1271E-01  0.4919E+00
     14.839  0.1411E-01  0.4929E+00
     14.912  0.1199E-01  0.4938E+00
     14.986  0.1051E-01  0.4946E+00
     15.059  0.1137E-01  0.4954E+00
     15.133  0.1311E-01  0.4964E+00
     15.206  0.1346E-01  0.4973E+00
     15.280  0.1539E-01  0.4985E+00
     15.353  0.1554E-01  0.4996E+00
     15.427  0.1131E-01  0.5004E+00
     15.500  0.8034E-02  0.5010E+00
     15.574  0.9464E-02  0.5017E+00
     15.647  0.1286E-01  0.5027E+00
     15.720  0.1328E-01  0.5037E+00
     15.794  0.1455E-01  0.5047E+00
     15.867  0.1719E-01  0.5060E+00
     15.941  0.1731E-01  0.5073E+00
     16.014  0.1585E-01  0.5084E+00
     16.088  0.1494E-01  0.5095E+00
     16.161  0.1236E-01  0.5104E+00
     16.235  0.8597E-02  0.5111E+00
     16.308  0.7296E-02  0.5116E+00
     16.382  0.9691E-02  0.5123E+00
     16.455  0.1370E-01  0.5133E+00
     16.529  0.1510E-01  0.5144E+00
     16.602  0.1160E-01  0.5153E+00
     16.676  0.7519E-02  0.5158E+00
     16.749  0.7023E-02  0.5163E+00
     16.822  0.7908E-02  0.5169E+00
     16.896  0.1005E-01  0.5177E+00
     16.969  0.1158E-01  0.5185E+00
     17.043  0.1208E-01  0.5194E+00
     17.116  0.1194E-01  0.5203E+00
     17.190  0.1014E-01  0.5210E+00
     17.263  0.7571E-02  0.5216E+00
     17.337  0.7332E-02  0.5221E+00
     17.410  0.1031E-01  0.5229E+00
     17.484  0.1434E-01  0.5239E+00
     17.557  0.1604E-01  0.5251E+00
     17.631  0.1199E-01  0.5260E+00
     17.704  0.7579E-02  0.5265E+00
     17.777  0.8784E-02  0.5272E+00
     17.851  0.1161E-01  0.5280E+00
     17.924  0.1012E-01  0.5288E+00
     17.998  0.7032E-02  0.5293E+00
     18.071  0.8655E-02  0.5299E+00
     18.145  0.1312E-01  0.5309E+00
     18.218  0.1480E-01  0.5320E+00
     18.292  0.1290E-01  0.5329E+00
     18.365  0.9672E-02  0.5336E+00
     18.439  0.9265E-02  0.5343E+00
     18.512  0.9159E-02  0.5350E+00
     18.586  0.7298E-02  0.5355E+00
     18.659  0.6021E-02  0.5360E+00
     18.733  0.6828E-02  0.5365E+00
     18.806  0.8861E-02  0.5371E+00
     18.879  0.7685E-02  0.5377E+00
     18.953  0.4186E-02  0.5380E+00
     19.026  0.2378E-02  0.5382E+00
     19.100  0.1792E-02  0.5383E+00
     19.173  0.2080E-02  0.5385E+00
     19.247  0.2589E-02  0.5387E+00
     19.320  0.3080E-02  0.5389E+00
     19.394  0.3447E-02  0.5391E+00
     19.467  0.3069E-02  0.5394E+00
     19.541  0.2385E-02  0.5395E+00
     19.614  0.1741E-02  0.5397E+00
     19.688  0.1028E-02  0.5397E+00
     19.761  0.1249E-02  0.5398E+00
     19.834  0.1469E-02  0.5399E+00
     19.908  0.7376E-03  0.5400E+00
     19.981  0.1539E-03  0.5400E+00
     20.055  0.1462E-04  0.5400E+00
     20.128  0.6763E-06  0.5400E+00
     20.202  0.1432E-07  0.5400E+00
     20.275  0.1226E-09  0.5400E+00
     20.349  0.3884E-12  0.5400E+00
     20.422  0.4373E-15  0.5400E+00
     20.496  0.1791E-18  0.5400E+00
     20.569  0.0000E+00  0.5400E+00
     20.643  0.0000E+00  0.5400E+00
     20.716  0.0000E+00  0.5400E+00
     20.790  0.0000E+00  0.5400E+00
     20.863  0.0000E+00  0.5400E+00
