       N       E                     dE             d eps       ncg     rms          rms(c)
DAV:   1     0.281395338962E+03    0.28140E+03   -0.22848E+04 92043   0.154E+03
DAV:   2    -0.868182844127E+01   -0.29008E+03   -0.28255E+03104544   0.336E+02
DAV:   3    -0.136747351394E+02   -0.49929E+01   -0.49653E+01101844   0.468E+01
DAV:   4    -0.137020110891E+02   -0.27276E-01   -0.27268E-01105120   0.355E+00
DAV:   5    -0.137022492957E+02   -0.23821E-03   -0.23820E-03107037   0.349E-01    0.209E+01
RMM:   6    -0.127275664222E+02    0.97468E+00   -0.22825E+00 91152   0.101E+01    0.130E+01
RMM:   7    -0.126445216266E+02    0.83045E-01   -0.44171E-01 91172   0.431E+00    0.474E+00
RMM:   8    -0.126317412207E+02    0.12780E-01   -0.30573E-02 91164   0.117E+00    0.603E-01
RMM:   9    -0.126316318653E+02    0.10936E-03   -0.19764E-04 91172   0.785E-02    0.504E-02
RMM:  10    -0.126316402595E+02   -0.83942E-05   -0.13103E-05 90732   0.295E-02    0.465E-02
RMM:  11    -0.126316434410E+02   -0.31815E-05   -0.71125E-07 49956   0.561E-03    0.946E-04
RMM:  12    -0.126316433925E+02    0.48480E-07   -0.10107E-07 38144   0.211E-03
   1 F= -.12631643E+02 E0= -.12629256E+02  d E =-.126316E+02
