   4   4   0   0
  0.1716772E+02  0.4095034E-09  0.4095034E-09  0.4095034E-09  0.2000000E-15
  1.000000000000000E-004
  CAR 
 unknown system                          
     19.96738901     -1.42600147  301      9.38931492      1.00000000
     -1.426  0.0000E+00  0.0000E+00
     -1.355  0.0000E+00  0.0000E+00
     -1.283  0.0000E+00  0.0000E+00
     -1.212  0.0000E+00  0.0000E+00
     -1.141  0.0000E+00  0.0000E+00
     -1.069  0.0000E+00  0.0000E+00
     -0.998  0.2306E-19  0.1645E-20
     -0.927  0.6011E-16  0.4288E-17
     -0.856  0.5426E-13  0.3874E-14
     -0.784  0.1858E-10  0.1329E-11
     -0.713  0.2483E-08  0.1784E-09
     -0.642  0.1355E-06  0.9843E-08
     -0.570  0.3215E-05  0.2391E-06
     -0.499  0.3550E-04  0.2770E-05
     -0.428  0.1938E-03  0.1659E-04
     -0.356  0.5541E-03  0.5611E-04
     -0.285  0.9410E-03  0.1232E-03
     -0.214  0.1306E-02  0.2164E-03
     -0.142  0.1729E-02  0.3397E-03
     -0.071  0.1780E-02  0.4667E-03
      0.000  0.1882E-02  0.6009E-03
      0.072  0.2417E-02  0.7732E-03
      0.143  0.2621E-02  0.9602E-03
      0.214  0.2670E-02  0.1151E-02
      0.285  0.2810E-02  0.1351E-02
      0.357  0.2663E-02  0.1541E-02
      0.428  0.3159E-02  0.1766E-02
      0.499  0.3864E-02  0.2042E-02
      0.571  0.4005E-02  0.2327E-02
      0.642  0.3715E-02  0.2592E-02
      0.713  0.3101E-02  0.2813E-02
      0.785  0.3724E-02  0.3079E-02
      0.856  0.5004E-02  0.3436E-02
      0.927  0.5221E-02  0.3808E-02
      0.999  0.4827E-02  0.4152E-02
      1.070  0.4552E-02  0.4477E-02
      1.141  0.5025E-02  0.4835E-02
      1.213  0.5562E-02  0.5232E-02
      1.284  0.5615E-02  0.5632E-02
      1.355  0.5702E-02  0.6039E-02
      1.426  0.6479E-02  0.6501E-02
      1.498  0.7753E-02  0.7054E-02
      1.569  0.7565E-02  0.7593E-02
      1.640  0.6972E-02  0.8090E-02
      1.712  0.6798E-02  0.8575E-02
      1.783  0.7812E-02  0.9132E-02
      1.854  0.1060E-01  0.9888E-02
      1.926  0.1221E-01  0.1076E-01
      1.997  0.1135E-01  0.1157E-01
      2.068  0.1352E-01  0.1253E-01
      2.140  0.2005E-01  0.1396E-01
      2.211  0.2511E-01  0.1575E-01
      2.282  0.2718E-01  0.1769E-01
      2.353  0.2776E-01  0.1967E-01
      2.425  0.3061E-01  0.2185E-01
      2.496  0.3774E-01  0.2454E-01
      2.567  0.4413E-01  0.2769E-01
      2.639  0.4908E-01  0.3119E-01
      2.710  0.5466E-01  0.3509E-01
      2.781  0.6247E-01  0.3954E-01
      2.853  0.7020E-01  0.4455E-01
      2.924  0.7455E-01  0.4987E-01
      2.995  0.7525E-01  0.5523E-01
      3.067  0.7430E-01  0.6053E-01
      3.138  0.7379E-01  0.6579E-01
      3.209  0.6933E-01  0.7074E-01
      3.281  0.6600E-01  0.7544E-01
      3.352  0.6763E-01  0.8027E-01
      3.423  0.6524E-01  0.8492E-01
      3.494  0.6185E-01  0.8933E-01
      3.566  0.5916E-01  0.9355E-01
      3.637  0.5144E-01  0.9722E-01
      3.708  0.4858E-01  0.1007E+00
      3.780  0.5282E-01  0.1044E+00
      3.851  0.5765E-01  0.1086E+00
      3.922  0.6333E-01  0.1131E+00
      3.994  0.7044E-01  0.1181E+00
      4.065  0.7570E-01  0.1235E+00
      4.136  0.7863E-01  0.1291E+00
      4.208  0.7968E-01  0.1348E+00
      4.279  0.7646E-01  0.1402E+00
      4.350  0.7741E-01  0.1458E+00
      4.422  0.8212E-01  0.1516E+00
      4.493  0.8408E-01  0.1576E+00
      4.564  0.8294E-01  0.1635E+00
      4.635  0.8303E-01  0.1694E+00
      4.707  0.8825E-01  0.1757E+00
      4.778  0.9847E-01  0.1828E+00
      4.849  0.1109E+00  0.1907E+00
      4.921  0.1206E+00  0.1993E+00
      4.992  0.1288E+00  0.2085E+00
      5.063  0.1285E+00  0.2176E+00
      5.135  0.1096E+00  0.2254E+00
      5.206  0.8987E-01  0.2318E+00
      5.277  0.8067E-01  0.2376E+00
      5.349  0.7280E-01  0.2428E+00
      5.420  0.6815E-01  0.2477E+00
      5.491  0.6644E-01  0.2524E+00
      5.563  0.6437E-01  0.2570E+00
      5.634  0.6413E-01  0.2616E+00
      5.705  0.6654E-01  0.2663E+00
      5.776  0.7279E-01  0.2715E+00
      5.848  0.8108E-01  0.2773E+00
      5.919  0.8180E-01  0.2831E+00
      5.990  0.8092E-01  0.2889E+00
      6.062  0.8641E-01  0.2950E+00
      6.133  0.8922E-01  0.3014E+00
      6.204  0.8299E-01  0.3073E+00
      6.276  0.7474E-01  0.3126E+00
      6.347  0.7392E-01  0.3179E+00
      6.418  0.7535E-01  0.3233E+00
      6.490  0.7161E-01  0.3284E+00
      6.561  0.6421E-01  0.3330E+00
      6.632  0.6009E-01  0.3373E+00
      6.703  0.6389E-01  0.3418E+00
      6.775  0.6950E-01  0.3468E+00
      6.846  0.7029E-01  0.3518E+00
      6.917  0.6552E-01  0.3565E+00
      6.989  0.6937E-01  0.3614E+00
      7.060  0.7913E-01  0.3670E+00
      7.131  0.8235E-01  0.3729E+00
      7.203  0.9023E-01  0.3794E+00
      7.274  0.1117E+00  0.3873E+00
      7.345  0.1217E+00  0.3960E+00
      7.417  0.1060E+00  0.4036E+00
      7.488  0.8305E-01  0.4095E+00
      7.559  0.6036E-01  0.4138E+00
      7.631  0.4637E-01  0.4171E+00
      7.702  0.4096E-01  0.4200E+00
      7.773  0.2938E-01  0.4221E+00
      7.844  0.1400E-01  0.4231E+00
      7.916  0.6571E-02  0.4236E+00
      7.987  0.5972E-02  0.4240E+00
      8.058  0.8833E-02  0.4246E+00
      8.130  0.1390E-01  0.4256E+00
      8.201  0.1646E-01  0.4268E+00
      8.272  0.1320E-01  0.4277E+00
      8.344  0.8799E-02  0.4284E+00
      8.415  0.8304E-02  0.4289E+00
      8.486  0.1032E-01  0.4297E+00
      8.558  0.1218E-01  0.4306E+00
      8.629  0.1336E-01  0.4315E+00
      8.700  0.1367E-01  0.4325E+00
      8.772  0.1200E-01  0.4333E+00
      8.843  0.9732E-02  0.4340E+00
      8.914  0.8717E-02  0.4347E+00
      8.985  0.9390E-02  0.4353E+00
      9.057  0.1223E-01  0.4362E+00
      9.128  0.1423E-01  0.4372E+00
      9.199  0.1351E-01  0.4382E+00
      9.271  0.1097E-01  0.4390E+00
      9.342  0.8949E-02  0.4396E+00
      9.413  0.8728E-02  0.4402E+00
      9.485  0.1017E-01  0.4409E+00
      9.556  0.1251E-01  0.4418E+00
      9.627  0.1428E-01  0.4429E+00
      9.699  0.1497E-01  0.4439E+00
      9.770  0.1311E-01  0.4449E+00
      9.841  0.8522E-02  0.4455E+00
      9.912  0.6105E-02  0.4459E+00
      9.984  0.8356E-02  0.4465E+00
     10.055  0.1154E-01  0.4473E+00
     10.126  0.1238E-01  0.4482E+00
     10.198  0.1242E-01  0.4491E+00
     10.269  0.1343E-01  0.4500E+00
     10.340  0.1308E-01  0.4510E+00
     10.412  0.1062E-01  0.4517E+00
     10.483  0.1010E-01  0.4525E+00
     10.554  0.1100E-01  0.4532E+00
     10.626  0.1073E-01  0.4540E+00
     10.697  0.1052E-01  0.4548E+00
     10.768  0.1024E-01  0.4555E+00
     10.840  0.9793E-02  0.4562E+00
     10.911  0.1140E-01  0.4570E+00
     10.982  0.1248E-01  0.4579E+00
     11.053  0.1122E-01  0.4587E+00
     11.125  0.9804E-02  0.4594E+00
     11.196  0.9163E-02  0.4600E+00
     11.267  0.9494E-02  0.4607E+00
     11.339  0.1068E-01  0.4615E+00
     11.410  0.1246E-01  0.4624E+00
     11.481  0.1242E-01  0.4632E+00
     11.553  0.1015E-01  0.4640E+00
     11.624  0.9170E-02  0.4646E+00
     11.695  0.7911E-02  0.4652E+00
     11.767  0.6936E-02  0.4657E+00
     11.838  0.9245E-02  0.4663E+00
     11.909  0.1228E-01  0.4672E+00
     11.981  0.1205E-01  0.4681E+00
     12.052  0.9301E-02  0.4687E+00
     12.123  0.7550E-02  0.4693E+00
     12.194  0.7463E-02  0.4698E+00
     12.266  0.9499E-02  0.4705E+00
     12.337  0.1435E-01  0.4715E+00
     12.408  0.2135E-01  0.4730E+00
     12.480  0.2284E-01  0.4747E+00
     12.551  0.1687E-01  0.4759E+00
     12.622  0.1145E-01  0.4767E+00
     12.694  0.1123E-01  0.4775E+00
     12.765  0.1496E-01  0.4786E+00
     12.836  0.1701E-01  0.4798E+00
     12.908  0.1550E-01  0.4809E+00
     12.979  0.1440E-01  0.4819E+00
     13.050  0.1255E-01  0.4828E+00
     13.122  0.8293E-02  0.4834E+00
     13.193  0.7629E-02  0.4839E+00
     13.264  0.1062E-01  0.4847E+00
     13.335  0.1210E-01  0.4855E+00
     13.407  0.1120E-01  0.4863E+00
     13.478  0.1221E-01  0.4872E+00
     13.549  0.1359E-01  0.4882E+00
     13.621  0.1075E-01  0.4890E+00
     13.692  0.8283E-02  0.4895E+00
     13.763  0.7714E-02  0.4901E+00
     13.835  0.8361E-02  0.4907E+00
     13.906  0.1126E-01  0.4915E+00
     13.977  0.1404E-01  0.4925E+00
     14.049  0.1391E-01  0.4935E+00
     14.120  0.1250E-01  0.4944E+00
     14.191  0.1068E-01  0.4951E+00
     14.262  0.1103E-01  0.4959E+00
     14.334  0.1353E-01  0.4969E+00
     14.405  0.1524E-01  0.4980E+00
     14.476  0.1671E-01  0.4992E+00
     14.548  0.1378E-01  0.5002E+00
     14.619  0.9519E-02  0.5008E+00
     14.690  0.8637E-02  0.5014E+00
     14.762  0.1210E-01  0.5023E+00
     14.833  0.1521E-01  0.5034E+00
     14.904  0.1522E-01  0.5045E+00
     14.976  0.1584E-01  0.5056E+00
     15.047  0.1779E-01  0.5069E+00
     15.118  0.1759E-01  0.5081E+00
     15.190  0.1484E-01  0.5092E+00
     15.261  0.1321E-01  0.5101E+00
     15.332  0.1081E-01  0.5109E+00
     15.403  0.8113E-02  0.5115E+00
     15.475  0.8560E-02  0.5121E+00
     15.546  0.1156E-01  0.5129E+00
     15.617  0.1426E-01  0.5139E+00
     15.689  0.1392E-01  0.5149E+00
     15.760  0.9601E-02  0.5156E+00
     15.831  0.7372E-02  0.5161E+00
     15.903  0.7560E-02  0.5167E+00
     15.974  0.8630E-02  0.5173E+00
     16.045  0.1063E-01  0.5181E+00
     16.117  0.1235E-01  0.5189E+00
     16.188  0.1273E-01  0.5198E+00
     16.259  0.1167E-01  0.5207E+00
     16.331  0.9866E-02  0.5214E+00
     16.402  0.8083E-02  0.5220E+00
     16.473  0.9366E-02  0.5226E+00
     16.544  0.1255E-01  0.5235E+00
     16.616  0.1561E-01  0.5246E+00
     16.687  0.1451E-01  0.5257E+00
     16.758  0.8931E-02  0.5263E+00
     16.830  0.7092E-02  0.5268E+00
     16.901  0.9876E-02  0.5275E+00
     16.972  0.1104E-01  0.5283E+00
     17.044  0.8918E-02  0.5289E+00
     17.115  0.7580E-02  0.5295E+00
     17.186  0.1060E-01  0.5302E+00
     17.258  0.1558E-01  0.5313E+00
     17.329  0.1600E-01  0.5325E+00
     17.400  0.1152E-01  0.5333E+00
     17.471  0.8876E-02  0.5339E+00
     17.543  0.9203E-02  0.5346E+00
     17.614  0.8022E-02  0.5352E+00
     17.685  0.6402E-02  0.5356E+00
     17.757  0.6102E-02  0.5361E+00
     17.828  0.7917E-02  0.5366E+00
     17.899  0.9726E-02  0.5373E+00
     17.971  0.7281E-02  0.5378E+00
     18.042  0.3659E-02  0.5381E+00
     18.113  0.2072E-02  0.5382E+00
     18.185  0.1969E-02  0.5384E+00
     18.256  0.2397E-02  0.5386E+00
     18.327  0.2675E-02  0.5387E+00
     18.399  0.3077E-02  0.5390E+00
     18.470  0.3289E-02  0.5392E+00
     18.541  0.2862E-02  0.5394E+00
     18.612  0.2284E-02  0.5396E+00
     18.684  0.1613E-02  0.5397E+00
     18.755  0.1112E-02  0.5398E+00
     18.826  0.1413E-02  0.5399E+00
     18.898  0.1269E-02  0.5399E+00
     18.969  0.5390E-03  0.5400E+00
     19.040  0.1377E-03  0.5400E+00
     19.112  0.2805E-04  0.5400E+00
     19.183  0.3483E-05  0.5400E+00
     19.254  0.1910E-06  0.5400E+00
     19.326  0.4123E-08  0.5400E+00
     19.397  0.3380E-10  0.5400E+00
     19.468  0.1035E-12  0.5400E+00
     19.540  0.1175E-15  0.5400E+00
     19.611  0.3690E-19  0.5400E+00
     19.682  0.0000E+00  0.5400E+00
     19.753  0.0000E+00  0.5400E+00
     19.825  0.0000E+00  0.5400E+00
     19.896  0.0000E+00  0.5400E+00
     19.967  0.0000E+00  0.5400E+00
