 running on   24 total cores
 distrk:  each k-point on   24 cores,    1 groups
 distr:  one band on    8 cores,    3 groups
 using from now: INCAR     
 vasp.5.4.4.18Apr17-6-g9f103f2a35 (build Jan 14 2019 14:48:31) complex          
  
 POSCAR found type information on POSCAR  Au
 POSCAR found :  1 types and       4 ions
 scaLAPACK will be used
 LDA part: xc-table for Pade appr. of Perdew
 POSCAR found type information on POSCAR  Au
 POSCAR found :  1 types and       4 ions
 POSCAR, INCAR and KPOINTS ok, starting setup
 FFT: planning ...
 WAVECAR not read
 entering main loop
       N       E                     dE             d eps       ncg     rms          rms(c)
DAV:   1     0.277988681215E+03    0.27799E+03   -0.22730E+04 91926   0.153E+03
DAV:   2    -0.886797206301E+01   -0.28686E+03   -0.27916E+03105021   0.332E+02
DAV:   3    -0.138567655598E+02   -0.49888E+01   -0.49599E+01101880   0.462E+01
DAV:   4    -0.138848870267E+02   -0.28121E-01   -0.28112E-01104949   0.357E+00
DAV:   5    -0.138851430995E+02   -0.25607E-03   -0.25606E-03106839   0.357E-01    0.184E+01
RMM:   6    -0.129019453589E+02    0.98320E+00   -0.24275E+00 91152   0.103E+01    0.117E+01
RMM:   7    -0.128303586896E+02    0.71587E-01   -0.37884E-01 91196   0.393E+00    0.482E+00
RMM:   8    -0.128199384473E+02    0.10420E-01   -0.21793E-02 91176   0.973E-01    0.571E-01
RMM:   9    -0.128198258493E+02    0.11260E-03   -0.22162E-04 91196   0.830E-02    0.451E-02
RMM:  10    -0.128198371036E+02   -0.11254E-04   -0.14512E-05 90613   0.304E-02    0.402E-02
RMM:  11    -0.128198396853E+02   -0.25817E-05   -0.60406E-07 50063   0.472E-03    0.821E-04
RMM:  12    -0.128198396184E+02    0.66888E-07   -0.11175E-07 40327   0.218E-03
   1 F= -.12819840E+02 E0= -.12817644E+02  d E =-.128198E+02
 curvature:   0.00 expect dE= 0.000E+00 dE for cont linesearch  0.000E+00
 trial: gam= 0.00000 g(F)=  0.390E-14 g(S)=  0.000E+00 ort = 0.000E+00 (trialstep = 0.100E+01)
 search vector abs. value=  0.100E-09
 reached required accuracy - stopping structural energy minimisation
