unknown system                          
           1
     4.095034   -0.000000   -0.000000
    -0.000000    4.095034    0.000000
    -0.000000    0.000000    4.095034
   Au
   4
Direct configuration=     1
   1.00000000  0.00000000  0.00000000
   0.00000000  0.50000000  0.50000000
   0.50000000  1.00000000  0.50000000
   0.50000000  0.50000000  1.00000000
