   4   4   0   0
  0.2273752E+02  0.4497119E-09  0.4497119E-09  0.4497119E-09  0.2000000E-15
  1.000000000000000E-004
  CAR 
 unknown system                          
     14.32753283     -2.81996870  301      5.38181684      1.00000000
     -2.820  0.0000E+00  0.0000E+00
     -2.763  0.0000E+00  0.0000E+00
     -2.706  0.0000E+00  0.0000E+00
     -2.648  0.0000E+00  0.0000E+00
     -2.591  0.0000E+00  0.0000E+00
     -2.534  0.0000E+00  0.0000E+00
     -2.477  0.0000E+00  0.0000E+00
     -2.420  0.0000E+00  0.0000E+00
     -2.363  0.8920E-18  0.5099E-19
     -2.306  0.3717E-15  0.2129E-16
     -2.248  0.8169E-13  0.4691E-14
     -2.191  0.9722E-11  0.5604E-12
     -2.134  0.6353E-09  0.3687E-10
     -2.077  0.2320E-07  0.1363E-08
     -2.020  0.4832E-06  0.2898E-07
     -1.963  0.5865E-05  0.3642E-06
     -1.905  0.4238E-04  0.2787E-05
     -1.848  0.1865E-03  0.1344E-04
     -1.791  0.5182E-03  0.4306E-04
     -1.734  0.9853E-03  0.9938E-04
     -1.677  0.1479E-02  0.1839E-03
     -1.620  0.1946E-02  0.2952E-03
     -1.562  0.2229E-02  0.4226E-03
     -1.505  0.2425E-02  0.5612E-03
     -1.448  0.2827E-02  0.7228E-03
     -1.391  0.3204E-02  0.9059E-03
     -1.334  0.3373E-02  0.1099E-02
     -1.277  0.3467E-02  0.1297E-02
     -1.220  0.3530E-02  0.1499E-02
     -1.162  0.3910E-02  0.1722E-02
     -1.105  0.4567E-02  0.1983E-02
     -1.048  0.4885E-02  0.2262E-02
     -0.991  0.4664E-02  0.2529E-02
     -0.934  0.4300E-02  0.2775E-02
     -0.877  0.4695E-02  0.3043E-02
     -0.819  0.5750E-02  0.3372E-02
     -0.762  0.6305E-02  0.3732E-02
     -0.705  0.6130E-02  0.4083E-02
     -0.648  0.5893E-02  0.4419E-02
     -0.591  0.6164E-02  0.4772E-02
     -0.534  0.6660E-02  0.5152E-02
     -0.476  0.6879E-02  0.5546E-02
     -0.419  0.7149E-02  0.5954E-02
     -0.362  0.7976E-02  0.6410E-02
     -0.305  0.8983E-02  0.6924E-02
     -0.248  0.9154E-02  0.7447E-02
     -0.191  0.8700E-02  0.7944E-02
     -0.134  0.8525E-02  0.8431E-02
     -0.076  0.9438E-02  0.8971E-02
     -0.019  0.1171E-01  0.9640E-02
      0.038  0.1355E-01  0.1041E-01
      0.095  0.1358E-01  0.1119E-01
      0.152  0.1438E-01  0.1201E-01
      0.209  0.1866E-01  0.1308E-01
      0.267  0.2486E-01  0.1450E-01
      0.324  0.3052E-01  0.1624E-01
      0.381  0.3382E-01  0.1818E-01
      0.438  0.3538E-01  0.2020E-01
      0.495  0.3915E-01  0.2244E-01
      0.552  0.4613E-01  0.2507E-01
      0.610  0.5458E-01  0.2819E-01
      0.667  0.6494E-01  0.3191E-01
      0.724  0.7798E-01  0.3636E-01
      0.781  0.9147E-01  0.4159E-01
      0.838  0.1022E+00  0.4743E-01
      0.895  0.1088E+00  0.5365E-01
      0.952  0.1097E+00  0.5992E-01
      1.010  0.1070E+00  0.6604E-01
      1.067  0.1029E+00  0.7192E-01
      1.124  0.9883E-01  0.7757E-01
      1.181  0.9546E-01  0.8302E-01
      1.238  0.9127E-01  0.8824E-01
      1.295  0.8603E-01  0.9316E-01
      1.353  0.8054E-01  0.9776E-01
      1.410  0.7929E-01  0.1023E+00
      1.467  0.8531E-01  0.1072E+00
      1.524  0.9738E-01  0.1127E+00
      1.581  0.1132E+00  0.1192E+00
      1.638  0.1276E+00  0.1265E+00
      1.696  0.1346E+00  0.1342E+00
      1.753  0.1346E+00  0.1419E+00
      1.810  0.1337E+00  0.1495E+00
      1.867  0.1344E+00  0.1572E+00
      1.924  0.1366E+00  0.1650E+00
      1.981  0.1433E+00  0.1732E+00
      2.038  0.1589E+00  0.1823E+00
      2.096  0.1823E+00  0.1927E+00
      2.153  0.1995E+00  0.2041E+00
      2.210  0.1930E+00  0.2151E+00
      2.267  0.1665E+00  0.2247E+00
      2.324  0.1385E+00  0.2326E+00
      2.381  0.1209E+00  0.2395E+00
      2.439  0.1145E+00  0.2460E+00
      2.496  0.1136E+00  0.2525E+00
      2.553  0.1145E+00  0.2591E+00
      2.610  0.1191E+00  0.2659E+00
      2.667  0.1274E+00  0.2732E+00
      2.724  0.1362E+00  0.2809E+00
      2.782  0.1436E+00  0.2891E+00
      2.839  0.1468E+00  0.2975E+00
      2.896  0.1416E+00  0.3056E+00
      2.953  0.1314E+00  0.3131E+00
      3.010  0.1238E+00  0.3202E+00
      3.067  0.1200E+00  0.3271E+00
      3.124  0.1173E+00  0.3338E+00
      3.182  0.1151E+00  0.3404E+00
      3.239  0.1152E+00  0.3469E+00
      3.296  0.1187E+00  0.3537E+00
      3.353  0.1284E+00  0.3611E+00
      3.410  0.1432E+00  0.3693E+00
      3.467  0.1604E+00  0.3784E+00
      3.525  0.1755E+00  0.3885E+00
      3.582  0.1739E+00  0.3984E+00
      3.639  0.1468E+00  0.4068E+00
      3.696  0.1043E+00  0.4128E+00
      3.753  0.6337E-01  0.4164E+00
      3.810  0.3561E-01  0.4184E+00
      3.868  0.2337E-01  0.4197E+00
      3.925  0.1922E-01  0.4208E+00
      3.982  0.1483E-01  0.4217E+00
      4.039  0.1052E-01  0.4223E+00
      4.096  0.1010E-01  0.4229E+00
      4.153  0.1400E-01  0.4237E+00
      4.211  0.1773E-01  0.4247E+00
      4.268  0.1688E-01  0.4256E+00
      4.325  0.1318E-01  0.4264E+00
      4.382  0.1019E-01  0.4270E+00
      4.439  0.9495E-02  0.4275E+00
      4.496  0.1188E-01  0.4282E+00
      4.553  0.1551E-01  0.4291E+00
      4.611  0.1663E-01  0.4300E+00
      4.668  0.1451E-01  0.4309E+00
      4.725  0.1164E-01  0.4315E+00
      4.782  0.1026E-01  0.4321E+00
      4.839  0.1068E-01  0.4327E+00
      4.896  0.1257E-01  0.4335E+00
      4.954  0.1471E-01  0.4343E+00
      5.011  0.1536E-01  0.4352E+00
      5.068  0.1449E-01  0.4360E+00
      5.125  0.1314E-01  0.4367E+00
      5.182  0.1176E-01  0.4374E+00
      5.239  0.1117E-01  0.4381E+00
      5.297  0.1229E-01  0.4388E+00
      5.354  0.1423E-01  0.4396E+00
      5.411  0.1509E-01  0.4404E+00
      5.468  0.1445E-01  0.4413E+00
      5.525  0.1336E-01  0.4420E+00
      5.582  0.1229E-01  0.4427E+00
      5.639  0.1167E-01  0.4434E+00
      5.697  0.1234E-01  0.4441E+00
      5.754  0.1411E-01  0.4449E+00
      5.811  0.1500E-01  0.4458E+00
      5.868  0.1474E-01  0.4466E+00
      5.925  0.1458E-01  0.4474E+00
      5.982  0.1395E-01  0.4482E+00
      6.040  0.1346E-01  0.4490E+00
      6.097  0.1379E-01  0.4498E+00
      6.154  0.1371E-01  0.4506E+00
      6.211  0.1341E-01  0.4513E+00
      6.268  0.1362E-01  0.4521E+00
      6.325  0.1317E-01  0.4529E+00
      6.383  0.1247E-01  0.4536E+00
      6.440  0.1379E-01  0.4544E+00
      6.497  0.1568E-01  0.4553E+00
      6.554  0.1476E-01  0.4561E+00
      6.611  0.1214E-01  0.4568E+00
      6.668  0.1129E-01  0.4575E+00
      6.725  0.1266E-01  0.4582E+00
      6.783  0.1437E-01  0.4590E+00
      6.840  0.1546E-01  0.4599E+00
      6.897  0.1599E-01  0.4608E+00
      6.954  0.1510E-01  0.4617E+00
      7.011  0.1297E-01  0.4624E+00
      7.068  0.1213E-01  0.4631E+00
      7.126  0.1397E-01  0.4639E+00
      7.183  0.1716E-01  0.4649E+00
      7.240  0.2010E-01  0.4660E+00
      7.297  0.2203E-01  0.4673E+00
      7.354  0.2183E-01  0.4685E+00
      7.411  0.1907E-01  0.4696E+00
      7.469  0.1576E-01  0.4705E+00
      7.526  0.1501E-01  0.4714E+00
      7.583  0.1740E-01  0.4724E+00
      7.640  0.1940E-01  0.4735E+00
      7.697  0.1813E-01  0.4745E+00
      7.754  0.1569E-01  0.4754E+00
      7.811  0.1529E-01  0.4763E+00
      7.869  0.1496E-01  0.4771E+00
      7.926  0.1283E-01  0.4779E+00
      7.983  0.1189E-01  0.4786E+00
      8.040  0.1354E-01  0.4793E+00
      8.097  0.1563E-01  0.4802E+00
      8.154  0.1548E-01  0.4811E+00
      8.212  0.1305E-01  0.4819E+00
      8.269  0.1210E-01  0.4825E+00
      8.326  0.1342E-01  0.4833E+00
      8.383  0.1318E-01  0.4841E+00
      8.440  0.1073E-01  0.4847E+00
      8.497  0.8801E-02  0.4852E+00
      8.555  0.8649E-02  0.4857E+00
      8.612  0.9725E-02  0.4862E+00
      8.669  0.1124E-01  0.4869E+00
      8.726  0.1157E-01  0.4875E+00
      8.783  0.9712E-02  0.4881E+00
      8.840  0.8178E-02  0.4886E+00
      8.897  0.9782E-02  0.4891E+00
      8.955  0.1305E-01  0.4899E+00
      9.012  0.1394E-01  0.4907E+00
      9.069  0.1232E-01  0.4914E+00
      9.126  0.1194E-01  0.4921E+00
      9.183  0.1307E-01  0.4928E+00
      9.240  0.1274E-01  0.4935E+00
      9.298  0.1068E-01  0.4941E+00
      9.355  0.9630E-02  0.4947E+00
      9.412  0.1143E-01  0.4953E+00
      9.469  0.1467E-01  0.4962E+00
      9.526  0.1698E-01  0.4971E+00
      9.583  0.1888E-01  0.4982E+00
      9.641  0.2158E-01  0.4995E+00
      9.698  0.2300E-01  0.5008E+00
      9.755  0.2096E-01  0.5020E+00
      9.812  0.1812E-01  0.5030E+00
      9.869  0.1699E-01  0.5040E+00
      9.926  0.1627E-01  0.5049E+00
      9.983  0.1472E-01  0.5058E+00
     10.041  0.1387E-01  0.5065E+00
     10.098  0.1457E-01  0.5074E+00
     10.155  0.1483E-01  0.5082E+00
     10.212  0.1384E-01  0.5090E+00
     10.269  0.1251E-01  0.5097E+00
     10.326  0.1205E-01  0.5104E+00
     10.384  0.1345E-01  0.5112E+00
     10.441  0.1495E-01  0.5120E+00
     10.498  0.1496E-01  0.5129E+00
     10.555  0.1530E-01  0.5138E+00
     10.612  0.1735E-01  0.5148E+00
     10.669  0.1847E-01  0.5158E+00
     10.727  0.1605E-01  0.5167E+00
     10.784  0.1230E-01  0.5174E+00
     10.841  0.1049E-01  0.5180E+00
     10.898  0.1131E-01  0.5187E+00
     10.955  0.1268E-01  0.5194E+00
     11.012  0.1243E-01  0.5201E+00
     11.070  0.1212E-01  0.5208E+00
     11.127  0.1327E-01  0.5216E+00
     11.184  0.1360E-01  0.5224E+00
     11.241  0.1226E-01  0.5231E+00
     11.298  0.1190E-01  0.5237E+00
     11.355  0.1269E-01  0.5245E+00
     11.412  0.1225E-01  0.5252E+00
     11.470  0.1103E-01  0.5258E+00
     11.527  0.1100E-01  0.5264E+00
     11.584  0.1179E-01  0.5271E+00
     11.641  0.1131E-01  0.5277E+00
     11.698  0.9341E-02  0.5283E+00
     11.755  0.8587E-02  0.5288E+00
     11.813  0.1160E-01  0.5294E+00
     11.870  0.1698E-01  0.5304E+00
     11.927  0.2015E-01  0.5315E+00
     11.984  0.1892E-01  0.5326E+00
     12.041  0.1505E-01  0.5335E+00
     12.098  0.1140E-01  0.5341E+00
     12.156  0.9241E-02  0.5347E+00
     12.213  0.7974E-02  0.5351E+00
     12.270  0.7236E-02  0.5355E+00
     12.327  0.7150E-02  0.5359E+00
     12.384  0.7785E-02  0.5364E+00
     12.441  0.8947E-02  0.5369E+00
     12.498  0.8608E-02  0.5374E+00
     12.556  0.5990E-02  0.5377E+00
     12.613  0.3560E-02  0.5379E+00
     12.670  0.2811E-02  0.5381E+00
     12.727  0.3204E-02  0.5383E+00
     12.784  0.3735E-02  0.5385E+00
     12.841  0.3922E-02  0.5387E+00
     12.899  0.4139E-02  0.5390E+00
     12.956  0.4142E-02  0.5392E+00
     13.013  0.3489E-02  0.5394E+00
     13.070  0.2629E-02  0.5395E+00
     13.127  0.1954E-02  0.5397E+00
     13.184  0.1719E-02  0.5398E+00
     13.242  0.1795E-02  0.5399E+00
     13.299  0.1462E-02  0.5399E+00
     13.356  0.7346E-03  0.5400E+00
     13.413  0.2234E-03  0.5400E+00
     13.470  0.4399E-04  0.5400E+00
     13.527  0.5960E-05  0.5400E+00
     13.584  0.5397E-06  0.5400E+00
     13.642  0.2978E-07  0.5400E+00
     13.699  0.9285E-09  0.5400E+00
     13.756  0.1572E-10  0.5400E+00
     13.813  0.1420E-12  0.5400E+00
     13.870  0.6785E-15  0.5400E+00
     13.927  0.1704E-17  0.5400E+00
     13.985  0.0000E+00  0.5400E+00
     14.042  0.0000E+00  0.5400E+00
     14.099  0.0000E+00  0.5400E+00
     14.156  0.0000E+00  0.5400E+00
     14.213  0.0000E+00  0.5400E+00
     14.270  0.0000E+00  0.5400E+00
     14.328  0.0000E+00  0.5400E+00
