    4    4  100    1
  0.2273752E+02  0.4497119E-09  0.4497119E-09  0.4497119E-09  0.2000000E-15
  1.000000000000000E-004
  CAR 
 unknown system                          
     44   1688     27
 
  0.0000000E+00  0.0000000E+00  0.0000000E+00  0.2962963E-03
    1       -1.819969   1.000000
    2        0.515889   1.000000
    3        0.515889   1.000000
    4        0.515890   1.000000
    5        0.696102   1.000000
    6        0.696102   1.000000
    7        0.696102   1.000000
    8        1.945634   1.000000
    9        1.945635   1.000000
   10        1.945635   1.000000
   11        2.847148   1.000000
   12        2.847148   1.000000
   13        3.533347   1.000000
   14        3.533348   1.000000
   15        3.533349   1.000000
   16        3.753796   1.000000
   17        3.753796   1.000000
   18        3.753797   1.000000
   19        3.753797   1.000000
   20        3.753798   1.000000
   21        3.753799   1.000000
   22        7.135362   0.000000
   23        7.135363   0.000000
   24        7.135363   0.000000
   25        9.165116   0.000000
   26        9.165117   0.000000
   27        9.165118   0.000000
 
  0.6666667E-01  0.1723948E-25  0.0000000E+00  0.5925926E-03
    1       -1.779684   1.000000
    2        0.526836   1.000000
    3        0.539468   1.000000
    4        0.539469   1.000000
    5        0.708227   1.000000
    6        0.714731   1.000000
    7        0.714731   1.000000
    8        1.930163   1.000000
    9        1.960404   1.000000
   10        1.960404   1.000000
   11        2.831051   1.000000
   12        2.854232   1.000000
   13        3.511149   1.000000
   14        3.511150   1.000000
   15        3.525357   1.000000
   16        3.670113   1.000000
   17        3.670113   1.000000
   18        3.726069   1.000000
   19        3.726069   1.000000
   20        3.753830   1.000000
   21        3.753833   1.000000
   22        6.634544   0.000000
   23        7.252055   0.000000
   24        7.252055   0.000000
   25        9.143677   0.000000
   26        9.143678   0.000000
   27        9.738124   0.000000
 
  0.1333333E+00  0.3447941E-25  0.4135903E-24  0.5925926E-03
    1       -1.659459   1.000000
    2        0.557153   1.000000
    3        0.608579   1.000000
    4        0.608580   1.000000
    5        0.744245   1.000000
    6        0.770577   1.000000
    7        0.770577   1.000000
    8        1.884577   1.000000
    9        2.004389   1.000000
   10        2.004390   1.000000
   11        2.784221   1.000000
   12        2.875139   1.000000
   13        3.445572   1.000000
   14        3.445574   1.000000
   15        3.449209   1.000000
   16        3.449209   1.000000
   17        3.501823   1.000000
   18        3.645804   1.000000
   19        3.645804   1.000000
   20        3.753948   1.000000
   21        3.753951   1.000000
   22        5.743589   0.000000
   23        7.571565   0.000000
   24        7.571565   0.000000
   25        9.083117   0.000000
   26        9.083118   0.000000
   27       10.847255   0.000000
 
  0.2000000E+00 -0.5167866E-25  0.8271806E-24  0.5925926E-03
    1       -1.461631   1.000000
    2        0.598164   1.000000
    3        0.718083   1.000000
    4        0.718084   1.000000
    5        0.803070   1.000000
    6        0.863524   1.000000
    7        0.863524   1.000000
    8        1.811768   1.000000
    9        2.077003   1.000000
   10        2.077003   1.000000
   11        2.710940   1.000000
   12        2.909151   1.000000
   13        3.149415   1.000000
   14        3.149415   1.000000
   15        3.340295   1.000000
   16        3.340297   1.000000
   17        3.463998   1.000000
   18        3.520949   1.000000
   19        3.520949   1.000000
   20        3.754113   1.000000
   21        3.754116   1.000000
   22        4.841478   1.000000
   23        8.034008   0.000000
   24        8.034008   0.000000
   25        8.994215   0.000000
   26        8.994217   0.000000
   27       12.119202   0.000000
 
  0.2666667E+00 -0.3446319E-24  0.8271806E-24  0.5925926E-03
    1       -1.190827   1.000000
    2        0.632028   1.000000
    3        0.858176   1.000000
    4        0.858178   1.000000
    5        0.882804   1.000000
    6        0.993298   1.000000
    7        0.993298   1.000000
    8        1.716038   1.000000
    9        2.177052   1.000000
   10        2.177052   1.000000
   11        2.619101   1.000000
   12        2.817914   1.000000
   13        2.817914   1.000000
   14        2.954962   1.000000
   15        3.203441   1.000000
   16        3.203442   1.000000
   17        3.362427   1.000000
   18        3.362427   1.000000
   19        3.413759   1.000000
   20        3.754296   1.000000
   21        3.754299   1.000000
   22        4.015579   1.000000
   23        8.589611   0.000000
   24        8.589611   0.000000
   25        8.892929   0.000000
   26        8.892931   0.000000
   27       13.168098   0.000000
 
  0.3333333E+00 -0.6375852E-24  0.0000000E+00  0.5925926E-03
    1       -0.855597   1.000000
    2        0.625162   1.000000
    3        0.980874   1.000000
    4        1.012303   1.000000
    5        1.012305   1.000000
    6        1.159479   1.000000
    7        1.159479   1.000000
    8        1.602742   1.000000
    9        2.302672   1.000000
   10        2.302672   1.000000
   11        2.483638   1.000000
   12        2.483638   1.000000
   13        2.521822   1.000000
   14        3.010889   1.000000
   15        3.050803   1.000000
   16        3.050806   1.000000
   17        3.182308   1.000000
   18        3.182308   1.000000
   19        3.315740   1.000000
   20        3.353621   1.000000
   21        3.754462   1.000000
   22        3.754466   1.000000
   23        8.797270   0.000000
   24        8.797271   0.000000
   25        9.205741   0.000000
   26        9.205741   0.000000
   27       12.558637   0.000000
 
  0.4000000E+00 -0.1033573E-24  0.1654361E-23  0.5925926E-03
    1       -0.472379   1.000000
    2        0.524019   1.000000
    3        1.093901   1.000000
    4        1.153346   1.000000
    5        1.153348   1.000000
    6        1.361298   1.000000
    7        1.361298   1.000000
    8        1.477871   1.000000
    9        2.163131   1.000000
   10        2.163131   1.000000
   11        2.440956   1.000000
   12        2.451304   1.000000
   13        2.451304   1.000000
   14        2.798595   1.000000
   15        2.909780   1.000000
   16        2.909783   1.000000
   17        2.992060   1.000000
   18        2.992061   1.000000
   19        3.074725   1.000000
   20        3.286494   1.000000
   21        3.754605   1.000000
   22        3.754608   1.000000
   23        8.723539   0.000000
   24        8.723540   0.000000
   25        9.860780   0.000000
   26        9.860780   0.000000
   27       11.903449   0.000000
 
  0.4666667E+00  0.4308701E-24  0.2481542E-23  0.5925926E-03
    1       -0.073184   1.000000
    2        0.283389   1.000000
    3        1.217746   1.000000
    4        1.242045   1.000000
    5        1.242047   1.000000
    6        1.347555   1.000000
    7        1.597452   1.000000
    8        1.597452   1.000000
    9        1.865837   1.000000
   10        1.865837   1.000000
   11        2.414596   1.000000
   12        2.507511   1.000000
   13        2.619244   1.000000
   14        2.619244   1.000000
   15        2.801651   1.000000
   16        2.801651   1.000000
   17        2.820656   1.000000
   18        2.820658   1.000000
   19        3.143883   1.000000
   20        3.215513   1.000000
   21        3.754678   1.000000
   22        3.754681   1.000000
   23        8.683612   0.000000
   24        8.683614   0.000000
   25       10.538434   0.000000
   26       10.538437   0.000000
   27       11.224290   0.000000
 
  0.5292862E-26  0.6666667E-01 -0.4135903E-24  0.5925926E-03
    1       -1.779684   1.000000
    2        0.526836   1.000000
    3        0.539468   1.000000
    4        0.539468   1.000000
    5        0.708227   1.000000
    6        0.714731   1.000000
    7        0.714731   1.000000
    8        1.930164   1.000000
    9        1.960404   1.000000
   10        1.960404   1.000000
   11        2.831052   1.000000
   12        2.854231   1.000000
   13        3.511149   1.000000
   14        3.511149   1.000000
   15        3.525357   1.000000
   16        3.670114   1.000000
   17        3.670114   1.000000
   18        3.726069   1.000000
   19        3.726069   1.000000
   20        3.753831   1.000000
   21        3.753831   1.000000
   22        6.634545   0.000000
   23        7.252054   0.000000
   24        7.252055   0.000000
   25        9.143676   0.000000
   26        9.143677   0.000000
   27        9.738125   0.000000
 
  0.6666667E-01  0.6666667E-01 -0.1240771E-23  0.5925926E-03
    1       -1.739598   1.000000
    2        0.550582   1.000000
    3        0.550582   1.000000
    4        0.560625   1.000000
    5        0.726706   1.000000
    6        0.726706   1.000000
    7        0.735148   1.000000
    8        1.924245   1.000000
    9        1.965774   1.000000
   10        1.974356   1.000000
   11        2.826785   1.000000
   12        2.850387   1.000000
   13        3.489698   1.000000
   14        3.496659   1.000000
   15        3.496660   1.000000
   16        3.609881   1.000000
   17        3.646469   1.000000
   18        3.646470   1.000000
   19        3.726057   1.000000
   20        3.726057   1.000000
   21        3.734973   1.000000
   22        6.740187   0.000000
   23        6.740188   0.000000
   24        7.364304   0.000000
   25        9.120425   0.000000
   26        9.726799   0.000000
   27        9.726801   0.000000
 
  0.1333333E+00  0.6666667E-01 -0.1033976E-24  0.5925926E-03
    1       -1.620101   1.000000
    2        0.581403   1.000000
    3        0.620207   1.000000
    4        0.622526   1.000000
    5        0.762274   1.000000
    6        0.782083   1.000000
    7        0.796276   1.000000
    8        1.884068   1.000000
    9        2.005165   1.000000
   10        2.015921   1.000000
   11        2.785633   1.000000
   12        2.868620   1.000000
   13        3.365647   1.000000
   14        3.408957   1.000000
   15        3.426251   1.000000
   16        3.446320   1.000000
   17        3.487410   1.000000
   18        3.584384   1.000000
   19        3.645651   1.000000
   20        3.725300   1.000000
   21        3.726014   1.000000
   22        5.853275   0.000000
   23        7.018574   0.000000
   24        7.673880   0.000000
   25        9.054190   0.000000
   26        9.700515   0.000000
   27       10.829112   0.000000
 
  0.2000000E+00  0.6666667E-01  0.9305782E-24  0.5925926E-03
    1       -1.423454   1.000000
    2        0.623257   1.000000
    3        0.720876   1.000000
    4        0.730566   1.000000
    5        0.820324   1.000000
    6        0.874244   1.000000
    7        0.897096   1.000000
    8        1.813545   1.000000
    9        2.076702   1.000000
   10        2.083804   1.000000
   11        2.715719   1.000000
   12        2.904853   1.000000
   13        3.084773   1.000000
   14        3.122240   1.000000
   15        3.324164   1.000000
   16        3.338913   1.000000
   17        3.362958   1.000000
   18        3.509167   1.000000
   19        3.520580   1.000000
   20        3.723231   1.000000
   21        3.725911   1.000000
   22        4.972944   1.000000
   23        7.390671   0.000000
   24        8.125932   0.000000
   25        8.955101   0.000000
   26        9.684037   0.000000
   27       12.075010   0.000000
 
  0.2666667E+00  0.6666667E-01  0.1240771E-23  0.5925926E-03
    1       -1.154371   1.000000
    2        0.658307   1.000000
    3        0.849411   1.000000
    4        0.871940   1.000000
    5        0.899034   1.000000
    6        1.002871   1.000000
    7        1.033729   1.000000
    8        1.719733   1.000000
    9        2.174415   1.000000
   10        2.176334   1.000000
   11        2.630538   1.000000
   12        2.759232   1.000000
   13        2.800553   1.000000
   14        2.954488   1.000000
   15        3.160948   1.000000
   16        3.191189   1.000000
   17        3.223684   1.000000
   18        3.361843   1.000000
   19        3.432869   1.000000
   20        3.722899   1.000000
   21        3.725727   1.000000
   22        4.195906   1.000000
   23        7.775246   0.000000
   24        8.672890   0.000000
   25        8.838140   0.000000
   26        9.723418   0.000000
   27       12.649172   0.000000
 
  0.3333333E+00  0.6666667E-01 -0.8271806E-24  0.5925926E-03
    1       -0.821340   1.000000
    2        0.652668   1.000000
    3        0.995790   1.000000
    4        0.998844   1.000000
    5        1.027781   1.000000
    6        1.167507   1.000000
    7        1.198128   1.000000
    8        1.608412   1.000000
    9        2.274652   1.000000
   10        2.301773   1.000000
   11        2.431722   1.000000
   12        2.473709   1.000000
   13        2.554733   1.000000
   14        2.907081   1.000000
   15        3.015468   1.000000
   16        3.042855   1.000000
   17        3.070142   1.000000
   18        3.181525   1.000000
   19        3.334364   1.000000
   20        3.611648   1.000000
   21        3.723160   1.000000
   22        3.725476   1.000000
   23        8.094356   0.000000
   24        8.719483   0.000000
   25        9.282393   0.000000
   26        9.882105   0.000000
   27       12.168748   0.000000
 
  0.4000000E+00  0.6666667E-01  0.8271806E-24  0.5925926E-03
    1       -0.440627   1.000000
    2        0.552139   1.000000
    3        1.107261   1.000000
    4        1.148477   1.000000
    5        1.170655   1.000000
    6        1.367287   1.000000
    7        1.382477   1.000000
    8        1.485563   1.000000
    9        2.120776   1.000000
   10        2.158820   1.000000
   11        2.329941   1.000000
   12        2.450296   1.000000
   13        2.561728   1.000000
   14        2.609313   1.000000
   15        2.906804   1.000000
   16        2.926400   1.000000
   17        2.991133   1.000000
   18        3.085659   1.000000
   19        3.123273   1.000000
   20        3.349688   1.000000
   21        3.723616   1.000000
   22        3.725116   1.000000
   23        8.303188   0.000000
   24        8.611652   0.000000
   25        9.932537   0.000000
   26       10.199031   0.000000
   27       11.665946   0.000000
 
  0.4666667E+00  0.6666667E-01  0.8271806E-24  0.5925926E-03
    1       -0.043733   1.000000
    2        0.311656   1.000000
    3        1.229348   1.000000
    4        1.252073   1.000000
    5        1.259295   1.000000
    6        1.357256   1.000000
    7        1.591592   1.000000
    8        1.600826   1.000000
    9        1.837924   1.000000
   10        1.865865   1.000000
   11        2.331244   1.000000
   12        2.400296   1.000000
   13        2.618212   1.000000
   14        2.693834   1.000000
   15        2.800633   1.000000
   16        2.824061   1.000000
   17        2.831472   1.000000
   18        2.885786   1.000000
   19        3.163075   1.000000
   20        3.247209   1.000000
   21        3.724159   1.000000
   22        3.724671   1.000000
   23        8.426686   0.000000
   24        8.518015   0.000000
   25       10.606744   0.000000
   26       10.642757   0.000000
   27       11.148528   0.000000
 
 -0.4666667E+00  0.6666667E-01 -0.3308722E-23  0.5925926E-03
    1       -0.043733   1.000000
    2        0.311656   1.000000
    3        1.229348   1.000000
    4        1.252073   1.000000
    5        1.259295   1.000000
    6        1.357256   1.000000
    7        1.591592   1.000000
    8        1.600826   1.000000
    9        1.837924   1.000000
   10        1.865865   1.000000
   11        2.331244   1.000000
   12        2.400296   1.000000
   13        2.618212   1.000000
   14        2.693834   1.000000
   15        2.800633   1.000000
   16        2.824061   1.000000
   17        2.831472   1.000000
   18        2.885786   1.000000
   19        3.163075   1.000000
   20        3.247209   1.000000
   21        3.724159   1.000000
   22        3.724671   1.000000
   23        8.426686   0.000000
   24        8.518015   0.000000
   25       10.606745   0.000000
   26       10.642759   0.000000
   27       11.148753   0.000000
 
 -0.4000000E+00  0.6666667E-01 -0.3308722E-23  0.5925926E-03
    1       -0.440627   1.000000
    2        0.552139   1.000000
    3        1.107261   1.000000
    4        1.148477   1.000000
    5        1.170655   1.000000
    6        1.367287   1.000000
    7        1.382477   1.000000
    8        1.485563   1.000000
    9        2.120776   1.000000
   10        2.158820   1.000000
   11        2.329941   1.000000
   12        2.450296   1.000000
   13        2.561728   1.000000
   14        2.609313   1.000000
   15        2.906804   1.000000
   16        2.926400   1.000000
   17        2.991133   1.000000
   18        3.085659   1.000000
   19        3.123273   1.000000
   20        3.349688   1.000000
   21        3.723616   1.000000
   22        3.725116   1.000000
   23        8.303189   0.000000
   24        8.611652   0.000000
   25        9.932537   0.000000
   26       10.199031   0.000000
   27       11.665553   0.000000
 
 -0.3333333E+00  0.6666667E-01 -0.8271806E-24  0.5925926E-03
    1       -0.821340   1.000000
    2        0.652668   1.000000
    3        0.995790   1.000000
    4        0.998844   1.000000
    5        1.027781   1.000000
    6        1.167507   1.000000
    7        1.198128   1.000000
    8        1.608412   1.000000
    9        2.274652   1.000000
   10        2.301773   1.000000
   11        2.431722   1.000000
   12        2.473709   1.000000
   13        2.554733   1.000000
   14        2.907081   1.000000
   15        3.015468   1.000000
   16        3.042855   1.000000
   17        3.070142   1.000000
   18        3.181525   1.000000
   19        3.334364   1.000000
   20        3.611648   1.000000
   21        3.723160   1.000000
   22        3.725476   1.000000
   23        8.094356   0.000000
   24        8.719482   0.000000
   25        9.282393   0.000000
   26        9.882105   0.000000
   27       12.170791   0.000000
 
 -0.2666667E+00  0.6666667E-01 -0.1654361E-23  0.5925926E-03
    1       -1.154371   1.000000
    2        0.658307   1.000000
    3        0.849411   1.000000
    4        0.871940   1.000000
    5        0.899034   1.000000
    6        1.002871   1.000000
    7        1.033729   1.000000
    8        1.719733   1.000000
    9        2.174415   1.000000
   10        2.176334   1.000000
   11        2.630538   1.000000
   12        2.759232   1.000000
   13        2.800553   1.000000
   14        2.954488   1.000000
   15        3.160948   1.000000
   16        3.191189   1.000000
   17        3.223684   1.000000
   18        3.361843   1.000000
   19        3.432869   1.000000
   20        3.722899   1.000000
   21        3.725727   1.000000
   22        4.195906   1.000000
   23        7.775246   0.000000
   24        8.672890   0.000000
   25        8.838139   0.000000
   26        9.723418   0.000000
   27       12.649233   0.000000
 
 -0.2000000E+00  0.6666667E-01 -0.2481542E-23  0.5925926E-03
    1       -1.423454   1.000000
    2        0.623257   1.000000
    3        0.720876   1.000000
    4        0.730566   1.000000
    5        0.820324   1.000000
    6        0.874244   1.000000
    7        0.897096   1.000000
    8        1.813545   1.000000
    9        2.076702   1.000000
   10        2.083804   1.000000
   11        2.715719   1.000000
   12        2.904853   1.000000
   13        3.084773   1.000000
   14        3.122240   1.000000
   15        3.324164   1.000000
   16        3.338913   1.000000
   17        3.362958   1.000000
   18        3.509167   1.000000
   19        3.520580   1.000000
   20        3.723231   1.000000
   21        3.725911   1.000000
   22        4.972944   1.000000
   23        7.390671   0.000000
   24        8.125932   0.000000
   25        8.955101   0.000000
   26        9.684037   0.000000
   27       12.075010   0.000000
 
 -0.1333333E+00  0.6666667E-01 -0.1654361E-23  0.5925926E-03
    1       -1.620101   1.000000
    2        0.581403   1.000000
    3        0.620207   1.000000
    4        0.622526   1.000000
    5        0.762274   1.000000
    6        0.782083   1.000000
    7        0.796276   1.000000
    8        1.884068   1.000000
    9        2.005165   1.000000
   10        2.015921   1.000000
   11        2.785633   1.000000
   12        2.868620   1.000000
   13        3.365647   1.000000
   14        3.408957   1.000000
   15        3.426251   1.000000
   16        3.446320   1.000000
   17        3.487410   1.000000
   18        3.584384   1.000000
   19        3.645651   1.000000
   20        3.725300   1.000000
   21        3.726014   1.000000
   22        5.853275   0.000000
   23        7.018574   0.000000
   24        7.673880   0.000000
   25        9.054190   0.000000
   26        9.700515   0.000000
   27       10.829112   0.000000
 
 -0.6666667E-01  0.6666667E-01 -0.8271806E-24  0.5925926E-03
    1       -1.739598   1.000000
    2        0.550582   1.000000
    3        0.550582   1.000000
    4        0.560625   1.000000
    5        0.726706   1.000000
    6        0.726706   1.000000
    7        0.735148   1.000000
    8        1.924245   1.000000
    9        1.965774   1.000000
   10        1.974356   1.000000
   11        2.826785   1.000000
   12        2.850387   1.000000
   13        3.489698   1.000000
   14        3.496659   1.000000
   15        3.496660   1.000000
   16        3.609881   1.000000
   17        3.646469   1.000000
   18        3.646471   1.000000
   19        3.726057   1.000000
   20        3.726057   1.000000
   21        3.734973   1.000000
   22        6.740187   0.000000
   23        6.740188   0.000000
   24        7.364304   0.000000
   25        9.120425   0.000000
   26        9.726799   0.000000
   27        9.726801   0.000000
 
  0.1058616E-25  0.1333333E+00 -0.8271806E-24  0.5925926E-03
    1       -1.659459   1.000000
    2        0.557153   1.000000
    3        0.608579   1.000000
    4        0.608580   1.000000
    5        0.744245   1.000000
    6        0.770577   1.000000
    7        0.770577   1.000000
    8        1.884578   1.000000
    9        2.004389   1.000000
   10        2.004390   1.000000
   11        2.784222   1.000000
   12        2.875139   1.000000
   13        3.445573   1.000000
   14        3.445573   1.000000
   15        3.449209   1.000000
   16        3.449209   1.000000
   17        3.501823   1.000000
   18        3.645804   1.000000
   19        3.645805   1.000000
   20        3.753949   1.000000
   21        3.753949   1.000000
   22        5.743590   0.000000
   23        7.571564   0.000000
   24        7.571565   0.000000
   25        9.083116   0.000000
   26        9.083117   0.000000
   27       10.847257   0.000000
 
  0.6666667E-01  0.1333333E+00  0.4135903E-24  0.5925926E-03
    1       -1.620101   1.000000
    2        0.581403   1.000000
    3        0.620206   1.000000
    4        0.622526   1.000000
    5        0.762274   1.000000
    6        0.782083   1.000000
    7        0.796276   1.000000
    8        1.884069   1.000000
    9        2.005164   1.000000
   10        2.015921   1.000000
   11        2.785634   1.000000
   12        2.868619   1.000000
   13        3.365647   1.000000
   14        3.408957   1.000000
   15        3.426251   1.000000
   16        3.446320   1.000000
   17        3.487410   1.000000
   18        3.584384   1.000000
   19        3.645651   1.000000
   20        3.725300   1.000000
   21        3.726014   1.000000
   22        5.853276   0.000000
   23        7.018573   0.000000
   24        7.673880   0.000000
   25        9.054190   0.000000
   26        9.700514   0.000000
   27       10.829114   0.000000
 
  0.1333333E+00  0.1333333E+00 -0.2067952E-23  0.5925926E-03
    1       -1.502732   1.000000
    2        0.652522   1.000000
    3        0.652523   1.000000
    4        0.665869   1.000000
    5        0.816256   1.000000
    6        0.816256   1.000000
    7        0.870180   1.000000
    8        1.865392   1.000000
    9        2.025276   1.000000
   10        2.049934   1.000000
   11        2.770649   1.000000
   12        2.869803   1.000000
   13        3.239353   1.000000
   14        3.239354   1.000000
   15        3.268380   1.000000
   16        3.368885   1.000000
   17        3.489488   1.000000
   18        3.489489   1.000000
   19        3.645163   1.000000
   20        3.645163   1.000000
   21        3.679156   1.000000
   22        6.131516   0.000000
   23        6.131517   0.000000
   24        7.960406   0.000000
   25        8.970129   0.000000
   26       10.779716   0.000000
   27       10.779718   0.000000
 
  0.2000000E+00  0.1333333E+00  0.1447566E-23  0.5925926E-03
    1       -1.309757   1.000000
    2        0.697011   1.000000
    3        0.740784   1.000000
    4        0.765520   1.000000
    5        0.872021   1.000000
    6        0.906042   1.000000
    7        0.984653   1.000000
    8        1.810484   1.000000
    9        2.084696   1.000000
   10        2.103958   1.000000
   11        2.717924   1.000000
   12        2.905151   1.000000
   13        2.939372   1.000000
   14        3.031872   1.000000
   15        3.066650   1.000000
   16        3.275897   1.000000
   17        3.383553   1.000000
   18        3.457475   1.000000
   19        3.519484   1.000000
   20        3.644351   1.000000
   21        3.653512   1.000000
   22        5.280072   0.924909
   23        6.492885   0.000000
   24        8.387160   0.000000
   25        8.839132   0.000000
   26       10.714762   0.000000
   27       11.946690   0.000000
 
  0.2666667E+00  0.1333333E+00  0.1033976E-23  0.5925926E-03
    1       -1.045881   1.000000
    2        0.735688   1.000000
    3        0.847630   1.000000
    4        0.910872   1.000000
    5        0.947554   1.000000
    6        1.031240   1.000000
    7        1.128962   1.000000
    8        1.726557   1.000000
    9        2.170410   1.000000
   10        2.178951   1.000000
   11        2.616250   1.000000
   12        2.649535   1.000000
   13        2.744500   1.000000
   14        2.847304   1.000000
   15        2.965271   1.000000
   16        3.153913   1.000000
   17        3.252341   1.000000
   18        3.360129   1.000000
   19        3.392771   1.000000
   20        3.642761   1.000000
   21        3.643268   1.000000
   22        4.543282   1.000000
   23        6.876318   0.000000
   24        8.673915   0.000000
   25        8.912174   0.000000
   26       10.660314   0.000000
   27       12.062913   0.000000
 
  0.3333333E+00  0.1333333E+00  0.4135903E-24  0.5925926E-03
    1       -0.719639   1.000000
    2        0.733702   1.000000
    3        0.983636   1.000000
    4        1.040323   1.000000
    5        1.072227   1.000000
    6        1.191217   1.000000
    7        1.287810   1.000000
    8        1.623077   1.000000
    9        2.225953   1.000000
   10        2.300711   1.000000
   11        2.301790   1.000000
   12        2.441898   1.000000
   13        2.593884   1.000000
   14        2.605093   1.000000
   15        3.017665   1.000000
   16        3.042960   1.000000
   17        3.103635   1.000000
   18        3.179357   1.000000
   19        3.290529   1.000000
   20        3.638623   1.000000
   21        3.641949   1.000000
   22        3.973129   1.000000
   23        7.242724   0.000000
   24        8.488211   0.000000
   25        9.504340   0.000000
   26       10.648076   0.000000
   27       11.672384   0.000000
 
  0.4000000E+00  0.1333333E+00  0.2274747E-23  0.5925926E-03
    1       -0.346744   1.000000
    2        0.634653   1.000000
    3        1.138693   1.000000
    4        1.147026   1.000000
    5        1.221346   1.000000
    6        1.384861   1.000000
    7        1.441175   1.000000
    8        1.507267   1.000000
    9        2.010414   1.000000
   10        2.144790   1.000000
   11        2.231075   1.000000
   12        2.361036   1.000000
   13        2.448910   1.000000
   14        2.642362   1.000000
   15        2.895189   1.000000
   16        2.958678   1.000000
   17        2.988703   1.000000
   18        3.135845   1.000000
   19        3.137873   1.000000
   20        3.599485   1.000000
   21        3.637529   1.000000
   22        3.640499   1.000000
   23        7.568121   0.000000
   24        8.290743   0.000000
   25       10.141443   0.000000
   26       10.705212   0.000000
   27       11.338056   0.000000
 
  0.4666667E+00  0.1333333E+00  0.1654361E-23  0.5925926E-03
    1        0.042817   1.000000
    2        0.394355   1.000000
    3        1.263655   1.000000
    4        1.275739   1.000000
    5        1.309618   1.000000
    6        1.385512   1.000000
    7        1.582928   1.000000
    8        1.610473   1.000000
    9        1.763433   1.000000
   10        1.865225   1.000000
   11        2.206175   1.000000
   12        2.228556   1.000000
   13        2.616088   1.000000
   14        2.768731   1.000000
   15        2.798190   1.000000
   16        2.828961   1.000000
   17        2.853432   1.000000
   18        2.947021   1.000000
   19        3.245588   1.000000
   20        3.384879   1.000000
   21        3.637933   1.000000
   22        3.639075   1.000000
   23        7.844592   0.000000
   24        8.080175   0.000000
   25       10.806355   0.000000
   26       10.843898   0.000000
   27       11.059125   0.000000
 
 -0.4666667E+00  0.1333333E+00 -0.4963084E-23  0.5925926E-03
    1        0.042817   1.000000
    2        0.394355   1.000000
    3        1.263655   1.000000
    4        1.275739   1.000000
    5        1.309618   1.000000