 running on   24 total cores
 distrk:  each k-point on   24 cores,    1 groups
 distr:  one band on    8 cores,    3 groups
 using from now: INCAR     
 vasp.5.4.4.18Apr17-6-g9f103f2a35 (build Jan 14 2019 14:48:31) complex          
  
 POSCAR found type information on POSCAR  Au
 POSCAR found :  1 types and       4 ions
 scaLAPACK will be used
 LDA part: xc-table for Pade appr. of Perdew
 POSCAR found type information on POSCAR  Au
 POSCAR found :  1 types and       4 ions
 POSCAR, INCAR and KPOINTS ok, starting setup
 FFT: planning ...
 WAVECAR not read
 entering main loop
       N       E                     dE             d eps       ncg     rms          rms(c)
DAV:   1     0.256788362443E+03    0.25679E+03   -0.21793E+04 91737   0.147E+03
DAV:   2    -0.718691920601E+01   -0.26398E+03   -0.25471E+03107505   0.302E+02
DAV:   3    -0.124169935045E+02   -0.52301E+01   -0.51750E+01102285   0.433E+01
DAV:   4    -0.124552107176E+02   -0.38217E-01   -0.38193E-01102384   0.396E+00
DAV:   5    -0.124556473511E+02   -0.43663E-03   -0.43660E-03107442   0.432E-01    0.801E+00
RMM:   6    -0.116285877526E+02    0.82706E+00   -0.27095E+00 91172   0.103E+01    0.612E+00
RMM:   7    -0.116134651211E+02    0.15123E-01   -0.12418E-01 91340   0.196E+00    0.386E+00
RMM:   8    -0.116123436174E+02    0.11215E-02   -0.62071E-03 91176   0.562E-01    0.380E-01
RMM:   9    -0.116120930438E+02    0.25057E-03   -0.82747E-04 91236   0.168E-01    0.473E-02
RMM:  10    -0.116121376719E+02   -0.44628E-04   -0.87309E-05 91152   0.639E-02    0.828E-03
RMM:  11    -0.116121374040E+02    0.26789E-06   -0.29717E-06 54201   0.943E-03
   1 F= -.11612137E+02 E0= -.11608347E+02  d E =-.116121E+02
 curvature:   0.00 expect dE= 0.000E+00 dE for cont linesearch  0.000E+00
 trial: gam= 0.00000 g(F)=  0.118E-13 g(S)=  0.000E+00 ort = 0.000E+00 (trialstep = 0.100E+01)
 search vector abs. value=  0.100E-09
 reached required accuracy - stopping structural energy minimisation
