   8   8   0   0
  0.5704230E+01  0.3573694E-09  0.3573694E-09  0.3573694E-09  0.5000000E-15
  1.000000000000000E-004
  CAR 
 unknown system                          
     24.36975217    -12.17252473  301     11.10033787      1.00000000
    -12.173  0.0000E+00  0.0000E+00
    -12.051  0.0000E+00  0.0000E+00
    -11.929  0.0000E+00  0.0000E+00
    -11.807  0.0000E+00  0.0000E+00
    -11.685  0.0000E+00  0.0000E+00
    -11.563  0.0000E+00  0.0000E+00
    -11.442  0.0000E+00  0.0000E+00
    -11.320  0.0000E+00  0.0000E+00
    -11.198  0.0000E+00  0.0000E+00
    -11.076  0.0000E+00  0.0000E+00
    -10.954  0.0000E+00  0.0000E+00
    -10.833  0.0000E+00  0.0000E+00
    -10.711  0.3967E-11  0.4833E-12
    -10.589  0.6666E-05  0.8120E-06
    -10.467  0.5357E-03  0.6606E-04
    -10.345  0.1732E-02  0.2771E-03
    -10.224  0.2190E-02  0.5439E-03
    -10.102  0.3274E-02  0.9427E-03
     -9.980  0.2351E-02  0.1229E-02
     -9.858  0.4425E-02  0.1768E-02
     -9.736  0.3466E-02  0.2190E-02
     -9.615  0.4012E-02  0.2679E-02
     -9.493  0.4993E-02  0.3287E-02
     -9.371  0.4923E-02  0.3887E-02
     -9.249  0.5411E-02  0.4546E-02
     -9.127  0.3898E-02  0.5021E-02
     -9.006  0.6735E-02  0.5841E-02
     -8.884  0.6483E-02  0.6631E-02
     -8.762  0.5439E-02  0.7293E-02
     -8.640  0.4846E-02  0.7883E-02
     -8.518  0.7380E-02  0.8782E-02
     -8.396  0.8101E-02  0.9769E-02
     -8.275  0.5883E-02  0.1049E-01
     -8.153  0.7552E-02  0.1141E-01
     -8.031  0.6414E-02  0.1219E-01
     -7.909  0.8379E-02  0.1321E-01
     -7.787  0.6147E-02  0.1396E-01
     -7.666  0.9466E-02  0.1511E-01
     -7.544  0.1003E-01  0.1633E-01
     -7.422  0.5827E-02  0.1704E-01
     -7.300  0.7993E-02  0.1801E-01
     -7.178  0.7463E-02  0.1892E-01
     -7.057  0.1167E-01  0.2035E-01
     -6.935  0.9415E-02  0.2149E-01
     -6.813  0.9279E-02  0.2262E-01
     -6.691  0.7846E-02  0.2358E-01
     -6.569  0.1031E-01  0.2483E-01
     -6.448  0.8710E-02  0.2590E-01
     -6.326  0.1092E-01  0.2723E-01
     -6.204  0.1040E-01  0.2849E-01
     -6.082  0.1116E-01  0.2985E-01
     -5.960  0.1032E-01  0.3111E-01
     -5.839  0.1252E-01  0.3263E-01
     -5.717  0.1081E-01  0.3395E-01
     -5.595  0.7939E-02  0.3492E-01
     -5.473  0.1101E-01  0.3626E-01
     -5.351  0.1551E-01  0.3815E-01
     -5.229  0.1236E-01  0.3965E-01
     -5.108  0.1358E-01  0.4131E-01
     -4.986  0.1291E-01  0.4288E-01
     -4.864  0.1294E-01  0.4446E-01
     -4.742  0.1389E-01  0.4615E-01
     -4.620  0.1457E-01  0.4792E-01
     -4.499  0.1773E-01  0.5008E-01
     -4.377  0.1274E-01  0.5163E-01
     -4.255  0.1342E-01  0.5327E-01
     -4.133  0.1659E-01  0.5529E-01
     -4.011  0.1621E-01  0.5726E-01
     -3.890  0.1071E-01  0.5857E-01
     -3.768  0.1152E-01  0.5997E-01
     -3.646  0.1059E-01  0.6126E-01
     -3.524  0.1105E-01  0.6261E-01
     -3.402  0.1610E-01  0.6457E-01
     -3.281  0.1097E-01  0.6590E-01
     -3.159  0.1037E-01  0.6717E-01
     -3.037  0.1041E-01  0.6844E-01
     -2.915  0.1109E-01  0.6979E-01
     -2.793  0.1218E-01  0.7127E-01
     -2.672  0.7517E-02  0.7219E-01
     -2.550  0.7166E-02  0.7306E-01
     -2.428  0.6570E-02  0.7386E-01
     -2.306  0.1053E-01  0.7514E-01
     -2.184  0.1287E-01  0.7671E-01
     -2.062  0.1328E-01  0.7833E-01
     -1.941  0.1397E-01  0.8003E-01
     -1.819  0.1006E-01  0.8125E-01
     -1.697  0.8159E-02  0.8225E-01
     -1.575  0.7728E-02  0.8319E-01
     -1.453  0.1078E-01  0.8450E-01
     -1.332  0.8519E-02  0.8554E-01
     -1.210  0.9901E-02  0.8675E-01
     -1.088  0.1772E-01  0.8890E-01
     -0.966  0.1754E-01  0.9104E-01
     -0.844  0.1733E-01  0.9315E-01
     -0.723  0.2205E-01  0.9584E-01
     -0.601  0.2322E-01  0.9867E-01
     -0.479  0.2144E-01  0.1013E+00
     -0.357  0.1506E-01  0.1031E+00
     -0.235  0.2115E-01  0.1057E+00
     -0.114  0.2339E-01  0.1085E+00
      0.008  0.2375E-01  0.1114E+00
      0.130  0.1747E-01  0.1136E+00
      0.252  0.1288E-01  0.1151E+00
      0.374  0.9747E-02  0.1163E+00
      0.495  0.1128E-01  0.1177E+00
      0.617  0.1305E-01  0.1193E+00
      0.739  0.1285E-01  0.1208E+00
      0.861  0.1025E-01  0.1221E+00
      0.983  0.1461E-01  0.1239E+00
      1.105  0.1544E-01  0.1258E+00
      1.226  0.9356E-02  0.1269E+00
      1.348  0.8784E-02  0.1280E+00
      1.470  0.1192E-01  0.1294E+00
      1.592  0.1103E-01  0.1308E+00
      1.714  0.1178E-01  0.1322E+00
      1.835  0.1422E-01  0.1339E+00
      1.957  0.1659E-01  0.1359E+00
      2.079  0.2204E-01  0.1386E+00
      2.201  0.1597E-01  0.1406E+00
      2.323  0.2572E-01  0.1437E+00
      2.444  0.1939E-01  0.1461E+00
      2.566  0.2509E-01  0.1491E+00
      2.688  0.1971E-01  0.1515E+00
      2.810  0.1532E-01  0.1534E+00
      2.932  0.1443E-01  0.1552E+00
      3.053  0.2087E-01  0.1577E+00
      3.175  0.3032E-01  0.1614E+00
      3.297  0.2660E-01  0.1646E+00
      3.419  0.1472E-01  0.1664E+00
      3.541  0.1804E-01  0.1686E+00
      3.662  0.2205E-01  0.1713E+00
      3.784  0.2360E-01  0.1742E+00
      3.906  0.2578E-01  0.1773E+00
      4.028  0.2607E-01  0.1805E+00
      4.150  0.2145E-01  0.1831E+00
      4.271  0.2049E-01  0.1856E+00
      4.393  0.3017E-01  0.1893E+00
      4.515  0.3137E-01  0.1931E+00
      4.637  0.3297E-01  0.1971E+00
      4.759  0.2874E-01  0.2006E+00
      4.881  0.2770E-01  0.2040E+00
      5.002  0.2930E-01  0.2076E+00
      5.124  0.2913E-01  0.2111E+00
      5.246  0.4017E-01  0.2160E+00
      5.368  0.3827E-01  0.2207E+00
      5.490  0.2252E-01  0.2234E+00
      5.611  0.2122E-01  0.2260E+00
      5.733  0.2945E-01  0.2296E+00
      5.855  0.3560E-01  0.2339E+00
      5.977  0.3574E-01  0.2383E+00
      6.099  0.2465E-01  0.2413E+00
      6.220  0.2460E-01  0.2443E+00
      6.342  0.3038E-01  0.2480E+00
      6.464  0.2971E-01  0.2516E+00
      6.586  0.2471E-01  0.2546E+00
      6.708  0.3232E-01  0.2585E+00
      6.829  0.2448E-01  0.2615E+00
      6.951  0.2385E-01  0.2644E+00
      7.073  0.2941E-01  0.2680E+00
      7.195  0.3258E-01  0.2720E+00
      7.317  0.2357E-01  0.2748E+00
      7.438  0.2246E-01  0.2776E+00
      7.560  0.2609E-01  0.2808E+00
      7.682  0.2082E-01  0.2833E+00
      7.804  0.3623E-01  0.2877E+00
      7.926  0.2739E-01  0.2910E+00
      8.048  0.1721E-01  0.2931E+00
      8.169  0.1874E-01  0.2954E+00
      8.291  0.2206E-01  0.2981E+00
      8.413  0.2125E-01  0.3007E+00
      8.535  0.1921E-01  0.3030E+00
      8.657  0.1163E-01  0.3045E+00
      8.778  0.7870E-02  0.3054E+00
      8.900  0.1407E-01  0.3071E+00
      9.022  0.1615E-01  0.3091E+00
      9.144  0.1172E-01  0.3105E+00
      9.266  0.8537E-02  0.3116E+00
      9.387  0.7574E-02  0.3125E+00
      9.509  0.6601E-02  0.3133E+00
      9.631  0.1141E-01  0.3147E+00
      9.753  0.8698E-02  0.3157E+00
      9.875  0.4254E-02  0.3163E+00
      9.996  0.6134E-02  0.3170E+00
     10.118  0.4828E-02  0.3176E+00
     10.240  0.5972E-02  0.3183E+00
     10.362  0.3458E-02  0.3187E+00
     10.484  0.4981E-02  0.3193E+00
     10.605  0.1474E-02  0.3195E+00
     10.727  0.2812E-02  0.3199E+00
     10.849  0.1059E-02  0.3200E+00
     10.971  0.5462E-04  0.3200E+00
     11.093  0.7583E-09  0.3200E+00
     11.215  0.0000E+00  0.3200E+00
     11.336  0.0000E+00  0.3200E+00
     11.458  0.0000E+00  0.3200E+00
     11.580  0.0000E+00  0.3200E+00
     11.702  0.0000E+00  0.3200E+00
     11.824  0.0000E+00  0.3200E+00
     11.945  0.0000E+00  0.3200E+00
     12.067  0.0000E+00  0.3200E+00
     12.189  0.0000E+00  0.3200E+00
     12.311  0.0000E+00  0.3200E+00
     12.433  0.0000E+00  0.3200E+00
     12.554  0.0000E+00  0.3200E+00
     12.676  0.0000E+00  0.3200E+00
     12.798  0.0000E+00  0.3200E+00
     12.920  0.0000E+00  0.3200E+00
     13.042  0.0000E+00  0.3200E+00
     13.163  0.0000E+00  0.3200E+00
     13.285  0.0000E+00  0.3200E+00
     13.407  0.0000E+00  0.3200E+00
     13.529  0.0000E+00  0.3200E+00
     13.651  0.0000E+00  0.3200E+00
     13.772  0.0000E+00  0.3200E+00
     13.894  0.0000E+00  0.3200E+00
     14.016  0.0000E+00  0.3200E+00
     14.138  0.0000E+00  0.3200E+00
     14.260  0.0000E+00  0.3200E+00
     14.382  0.0000E+00  0.3200E+00
     14.503  0.0000E+00  0.3200E+00
     14.625  0.0000E+00  0.3200E+00
     14.747  0.0000E+00  0.3200E+00
     14.869  0.7949E-10  0.3200E+00
     14.991  0.3865E-04  0.3200E+00
     15.112  0.3023E-02  0.3204E+00
     15.234  0.3137E-02  0.3208E+00
     15.356  0.2518E-02  0.3211E+00
     15.478  0.6763E-02  0.3219E+00
     15.600  0.1087E-01  0.3232E+00
     15.721  0.7752E-02  0.3242E+00
     15.843  0.5468E-02  0.3248E+00
     15.965  0.1158E-01  0.3262E+00
     16.087  0.8207E-02  0.3272E+00
     16.209  0.1369E-01  0.3289E+00
     16.330  0.2204E-01  0.3316E+00
     16.452  0.1652E-01  0.3336E+00
     16.574  0.1398E-01  0.3353E+00
     16.696  0.1552E-01  0.3372E+00
     16.818  0.1515E-01  0.3390E+00
     16.939  0.1841E-01  0.3413E+00
     17.061  0.2377E-01  0.3442E+00
     17.183  0.2202E-01  0.3469E+00
     17.305  0.2063E-01  0.3494E+00
     17.427  0.2175E-01  0.3520E+00
     17.549  0.2197E-01  0.3547E+00
     17.670  0.2271E-01  0.3575E+00
     17.792  0.2268E-01  0.3602E+00
     17.914  0.2471E-01  0.3632E+00
     18.036  0.2580E-01  0.3664E+00
     18.158  0.2297E-01  0.3692E+00
     18.279  0.2610E-01  0.3724E+00
     18.401  0.3009E-01  0.3760E+00
     18.523  0.3663E-01  0.3805E+00
     18.645  0.4157E-01  0.3855E+00
     18.767  0.2821E-01  0.3890E+00
     18.888  0.3289E-01  0.3930E+00
     19.010  0.3212E-01  0.3969E+00
     19.132  0.4635E-01  0.4025E+00
     19.254  0.3730E-01  0.4071E+00
     19.376  0.3539E-01  0.4114E+00
     19.497  0.5312E-01  0.4179E+00
     19.619  0.4324E-01  0.4231E+00
     19.741  0.3571E-01  0.4275E+00
     19.863  0.3575E-01  0.4318E+00
     19.985  0.2788E-01  0.4352E+00
     20.106  0.2782E-01  0.4386E+00
     20.228  0.2333E-01  0.4415E+00
     20.350  0.2568E-01  0.4446E+00
     20.472  0.3478E-01  0.4488E+00
     20.594  0.3156E-01  0.4527E+00
     20.716  0.3136E-01  0.4565E+00
     20.837  0.2639E-01  0.4597E+00
     20.959  0.2721E-01  0.4630E+00
     21.081  0.2310E-01  0.4658E+00
     21.203  0.1798E-01  0.4680E+00
     21.325  0.1601E-01  0.4700E+00
     21.446  0.1856E-01  0.4722E+00
     21.568  0.1654E-01  0.4742E+00
     21.690  0.1159E-01  0.4757E+00
     21.812  0.1503E-01  0.4775E+00
     21.934  0.8984E-02  0.4786E+00
     22.055  0.4541E-02  0.4791E+00
     22.177  0.2774E-02  0.4795E+00
     22.299  0.9645E-03  0.4796E+00
     22.421  0.2443E-03  0.4796E+00
     22.543  0.1535E-02  0.4798E+00
     22.664  0.9095E-03  0.4799E+00
     22.786  0.6331E-03  0.4800E+00
     22.908  0.1018E-04  0.4800E+00
     23.030  0.6185E-11  0.4800E+00
     23.152  0.0000E+00  0.4800E+00
     23.273  0.0000E+00  0.4800E+00
     23.395  0.0000E+00  0.4800E+00
     23.517  0.0000E+00  0.4800E+00
     23.639  0.0000E+00  0.4800E+00
     23.761  0.0000E+00  0.4800E+00
     23.883  0.0000E+00  0.4800E+00
     24.004  0.0000E+00  0.4800E+00
     24.126  0.0000E+00  0.4800E+00
     24.248  0.0000E+00  0.4800E+00
     24.370  0.0000E+00  0.4800E+00
