       N       E                     dE             d eps       ncg     rms          rms(c)
DAV:   1     0.100451353334E+03    0.10045E+03   -0.25947E+04 13440   0.199E+03
DAV:   2    -0.724673859135E+02   -0.17292E+03   -0.16980E+03 21624   0.225E+02
DAV:   3    -0.752440397906E+02   -0.27767E+01   -0.27767E+01 14904   0.403E+01
DAV:   4    -0.752638500211E+02   -0.19810E-01   -0.19810E-01 25632   0.270E+00
DAV:   5    -0.752638524709E+02   -0.24498E-05   -0.24497E-05 14688   0.362E-02    0.165E+01
DAV:   6    -0.734346196390E+02    0.18292E+01   -0.13800E+00 16104   0.627E+00    0.108E+01
DAV:   7    -0.728223360468E+02    0.61228E+00   -0.17906E+00 19800   0.721E+00    0.229E+00
DAV:   8    -0.728206887528E+02    0.16473E-02   -0.24250E-02 21192   0.118E+00    0.119E-01
DAV:   9    -0.728208692602E+02   -0.18051E-03   -0.46882E-04 19968   0.145E-01    0.625E-02
DAV:  10    -0.728209924547E+02   -0.12319E-03   -0.11799E-04 20088   0.861E-02    0.484E-03
DAV:  11    -0.728209934118E+02   -0.95708E-06   -0.15318E-06 21432   0.974E-03    0.274E-03
DAV:  12    -0.728209937851E+02   -0.37329E-06   -0.73876E-08 20160   0.242E-03    0.174E-04
DAV:  13    -0.728209937858E+02   -0.78217E-09   -0.82299E-10 21120   0.226E-04
   1 F= -.72820994E+02 E0= -.72820994E+02  d E =-.728210E+02
       N       E                     dE             d eps       ncg     rms          rms(c)
DAV:   1    -0.728198265706E+02    0.11672E-02   -0.27306E-01 17208   0.423E+00    0.105E-01
DAV:   2    -0.728199257422E+02   -0.99172E-04   -0.16731E-03 22920   0.298E-01    0.537E-02
DAV:   3    -0.728198998003E+02    0.25942E-04   -0.66917E-05 18096   0.546E-02    0.122E-02
DAV:   4    -0.728199004773E+02   -0.67698E-06   -0.71383E-06 21648   0.185E-02    0.401E-03
DAV:   5    -0.728199004222E+02    0.55034E-07   -0.64209E-07 17856   0.567E-03    0.717E-04
DAV:   6    -0.728199004114E+02    0.10810E-07   -0.49365E-08 22680   0.165E-03    0.137E-04
DAV:   7    -0.728199004139E+02   -0.25175E-08   -0.15858E-09 14520   0.330E-04
   2 F= -.72819900E+02 E0= -.72819900E+02  d E =0.109337E-02
       N       E                     dE             d eps       ncg     rms          rms(c)
DAV:   1    -0.728211334343E+02   -0.12330E-02   -0.14498E-01 17280   0.308E+00    0.756E-02
DAV:   2    -0.728211839564E+02   -0.50522E-04   -0.86435E-04 22752   0.214E-01    0.388E-02
DAV:   3    -0.728211705504E+02    0.13406E-04   -0.38295E-05 18264   0.412E-02    0.783E-03
DAV:   4    -0.728211710296E+02   -0.47917E-06   -0.34923E-06 20688   0.130E-02    0.298E-03
DAV:   5    -0.728211710363E+02   -0.67957E-08   -0.29960E-07 18456   0.381E-03    0.458E-04
DAV:   6    -0.728211710311E+02    0.52496E-08   -0.24219E-08 20304   0.115E-03
   3 F= -.72821171E+02 E0= -.72821171E+02  d E =-.177245E-03
