 vasp.5.4.4.18Apr17-6-g9f103f2a35 (build Jan 14 2019 14:48:31) complex          
  
 executed on             LinuxIFC date 2019.08.26  20:54:04
 running on   24 total cores
 distrk:  each k-point on   24 cores,    1 groups
 distr:  one band on NCORES_PER_BAND=   1 cores,   24 groups


--------------------------------------------------------------------------------------------------------


 INCAR:
 POTCAR:    PAW_PBE C_h 06Feb2004                 

 ----------------------------------------------------------------------------- 
|                                                                             |
|           W    W    AA    RRRRR   N    N  II  N    N   GGGG   !!!           |
|           W    W   A  A   R    R  NN   N  II  NN   N  G    G  !!!           |
|           W    W  A    A  R    R  N N  N  II  N N  N  G       !!!           |
|           W WW W  AAAAAA  RRRRR   N  N N  II  N  N N  G  GGG   !            |
|           WW  WW  A    A  R   R   N   NN  II  N   NN  G    G                |
|           W    W  A    A  R    R  N    N  II  N    N   GGGG   !!!           |
|                                                                             |
|      For optimal performance we recommend to set                            |
|        NCORE= 4 - approx SQRT( number of cores)                             |
|      NCORE specifies how many cores store one orbital (NPAR=cpu/NCORE).     |
|      This setting can  greatly improve the performance of VASP for DFT.     |
|      The default,   NCORE=1            might be grossly inefficient         |
|      on modern multi-core architectures or massively parallel machines.     |
|      Do your own testing !!!!                                               |
|      Unfortunately you need to use the default for GW and RPA calculations. |
|      (for HF NCORE is supported but not extensively tested yet)             |
|                                                                             |
 ----------------------------------------------------------------------------- 

 POTCAR:    PAW_PBE C_h 06Feb2004                 
   VRHFIN =C: s2p2                                                              
   LEXCH  = PE                                                                  
   EATOM  =   147.1560 eV,   10.8157 Ry                                         
                                                                                
   TITEL  = PAW_PBE C_h 06Feb2004                                               
   LULTRA =        F    use ultrasoft PP ?                                      
   IUNSCR =        1    unscreen: 0-lin 1-nonlin 2-no                           
   RPACOR =    0.800    partial core radius                                     
   POMASS =   12.011; ZVAL   =    4.000    mass and valenz                      
   RCORE  =    1.100    outmost cutoff radius                                   
   RWIGS  =    1.630; RWIGS  =    0.863    wigner-seitz radius (au A)           
   ENMAX  =  700.000; ENMIN  =  500.000 eV                                      
   ICORE  =        2    local potential                                         
   LCOR   =        T    correct aug charges                                     
   LPAW   =        T    paw PP                                                  
   EAUG   =  946.768                                                            
   DEXC   =    0.000                                                            
   RMAX   =    1.128    core radius for proj-oper                               
   RAUG   =    1.300    factor for augmentation sphere                          
   RDEP   =    1.162    radius for radial grids                                 
   RDEPT  =    1.088    core radius for aug-charge                              
                                                                                
   Atomic configuration                                                         
    4 entries                                                                   
     n  l   j            E        occ.                                          
     1  0  0.50      -273.3789   2.0000                                         
     2  0  0.50       -13.7508   2.0000                                         
     2  1  0.50        -5.2854   2.0000                                         
     3  2  1.50        -5.4423   0.0000                                         
   Description                                                                  
     l       E           TYP  RCUT    TYP  RCUT                                 
     0    -13.7508458     23  1.100                                             
     0     -8.2022199     23  1.100                                             
     1     -5.2854383     23  1.100                                             
     1      1.1560700     23  1.100                                             
     2     -5.4423304      7  1.100                                             
  local pseudopotential read in
  partial core-charges read in
  partial kinetic energy density read in
  atomic valenz-charges read in
  non local Contribution for L=           0  read in
    real space projection operators read in
  non local Contribution for L=           0  read in
    real space projection operators read in
  non local Contribution for L=           1  read in
    real space projection operators read in
  non local Contribution for L=           1  read in
    real space projection operators read in
    PAW grid and wavefunctions read in
 
   number of l-projection  operators is LMAX  =           4
   number of lm-projection operators is LMMAX =           8
 
  PAW_PBE C_h 06Feb2004                 :
 energy of atom  1       EATOM= -147.1560
 kinetic energy error for atom=    0.0044 (will be added to EATOM!!)
 
 
 POSCAR: C8                                      
  positions in direct lattice
  velocities in cartesian coordinates
 exchange correlation table for  LEXCH =        8
   RHO(1)=    0.500       N(1)  =     2000
   RHO(2)=  100.500       N(2)  =     4000

 VTST: version 3.1, (03/28/14)

 CHAIN: initializing optimizer
 
 OPT: Using VASP Conjugate-Gradient optimizer
 CHAIN: Read ICHAIN            0
 
 POSCAR: C8                                      
  positions in direct lattice
  velocities in cartesian coordinates
 


--------------------------------------------------------------------------------------------------------


 ion  position               nearest neighbor table
   1  0.250  0.250  0.250-   2 1.53   4 1.55   6 1.55   8 1.55
   2  0.000  0.000  0.000-   1 1.53   3 1.55   5 1.55   7 1.55
   3  0.250  0.750  0.750-   4 1.53   2 1.55   6 1.55   8 1.55
   4  0.000  0.500  0.500-   3 1.53   1 1.55   5 1.55   7 1.55
   5  0.750  0.250  0.750-   6 1.53   4 1.55   2 1.55   8 1.55
   6  0.500  0.000  0.500-   5 1.53   3 1.55   1 1.55   7 1.55
   7  0.750  0.750  0.250-   8 1.53   4 1.55   6 1.55   2 1.55
   8  0.500  0.500  0.000-   7 1.53   3 1.55   5 1.55   1 1.55
 
  LATTYP: Found a trigonal (rhomboedric) cell.
 ALAT       =     3.5736944100
 COS(alpha) =    -0.0099745013
  
  Lattice vectors:
  
 A1 = (   3.5736050710,  -0.0178680254,  -0.0178680254)
 A2 = (  -0.0178680254,   3.5736050710,  -0.0178680254)
 A3 = (  -0.0178680254,  -0.0178680254,   3.5736050710)


Analysis of symmetry for initial positions (statically):
=====================================================================
 Subroutine PRICEL returns following result:
 
  LATTYP: Found a trigonal (rhomboedric) cell.
 ALAT       =     2.5143492667
 COS(alpha) =     0.4899250057
  
  Lattice vectors:
  
 A1 = (  -0.0178680254,   1.7778685228,   1.7778685228)
 A2 = (   1.7778685228,  -0.0178680254,   1.7778685228)
 A3 = (   1.7778685228,   1.7778685228,  -0.0178680254)
 
   4 primitive cells build up your supercell.
 

 Routine SETGRP: Setting up the symmetry group for a 
 trigonal (rhombohedral) supercell.


 Subroutine GETGRP returns: Found 12 space group operations
 (whereof  6 operations were pure point group operations)
 out of a pool of 12 trial point group operations.


The static configuration has the point symmetry C_3v.
 The point group associated with its full space group is D_3d.


Analysis of symmetry for dynamics (positions and initial velocities):
=====================================================================
 Subroutine PRICEL returns following result:
 
  LATTYP: Found a trigonal (rhomboedric) cell.
 ALAT       =     2.5143492667
 COS(alpha) =     0.4899250057
  
  Lattice vectors:
  
 A1 = (  -0.0178680254,   1.7778685228,   1.7778685228)
 A2 = (   1.7778685228,  -0.0178680254,   1.7778685228)
 A3 = (   1.7778685228,   1.7778685228,  -0.0178680254)
 
   4 primitive cells build up your supercell.
 

 Routine SETGRP: Setting up the symmetry group for a 
 trigonal (rhombohedral) supercell.


 Subroutine GETGRP returns: Found 12 space group operations
 (whereof  6 operations were pure point group operations)
 out of a pool of 12 trial point group operations.


The dynamic configuration has the point symmetry C_3v.
 The point group associated with its full space group is D_3d.


 Subroutine INISYM returns: Found 12 space group operations
 (whereof  6 operations are pure point group operations),
 and found     4 'primitive' translations

 
 
 KPOINTS: K-Mesh Generated with KP-Resolved Value 

Automatic generation of k-mesh.
Space group operators:
 irot       det(A)        alpha          n_x          n_y          n_z        tau_x        tau_y        tau_z
    1     1.000000     0.000000     1.000000     0.000000     0.000000     0.000000     0.000000     0.000000
    2    -1.000000   180.000000    -0.000000     0.707107    -0.707107     0.000000     0.000000     0.000000
    3     1.000000   120.000000    -0.577350    -0.577350    -0.577350     0.000000     0.000000     0.000000
    4    -1.000000   180.000000     0.707107    -0.707107    -0.000000     0.000000     0.000000     0.000000
    5     1.000000   120.000000     0.577350     0.577350     0.577350     0.000000     0.000000     0.000000
    6    -1.000000   180.000000     0.707107     0.000000    -0.707107     0.000000     0.000000     0.000000
    7    -1.000000     0.000000     1.000000     0.000000     0.000000     0.250000     0.250000     0.250000
    8     1.000000   180.000000    -0.000000     0.707107    -0.707107     0.250000     0.250000     0.250000
    9    -1.000000   120.000000    -0.577350    -0.577350    -0.577350     0.250000     0.250000     0.250000
   10     1.000000   180.000000     0.707107    -0.707107    -0.000000     0.250000     0.250000     0.250000
   11    -1.000000   120.000000     0.577350     0.577350     0.577350     0.250000     0.250000     0.250000
   12     1.000000   180.000000     0.707107     0.000000    -0.707107     0.250000     0.250000     0.250000
 
 Subroutine IBZKPT returns following result:
 ===========================================
 
 Found    280 irreducible k-points:
 
 Following reciprocal coordinates:
            Coordinates               Weight
  0.035714  0.035714  0.035714      2.000000
  0.107143  0.035714  0.035714      6.000000
  0.178571  0.035714  0.035714      6.000000
  0.250000  0.035714  0.035714      6.000000
  0.321429  0.035714  0.035714      6.000000
  0.392857  0.035714  0.035714      6.000000
  0.464286  0.035714  0.035714      6.000000
 -0.464286  0.035714  0.035714      6.000000
 -0.392857  0.035714  0.035714      6.000000
 -0.321429  0.035714  0.035714      6.000000
 -0.250000  0.035714  0.035714      6.000000
 -0.178571  0.035714  0.035714      6.000000
 -0.107143  0.035714  0.035714      6.000000
 -0.035714  0.035714  0.035714      6.000000
  0.107143  0.107143  0.035714      6.000000
  0.178571  0.107143  0.035714     12.000000
  0.250000  0.107143  0.035714     12.000000
  0.321429  0.107143  0.035714     12.000000
  0.392857  0.107143  0.035714     12.000000
  0.464286  0.107143  0.035714     12.000000
 -0.464286  0.107143  0.035714     12.000000
 -0.392857  0.107143  0.035714     12.000000
 -0.321429  0.107143  0.035714     12.000000
 -0.250000  0.107143  0.035714     12.000000
 -0.178571  0.107143  0.035714     12.000000
 -0.107143  0.107143  0.035714     12.000000
 -0.035714  0.107143  0.035714     12.000000
  0.178571  0.178571  0.035714      6.000000
  0.250000  0.178571  0.035714     12.000000
  0.321429  0.178571  0.035714     12.000000
  0.392857  0.178571  0.035714     12.000000
  0.464286  0.178571  0.035714     12.000000
 -0.464286  0.178571  0.035714     12.000000
 -0.392857  0.178571  0.035714     12.000000
 -0.321429  0.178571  0.035714     12.000000
 -0.250000  0.178571  0.035714     12.000000
 -0.178571  0.178571  0.035714     12.000000
 -0.107143  0.178571  0.035714     12.000000
 -0.035714  0.178571  0.035714     12.000000
  0.250000  0.250000  0.035714      6.000000
  0.321429  0.250000  0.035714     12.000000
  0.392857  0.250000  0.035714     12.000000
  0.464286  0.250000  0.035714     12.000000
 -0.464286  0.250000  0.035714     12.000000
 -0.392857  0.250000  0.035714     12.000000
 -0.321429  0.250000  0.035714     12.000000
 -0.250000  0.250000  0.035714     12.000000
 -0.178571  0.250000  0.035714     12.000000
 -0.107143  0.250000  0.035714     12.000000
 -0.035714  0.250000  0.035714     12.000000
  0.321429  0.321429  0.035714      6.000000
  0.392857  0.321429  0.035714     12.000000
  0.464286  0.321429  0.035714     12.000000
 -0.464286  0.321429  0.035714     12.000000
 -0.392857  0.321429  0.035714     12.000000
 -0.321429  0.321429  0.035714     12.000000
 -0.250000  0.321429  0.035714     12.000000
 -0.178571  0.321429  0.035714     12.000000
 -0.107143  0.321429  0.035714     12.000000
 -0.035714  0.321429  0.035714     12.000000
  0.392857  0.392857  0.035714      6.000000
  0.464286  0.392857  0.035714     12.000000
 -0.464286  0.392857  0.035714     12.000000
 -0.392857  0.392857  0.035714     12.000000
 -0.321429  0.392857  0.035714     12.000000
 -0.250000  0.392857  0.035714     12.000000
 -0.178571  0.392857  0.035714     12.000000
 -0.107143  0.392857  0.035714     12.000000
 -0.035714  0.392857  0.035714     12.000000
  0.464286  0.464286  0.035714      6.000000
 -0.464286  0.464286  0.035714     12.000000
 -0.392857  0.464286  0.035714     12.000000
 -0.321429  0.464286  0.035714     12.000000
 -0.250000  0.464286  0.035714     12.000000
 -0.178571  0.464286  0.035714     12.000000
 -0.107143  0.464286  0.035714     12.000000
 -0.035714  0.464286  0.035714     12.000000
 -0.464286 -0.464286  0.035714      6.000000
 -0.392857 -0.464286  0.035714     12.000000
 -0.321429 -0.464286  0.035714     12.000000
 -0.250000 -0.464286  0.035714     12.000000
 -0.178571 -0.464286  0.035714     12.000000
 -0.107143 -0.464286  0.035714     12.000000
 -0.392857 -0.392857  0.035714      6.000000
 -0.321429 -0.392857  0.035714     12.000000
 -0.250000 -0.392857  0.035714     12.000000
 -0.178571 -0.392857  0.035714     12.000000
 -0.107143 -0.392857  0.035714     12.000000
 -0.321429 -0.321429  0.035714      6.000000
 -0.250000 -0.321429  0.035714     12.000000
 -0.178571 -0.321429  0.035714     12.000000
 -0.107143 -0.321429  0.035714     12.000000
 -0.250000 -0.250000  0.035714      6.000000
 -0.178571 -0.250000  0.035714     12.000000
 -0.107143 -0.250000  0.035714     12.000000
 -0.178571 -0.178571  0.035714      6.000000
 -0.107143 -0.178571  0.035714     12.000000
 -0.107143 -0.107143  0.035714      6.000000
  0.107143  0.107143  0.107143      2.000000
  0.178571  0.107143  0.107143      6.000000
  0.250000  0.107143  0.107143      6.000000
  0.321429  0.107143  0.107143      6.000000
  0.392857  0.107143  0.107143      6.000000
  0.464286  0.107143  0.107143      6.000000
 -0.464286  0.107143  0.107143      6.000000
 -0.392857  0.107143  0.107143      6.000000
 -0.321429  0.107143  0.107143      6.000000
 -0.250000  0.107143  0.107143      6.000000
 -0.178571  0.107143  0.107143      6.000000
 -0.107143  0.107143  0.107143      6.000000
  0.178571  0.178571  0.107143      6.000000
  0.250000  0.178571  0.107143     12.000000
  0.321429  0.178571  0.107143     12.000000
  0.392857  0.178571  0.107143     12.000000
  0.464286  0.178571  0.107143     12.000000
 -0.464286  0.178571  0.107143     12.000000
 -0.392857  0.178571  0.107143     12.000000
 -0.321429  0.178571  0.107143     12.000000
 -0.250000  0.178571  0.107143     12.000000
 -0.178571  0.178571  0.107143     12.000000
 -0.107143  0.178571  0.107143     12.000000
  0.250000  0.250000  0.107143      6.000000
  0.321429  0.250000  0.107143     12.000000
  0.392857  0.250000  0.107143     12.000000
  0.464286  0.250000  0.107143     12.000000
 -0.464286  0.250000  0.107143     12.000000
 -0.392857  0.250000  0.107143     12.000000
 -0.321429  0.250000  0.107143     12.000000
 -0.250000  0.250000  0.107143     12.000000
 -0.178571  0.250000  0.107143     12.000000
 -0.107143  0.250000  0.107143     12.000000
  0.321429  0.321429  0.107143      6.000000
  0.392857  0.321429  0.107143     12.000000
  0.464286  0.321429  0.107143     12.000000
 -0.464286  0.321429  0.107143     12.000000
 -0.392857  0.321429  0.107143     12.000000
 -0.321429  0.321429  0.107143     12.000000
 -0.250000  0.321429  0.107143     12.000000
 -0.178571  0.321429  0.107143     12.000000
 -0.107143  0.321429  0.107143     12.000000
  0.392857  0.392857  0.107143      6.000000
  0.464286  0.392857  0.107143     12.000000
 -0.464286  0.392857  0.107143     12.000000
 -0.392857  0.392857  0.107143     12.000000
 -0.321429  0.392857  0.107143     12.000000
 -0.250000  0.392857  0.107143     12.000000
 -0.178571  0.392857  0.107143     12.000000
 -0.107143  0.392857  0.107143     12.000000
  0.464286  0.464286  0.107143      6.000000
 -0.464286  0.464286  0.107143     12.000000
 -0.392857  0.464286  0.107143     12.000000
 -0.321429  0.464286  0.107143     12.000000
 -0.250000  0.464286  0.107143     12.000000
 -0.178571  0.464286  0.107143     12.000000
 -0.107143  0.464286  0.107143     12.000000
 -0.464286 -0.464286  0.107143      6.000000
 -0.392857 -0.464286  0.107143     12.000000
 -0.321429 -0.464286  0.107143     12.000000
 -0.250000 -0.464286  0.107143     12.000000
 -0.178571 -0.464286  0.107143     12.000000
 -0.392857 -0.392857  0.107143      6.000000
 -0.321429 -0.392857  0.107143     12.000000
 -0.250000 -0.392857  0.107143     12.000000
 -0.178571 -0.392857  0.107143     12.000000
 -0.321429 -0.321429  0.107143      6.000000
 -0.250000 -0.321429  0.107143     12.000000
 -0.178571 -0.321429  0.107143     12.000000
 -0.250000 -0.250000  0.107143      6.000000
 -0.178571 -0.250000  0.107143     12.000000
 -0.178571 -0.178571  0.107143      6.000000
  0.178571  0.178571  0.178571      2.000000
  0.250000  0.178571  0.178571      6.000000
  0.321429  0.178571  0.178571      6.000000
  0.392857  0.178571  0.178571      6.000000
  0.464286  0.178571  0.178571      6.000000
 -0.464286  0.178571  0.178571      6.000000
 -0.392857  0.178571  0.178571      6.000000
 -0.321429  0.178571  0.178571      6.000000
 -0.250000  0.178571  0.178571      6.000000
 -0.178571  0.178571  0.178571      6.000000
  0.250000  0.250000  0.178571      6.000000
  0.321429  0.250000  0.178571     12.000000
  0.392857  0.250000  0.178571     12.000000
  0.464286  0.250000  0.178571     12.000000
 -0.464286  0.250000  0.178571     12.000000
 -0.392857  0.250000  0.178571     12.000000
 -0.321429  0.250000  0.178571     12.000000
 -0.250000  0.250000  0.178571     12.000000
 -0.178571  0.250000  0.178571     12.000000
  0.321429  0.321429  0.178571      6.000000
  0.392857  0.321429  0.178571     12.000000
  0.464286  0.321429  0.178571     12.000000
 -0.464286  0.321429  0.178571     12.000000
 -0.392857  0.321429  0.178571     12.000000
 -0.321429  0.321429  0.178571     12.000000
 -0.250000  0.321429  0.178571     12.000000
 -0.178571  0.321429  0.178571     12.000000
  0.392857  0.392857  0.178571      6.000000
  0.464286  0.392857  0.178571     12.000000
 -0.464286  0.392857  0.178571     12.000000
 -0.392857  0.392857  0.178571     12.000000
 -0.321429  0.392857  0.178571     12.000000
 -0.250000  0.392857  0.178571     12.000000
 -0.178571  0.392857  0.178571     12.000000
  0.464286  0.464286  0.178571      6.000000
 -0.464286  0.464286  0.178571     12.000000
 -0.392857  0.464286  0.178571     12.000000
 -0.321429  0.464286  0.178571     12.000000
 -0.250000  0.464286  0.178571     12.000000
 -0.178571  0.464286  0.178571     12.000000
 -0.464286 -0.464286  0.178571      6.000000
 -0.392857 -0.464286  0.178571     12.000000
 -0.321429 -0.464286  0.178571     12.000000
 -0.250000 -0.464286  0.178571     12.000000
 -0.392857 -0.392857  0.178571      6.000000
 -0.321429 -0.392857  0.178571     12.000000
 -0.250000 -0.392857  0.178571     12.000000
 -0.321429 -0.321429  0.178571      6.000000
 -0.250000 -0.321429  0.178571     12.000000
 -0.250000 -0.250000  0.178571      6.000000
  0.250000  0.250000  0.250000      2.000000
  0.321429  0.250000  0.250000      6.000000
  0.392857  0.250000  0.250000      6.000000
  0.464286  0.250000  0.250000      6.000000
 -0.464286  0.250000  0.250000      6.000000
 -0.392857  0.250000  0.250000      6.000000
 -0.321429  0.250000  0.250000      6.000000
 -0.250000  0.250000  0.250000      6.000000
  0.321429  0.321429  0.250000      6.000000
  0.392857  0.321429  0.250000     12.000000
  0.464286  0.321429  0.250000     12.000000
 -0.464286  0.321429  0.250000     12.000000
 -0.392857  0.321429  0.250000     12.000000
 -0.321429  0.321429  0.250000     12.000000
 -0.250000  0.321429  0.250000     12.000000
  0.392857  0.392857  0.250000      6.000000
  0.464286  0.392857  0.250000     12.000000
 -0.464286  0.392857  0.250000     12.000000
 -0.392857  0.392857  0.250000     12.000000
 -0.321429  0.392857  0.250000     12.000000
 -0.250000  0.392857  0.250000     12.000000
  0.464286  0.464286  0.250000      6.000000
 -0.464286  0.464286  0.250000     12.000000
 -0.392857  0.464286  0.250000     12.000000
 -0.321429  0.464286  0.250000     12.000000
 -0.250000  0.464286  0.250000     12.000000
 -0.464286 -0.464286  0.250000      6.000000
 -0.392857 -0.464286  0.250000     12.000000
 -0.321429 -0.464286  0.250000     12.000000
 -0.392857 -0.392857  0.250000      6.000000
 -0.321429 -0.392857  0.250000     12.000000
 -0.321429 -0.321429  0.250000      6.000000
  0.321429  0.321429  0.321429      2.000000
  0.392857  0.321429  0.321429      6.000000
  0.464286  0.321429  0.321429      6.000000
 -0.464286  0.321429  0.321429      6.000000
 -0.392857  0.321429  0.321429      6.000000
 -0.321429  0.321429  0.321429      6.000000
  0.392857  0.392857  0.321429      6.000000
  0.464286  0.392857  0.321429     12.000000
 -0.464286  0.392857  0.321429     12.000000
 -0.392857  0.392857  0.321429     12.000000
 -0.321429  0.392857  0.321429     12.000000
  0.464286  0.464286  0.321429      6.000000
 -0.464286  0.464286  0.321429     12.000000
 -0.392857  0.464286  0.321429     12.000000
 -0.321429  0.464286  0.321429     12.000000
 -0.464286 -0.464286  0.321429      6.000000
 -0.392857 -0.464286  0.321429     12.000000
 -0.392857 -0.392857  0.321429      6.000000
  0.392857  0.392857  0.392857      2.000000
  0.464286  0.392857  0.392857      6.000000
 -0.464286  0.392857  0.392857      6.000000
 -0.392857  0.392857  0.392857      6.000000
  0.464286  0.464286  0.392857      6.000000
 -0.464286  0.464286  0.392857     12.000000
 -0.392857  0.464286  0.392857     12.000000
 -0.464286 -0.464286  0.392857      6.000000
  0.464286  0.464286  0.464286      2.000000
 -0.464286  0.464286  0.464286      6.000000
 
 Following cartesian coordinates:
            Coordinates               Weight
  0.010095  0.010095  0.010095      2.000000
  0.030084  0.010195  0.010195      6.000000
  0.050073  0.010296  0.010296      6.000000
  0.070061  0.010396  0.010396      6.000000
  0.090050  0.010497  0.010497      6.000000
  0.110039  0.010597  0.010597      6.000000
  0.130028  0.010698  0.010698      6.000000
 -0.129827  0.009392  0.009392      6.000000
 -0.109838  0.009492  0.009492      6.000000
 -0.089849  0.009593  0.009593      6.000000
 -0.069860  0.009693  0.009693      6.000000
 -0.049872  0.009794  0.009794      6.000000
 -0.029883  0.009894  0.009894      6.000000
 -0.009894  0.009994  0.009994      6.000000
  0.030184  0.030184  0.010296      6.000000
  0.050173  0.030285  0.010396     12.000000
  0.070162  0.030385  0.010497     12.000000
  0.090151  0.030485  0.010597     12.000000
  0.110139  0.030586  0.010698     12.000000
  0.130128  0.030686  0.010798     12.000000
 -0.129726  0.029381  0.009492     12.000000
 -0.109738  0.029481  0.009593     12.000000
 -0.089749  0.029581  0.009693     12.000000
 -0.069760  0.029682  0.009794     12.000000
 -0.049771  0.029782  0.009894     12.000000
 -0.029782  0.029883  0.009994     12.000000
 -0.009794  0.029983  0.010095     12.000000
  0.050273  0.050273  0.010497      6.000000
  0.070262  0.050374  0.010597     12.000000
  0.090251  0.050474  0.010698     12.000000
  0.110240  0.050575  0.010798     12.000000
  0.130229  0.050675  0.010898     12.000000
 -0.129626  0.049369  0.009593     12.000000
 -0.109637  0.049470  0.009693     12.000000
 -0.089648  0.049570  0.009794     12.000000
 -0.069660  0.049671  0.009894     12.000000
 -0.049671  0.049771  0.009994     12.000000
 -0.029682  0.049872  0.010095     12.000000
 -0.009693  0.049972  0.010195     12.000000
  0.070363  0.070363  0.010698      6.000000
  0.090351  0.070463  0.010798     12.000000
  0.110340  0.070564  0.010898     12.000000
  0.130329  0.070664  0.010999     12.000000
 -0.129526  0.069358  0.009693     12.000000
 -0.109537  0.069459  0.009794     12.000000
 -0.089548  0.069559  0.009894     12.000000
 -0.069559  0.069660  0.009994     12.000000
 -0.049570  0.069760  0.010095     12.000000
 -0.029581  0.069860  0.010195     12.000000
 -0.009593  0.069961  0.010296     12.000000
  0.090452  0.090452  0.010898      6.000000
  0.110441  0.090552  0.010999     12.000000
  0.130430  0.090653  0.011099     12.000000
 -0.129425  0.089347  0.009794     12.000000
 -0.109436  0.089447  0.009894     12.000000
 -0.089447  0.089548  0.009994     12.000000
 -0.069459  0.089648  0.010095     12.000000
 -0.049470  0.089749  0.010195     12.000000
 -0.029481  0.089849  0.010296     12.000000
 -0.009492  0.089950  0.010396     12.000000
  0.110541  0.110541  0.011099      6.000000
  0.130530  0.110642  0.011200     12.000000
 -0.129325  0.109336  0.009894     12.000000
 -0.109336  0.109436  0.009994     12.000000
 -0.089347  0.109537  0.010095     12.000000
 -0.069358  0.109637  0.010195     12.000000
 -0.049369  0.109738  0.010296     12.000000
 -0.029381  0.109838  0.010396     12.000000
 -0.009392  0.109939  0.010497     12.000000
  0.130630  0.130630  0.011300      6.000000
 -0.129224  0.129325  0.009994     12.000000
 -0.109235  0.129425  0.010095     12.000000
 -0.089247  0.129526  0.010195     12.000000
 -0.069258  0.129626  0.010296     12.000000
 -0.049269  0.129726  0.010396     12.000000
 -0.029280  0.129827  0.010497     12.000000
 -0.009291  0.129927  0.010597     12.000000
 -0.130530 -0.130530  0.008689      6.000000
 -0.110541 -0.130430  0.008789     12.000000
 -0.090552 -0.130329  0.008890     12.000000
 -0.070564 -0.130229  0.008990     12.000000
 -0.050575 -0.130128  0.009090     12.000000
 -0.030586 -0.130028  0.009191     12.000000
 -0.110441 -0.110441  0.008890      6.000000
 -0.090452 -0.110340  0.008990     12.000000
 -0.070463 -0.110240  0.009090     12.000000
 -0.050474 -0.110139  0.009191     12.000000
 -0.030485 -0.110039  0.009291     12.000000
 -0.090351 -0.090351  0.009090      6.000000
 -0.070363 -0.090251  0.009191     12.000000
 -0.050374 -0.090151  0.009291     12.000000
 -0.030385 -0.090050  0.009392     12.000000
 -0.070262 -0.070262  0.009291      6.000000
 -0.050273 -0.070162  0.009392     12.000000
 -0.030285 -0.070061  0.009492     12.000000
 -0.050173 -0.050173  0.009492      6.000000
 -0.030184 -0.050073  0.009593     12.000000
 -0.030084 -0.030084  0.009693      6.000000
  0.030285  0.030285  0.030285      2.000000
  0.050273  0.030385  0.030385      6.000000
  0.070262  0.030485  0.030485      6.000000
  0.090251  0.030586  0.030586      6.000000
  0.110240  0.030686  0.030686      6.000000
  0.130229  0.030787  0.030787      6.000000
 -0.129626  0.029481  0.029481      6.000000
 -0.109637  0.029581  0.029581      6.000000
 -0.089648  0.029682  0.029682      6.000000
 -0.069660  0.029782  0.029782      6.000000
 -0.049671  0.029883  0.029883      6.000000
 -0.029682  0.029983  0.029983      6.000000
  0.050374  0.050374  0.030485      6.000000
  0.070363  0.050474  0.030586     12.000000
  0.090351  0.050575  0.030686     12.000000
  0.110340  0.050675  0.030787     12.000000
  0.130329  0.050776  0.030887     12.000000
 -0.129526  0.049470  0.029581     12.000000
 -0.109537  0.049570  0.029682     12.000000
 -0.089548  0.049671  0.029782     12.000000
 -0.069559  0.049771  0.029883     12.000000
 -0.049570  0.049872  0.029983     12.000000
 -0.029581  0.049972  0.030084     12.000000
  0.070463  0.070463  0.030686      6.000000
  0.090452  0.070564  0.030787     12.000000
  0.110441  0.070664  0.030887     12.000000
  0.130430  0.070764  0.030988     12.000000
 -0.129425  0.069459  0.029682     12.000000
 -0.109436  0.069559  0.029782     12.000000
 -0.089447  0.069660  0.029883     12.000000
 -0.069459  0.069760  0.029983     12.000000
 -0.049470  0.069860  0.030084     12.000000
 -0.029481  0.069961  0.030184     12.000000
  0.090552  0.090552  0.030887      6.000000
  0.110541  0.090653  0.030988     12.000000
  0.130530  0.090753  0.031088     12.000000
 -0.129325  0.089447  0.029782     12.000000
 -0.109336  0.089548  0.029883     12.000000
 -0.089347  0.089648  0.029983     12.000000
 -0.069358  0.089749  0.030084     12.000000
 -0.049369  0.089849  0.030184     12.000000
 -0.029381  0.089950  0.030285     12.000000
  0.110642  0.110642  0.031088      6.000000
  0.130630  0.110742  0.031189     12.000000
 -0.129224  0.109436  0.029883     12.000000
 -0.109235  0.109537  0.029983     12.000000
 -0.089247  0.109637  0.030084     12.000000
 -0.069258  0.109738  0.030184     12.000000
 -0.049269  0.109838  0.030285     12.000000
 -0.029280  0.109939  0.030385     12.000000
  0.130731  0.130731  0.031289      6.000000
 -0.129124  0.129425  0.029983     12.000000
 -0.109135  0.129526  0.030084     12.000000
 -0.089146  0.129626  0.030184     12.000000
 -0.069157  0.129726  0.030285     12.000000
 -0.049168  0.129827  0.030385     12.000000
 -0.029180  0.129927  0.030485     12.000000
 -0.130430 -0.130430  0.028677      6.000000
 -0.110441 -0.130329  0.028778     12.000000
 -0.090452 -0.130229  0.028878     12.000000
 -0.070463 -0.130128  0.028979     12.000000
 -0.050474 -0.130028  0.029079     12.000000
 -0.110340 -0.110340  0.028878      6.000000
 -0.090351 -0.110240  0.028979     12.000000
 -0.070363 -0.110139  0.029079     12.000000
 -0.050374 -0.110039  0.029180     12.000000
 -0.090251 -0.090251  0.029079      6.000000
 -0.070262 -0.090151  0.029180     12.000000
 -0.050273 -0.090050  0.029280     12.000000
 -0.070162 -0.070162  0.029280      6.000000
 -0.050173 -0.070061  0.029381     12.000000
 -0.050073 -0.050073  0.029481      6.000000
  0.050474  0.050474  0.050474      2.000000
  0.070463  0.050575  0.050575      6.000000
  0.090452  0.050675  0.050675      6.000000
  0.110441  0.050776  0.050776      6.000000
  0.130430  0.050876  0.050876      6.000000
 -0.129425  0.049570  0.049570      6.000000
 -0.109436  0.049671  0.049671      6.000000
 -0.089447  0.049771  0.049771      6.000000
 -0.069459  0.049872  0.049872      6.000000
 -0.049470  0.049972  0.049972      6.000000
  0.070564  0.070564  0.050675      6.000000
  0.090552  0.070664  0.050776     12.000000
  0.110541  0.070764  0.050876     12.000000
  0.130530  0.070865  0.050977     12.000000
 -0.129325  0.069559  0.049671     12.000000
 -0.109336  0.069660  0.049771     12.000000
 -0.089347  0.069760  0.049872     12.000000
 -0.069358  0.069860  0.049972     12.000000
 -0.049369  0.069961  0.050073     12.000000
  0.090653  0.090653  0.050876      6.000000
  0.110642  0.090753  0.050977     12.000000
  0.130630  0.090854  0.051077     12.000000
 -0.129224  0.089548  0.049771     12.000000
 -0.109235  0.089648  0.049872     12.000000
 -0.089247  0.089749  0.049972     12.000000
 -0.069258  0.089849  0.050073     12.000000
 -0.049269  0.089950  0.050173     12.000000
  0.110742  0.110742  0.051077      6.000000
  0.130731  0.110843  0.051177     12.000000
 -0.129124  0.109537  0.049872     12.000000
 -0.109135  0.109637  0.049972     12.000000
 -0.089146  0.109738  0.050073     12.000000
 -0.069157  0.109838  0.050173     12.000000
 -0.049168  0.109939  0.050273     12.000000
  0.130831  0.130831  0.051278      6.000000
 -0.129023  0.129526  0.049972     12.000000
 -0.109035  0.129626  0.050073     12.000000
 -0.089046  0.129726  0.050173     12.000000
 -0.069057  0.129827  0.050273     12.000000
 -0.049068  0.129927  0.050374     12.000000
 -0.130329 -0.130329  0.048666      6.000000
 -0.110340 -0.130229  0.048767     12.000000
 -0.090351 -0.130128  0.048867     12.000000
 -0.070363 -0.130028  0.048968     12.000000
 -0.110240 -0.110240  0.048867      6.000000
 -0.090251 -0.110139  0.048968     12.000000
 -0.070262 -0.110039  0.049068     12.000000
 -0.090151 -0.090151  0.049068      6.000000
 -0.070162 -0.090050  0.049168     12.000000
 -0.070061 -0.070061  0.049269      6.000000
  0.070664  0.070664  0.070664      2.000000
  0.090653  0.070764  0.070764      6.000000
  0.110642  0.070865  0.070865      6.000000
  0.130630  0.070965  0.070965      6.000000
 -0.129224  0.069660  0.069660      6.000000
 -0.109235  0.069760  0.069760      6.000000
 -0.089247  0.069860  0.069860      6.000000
 -0.069258  0.069961  0.069961      6.000000
  0.090753  0.090753  0.070865      6.000000
  0.110742  0.090854  0.070965     12.000000
  0.130731  0.090954  0.071066     12.000000
 -0.129124  0.089648  0.069760     12.000000
 -0.109135  0.089749  0.069860     12.000000
 -0.089146  0.089849  0.069961     12.000000
 -0.069157  0.089950  0.070061     12.000000
  0.110843  0.110843  0.071066      6.000000
  0.130831  0.110943  0.071166     12.000000
 -0.129023  0.109637  0.069860     12.000000
 -0.109035  0.109738  0.069961     12.000000
 -0.089046  0.109838  0.070061     12.000000
 -0.069057  0.109939  0.070162     12.000000
  0.130932  0.130932  0.071267      6.000000
 -0.128923  0.129626  0.069961     12.000000
 -0.108934  0.129726  0.070061     12.000000
 -0.088945  0.129827  0.070162     12.000000
 -0.068956  0.129927  0.070262     12.000000
 -0.130229 -0.130229  0.068655      6.000000
 -0.110240 -0.130128  0.068756     12.000000
 -0.090251 -0.130028  0.068856     12.000000
 -0.110139 -0.110139  0.068856      6.000000
 -0.090151 -0.110039  0.068956     12.000000
 -0.090050 -0.090050  0.069057      6.000000
  0.090854  0.090854  0.090854      2.000000
  0.110843  0.090954  0.090954      6.000000
  0.130831  0.091055  0.091055      6.000000
 -0.129023  0.089749  0.089749      6.000000
 -0.109035  0.089849  0.089849      6.000000
 -0.089046  0.089950  0.089950      6.000000
  0.110943  0.110943  0.091055      6.000000
  0.130932  0.111043  0.091155     12.000000
 -0.128923  0.109738  0.089849     12.000000
 -0.108934  0.109838  0.089950     12.000000
 -0.088945  0.109939  0.090050     12.000000
  0.131032  0.131032  0.091256      6.000000
 -0.128822  0.129726  0.089950     12.000000
 -0.108834  0.129827  0.090050     12.000000
 -0.088845  0.129927  0.090151     12.000000
 -0.130128 -0.130128  0.088644      6.000000
 -0.110139 -0.130028  0.088744     12.000000
 -0.110039 -0.110039  0.088845      6.000000
  0.111043  0.111043  0.111043      2.000000
  0.131032  0.111144  0.111144      6.000000
 -0.128822  0.109838  0.109838      6.000000
 -0.108834  0.109939  0.109939      6.000000
  0.131133  0.131133  0.111244      6.000000
 -0.128722  0.129827  0.109939     12.000000
 -0.108733  0.129927  0.110039     12.000000
 -0.130028 -0.130028  0.108633      6.000000
  0.131233  0.131233  0.131233      2.000000
 -0.128622  0.129927  0.129927      6.000000
 


--------------------------------------------------------------------------------------------------------




 Dimension of arrays:
   k-points           NKPTS =    280   k-points in BZ     NKDIM =    280   number of bands    NBANDS=     24
   number of dos      NEDOS =    301   number of ions     NIONS =      8
   non local maximal  LDIM  =      4   non local SUM 2l+1 LMDIM =      8
   total plane-waves  NPLWV =  46656
   max r-space proj   IRMAX =      1   max aug-charges    IRDMAX=  16274
   dimension x,y,z NGX =    36 NGY =   36 NGZ =   36
   dimension x,y,z NGXF=    48 NGYF=   48 NGZF=   48
   support grid    NGXF=    96 NGYF=   96 NGZF=   96
   ions per type =               8
   NGX,Y,Z   is equivalent  to a cutoff of  16.75, 16.75, 16.75 a.u.
   NGXF,Y,Z  is equivalent  to a cutoff of  22.33, 22.33, 22.33 a.u.

 SYSTEM =  unknown system                          
 POSCAR =  C8                                      

 Startparameter for this run:
   NWRITE =      2    write-flag & timer
   PREC   = high      normal or accurate (medium, high low for compatibility)
   ISTART =      0    job   : 0-new  1-cont  2-samecut
   ICHARG =      2    charge: 1-file 2-atom 10-const
   ISPIN  =      1    spin polarized calculation?
   LNONCOLLINEAR =      F non collinear calculations
   LSORBIT =      F    spin-orbit coupling
   INIWAV =      1    electr: 0-lowe 1-rand  2-diag
   LASPH  =      F    aspherical Exc in radial PAW
   METAGGA=      F    non-selfconsistent MetaGGA calc.

 Electronic Relaxation 1
   ENCUT  =  875.0 eV  64.31 Ry    8.02 a.u.   8.62  8.62  8.62*2*pi/ulx,y,z
   ENINI  =  875.0     initial cutoff
   ENAUG  =  946.8 eV  augmentation charge cutoff
   NELM   =     40;   NELMIN=  4; NELMDL= -5     # of ELM steps 
   EDIFF  = 0.1E-07   stopping-criterion for ELM
   LREAL  =      F    real-space projection
   NLSPLINE    = F    spline interpolate recip. space projectors
   LCOMPAT=      F    compatible to vasp.4.4
   GGA_COMPAT  = T    GGA compatible to vasp.4.4-vasp.4.6
   LMAXPAW     = -100 max onsite density
   LMAXMIX     =    2 max onsite mixed and CHGCAR
   VOSKOWN=      0    Vosko Wilk Nusair interpolation
   ROPT   =    0.00000
 Ionic relaxation
   EDIFFG = -.1E-01   stopping-criterion for IOM
   NSW    =    100    number of steps for IOM
   NBLOCK =      1;   KBLOCK =    100    inner block; outer block 
   IBRION =      2    ionic relax: 0-MD 1-quasi-New 2-CG
   NFREE  =      1    steps in history (QN), initial steepest desc. (CG)
   ISIF   =      2    stress and relaxation
   IWAVPR =     11    prediction:  0-non 1-charg 2-wave 3-comb
   ISYM   =      2    0-nonsym 1-usesym 2-fastsym
   LCORR  =      T    Harris-Foulkes like correction to forces

   POTIM  = 0.5000    time-step for ionic-motion
   TEIN   =    0.0    initial temperature
   TEBEG  =    0.0;   TEEND  =   0.0 temperature during run
   SMASS  =  -3.00    Nose mass-parameter (am)
   estimated Nose-frequenzy (Omega)   =  0.10E-29 period in steps =****** mass=  -0.292E-27a.u.
   SCALEE = 1.0000    scale energy and forces
   NPACO  =    256;   APACO  = 16.0  distance and # of slots for P.C.
   PSTRESS=    0.0 pullay stress

  Mass of Ions in am
   POMASS =  12.01
  Ionic Valenz
   ZVAL   =   4.00
  Atomic Wigner-Seitz radii
   RWIGS  =  -1.00
  virtual crystal weights 
   VCA    =   1.00
   NELECT =      32.0000    total number of electrons
   NUPDOWN=      -1.0000    fix difference up-down

 DOS related values:
   EMIN   =  10.00;   EMAX   =-10.00  energy-range for DOS
   EFERMI =   0.00
   ISMEAR =     0;   SIGMA  =   0.05  broadening in eV -4-tet -1-fermi 0-gaus

 Electronic relaxation 2 (details)
   IALGO  =     38    algorithm
   LDIAG  =      T    sub-space diagonalisation (order eigenvalues)
   LSUBROT=      F    optimize rotation matrix (better conditioning)
   TURBO    =      0    0=normal 1=particle mesh
   IRESTART =      0    0=no restart 2=restart with 2 vectors
   NREBOOT  =      0    no. of reboots
   NMIN     =      0    reboot dimension
   EREF     =   0.00    reference energy to select bands
   IMIX   =      4    mixing-type and parameters
     AMIX     =   0.40;   BMIX     =  1.00
     AMIX_MAG =   1.60;   BMIX_MAG =  1.00
     AMIN     =   0.10
     WC   =   100.;   INIMIX=   1;  MIXPRE=   1;  MAXMIX= -45

 Intra band minimization:
   WEIMIN = 0.0010     energy-eigenvalue tresh-hold
   EBREAK =  0.10E-09  absolut break condition
   DEPER  =   0.30     relativ break condition  

   TIME   =   0.40     timestep for ELM

  volume/ion in A,a.u.               =       5.70        38.49
  Fermi-wavevector in a.u.,A,eV,Ry     =   1.454440  2.748493 28.781708  2.115396
  Thomas-Fermi vector in A             =   2.571590
 
 Write flags
   LWAVE        =      F    write WAVECAR
   LDOWNSAMPLE  =      F    k-point downsampling of WAVECAR
   LCHARG       =      F    write CHGCAR
   LVTOT        =      F    write LOCPOT, total local potential
   LVHAR        =      F    write LOCPOT, Hartree potential only
   LELF         =      F    write electronic localiz. function (ELF)
   LORBIT       =      0    0 simple, 1 ext, 2 COOP (PROOUT), +10 PAW based schemes


 Dipole corrections
   LMONO  =      F    monopole corrections only (constant potential shift)
   LDIPOL =      F    correct potential (dipole corrections)
   IDIPOL =      0    1-x, 2-y, 3-z, 4-all directions 
   EPSILON=  1.0000000 bulk dielectric constant

 Exchange correlation treatment:
   GGA     =    --    GGA type
   LEXCH   =     8    internal setting for exchange type
   VOSKOWN=      0    Vosko Wilk Nusair interpolation
   LHFCALC =     F    Hartree Fock is set to
   LHFONE  =     F    Hartree Fock one center treatment
   AEXX    =    0.0000 exact exchange contribution

 Linear response parameters
   LEPSILON=     F    determine dielectric tensor
   LRPA    =     F    only Hartree local field effects (RPA)
   LNABLA  =     F    use nabla operator in PAW spheres
   LVEL    =     F    velocity operator in full k-point grid
   LINTERFAST=   F  fast interpolation
   KINTER  =     0    interpolate to denser k-point grid
   CSHIFT  =0.1000    complex shift for real part using Kramers Kronig
   OMEGAMAX=  -1.0    maximum frequency
   DEG_THRESHOLD= 0.2000000E-02 threshold for treating states as degnerate
   RTIME   =   -0.100 relaxation time in fs
  (WPLASMAI=    0.000 imaginary part of plasma frequency in eV, 0.658/RTIME)
   DFIELD  = 0.0000000 0.0000000 0.0000000 field for delta impulse in time
 
 Orbital magnetization related:
   ORBITALMAG=     F  switch on orbital magnetization
   LCHIMAG   =     F  perturbation theory with respect to B field
   DQ        =  0.001000  dq finite difference perturbation B field
   LLRAUG    =     F  two centre corrections for induced B field



--------------------------------------------------------------------------------------------------------


 conjugate gradient relaxation of ions
 charge density and potential will be updated during run
 non-spin polarized calculation
 Variant of blocked Davidson
 Davidson routine will perform the subspace rotation
 perform sub-space diagonalisation
    after iterative eigenvector-optimisation
 modified Broyden-mixing scheme, WC =      100.0
 initial mixing is a Kerker type mixing with AMIX =  0.4000 and BMIX =      1.0000
 Hartree-type preconditioning will be used
 using additional bands            8
 reciprocal scheme for non local part
 use partial core corrections
 calculate Harris-corrections to forces 
   (improved forces if not selfconsistent)
 use gradient corrections 
 use of overlap-Matrix (Vanderbilt PP)
 Gauss-broadening in eV      SIGMA  =   0.05


--------------------------------------------------------------------------------------------------------


  energy-cutoff  :      875.00
  volume of cell :       45.63
      direct lattice vectors                 reciprocal lattice vectors
     3.573605071 -0.017868025 -0.017868025     0.279843529  0.001406249  0.001406249
    -0.017868025  3.573605071 -0.017868025     0.001406249  0.279843529  0.001406249
    -0.017868025 -0.017868025  3.573605071     0.001406249  0.001406249  0.279843529

  length of vectors
     3.573694410  3.573694410  3.573694410     0.279850595  0.279850595  0.279850595


 
 k-points in units of 2pi/SCALE and weight: K-Mesh Generated with KP-Resolved Value 
   0.01009486  0.01009486  0.01009486       0.001
   0.03008368  0.01019530  0.01019530       0.002
   0.05007251  0.01029575  0.01029575       0.002
   0.07006133  0.01039620  0.01039620       0.002
   0.09005015  0.01049664  0.01049664       0.002
   0.11003898  0.01059709  0.01059709       0.002
   0.13002780  0.01069754  0.01069754       0.002
  -0.12982691  0.00939173  0.00939173       0.002
  -0.10983808  0.00949218  0.00949218       0.002
  -0.08984926  0.00959263  0.00959263       0.002
  -0.06986044  0.00969307  0.00969307       0.002
  -0.04987161  0.00979352  0.00979352       0.002
  -0.02988279  0.00989397  0.00989397       0.002
  -0.00989397  0.00999441  0.00999441       0.002
   0.03018413  0.03018413  0.01029575       0.002
   0.05017295  0.03028457  0.01039620       0.004
   0.07016177  0.03038502  0.01049664       0.004
   0.09015060  0.03048547  0.01059709       0.004
   0.11013942  0.03058591  0.01069754       0.004
   0.13012825  0.03068636  0.01079798       0.004
  -0.12972646  0.02938056  0.00949218       0.004
  -0.10973764  0.02948100  0.00959263       0.004
  -0.08974881  0.02958145  0.00969307       0.004
  -0.06975999  0.02968190  0.00979352       0.004
  -0.04977117  0.02978234  0.00989397       0.004
  -0.02978234  0.02988279  0.00999441       0.004
  -0.00979352  0.02998324  0.01009486       0.004
   0.05027340  0.05027340  0.01049664       0.002
   0.07026222  0.05037384  0.01059709       0.004
   0.09025104  0.05047429  0.01069754       0.004
   0.11023987  0.05057474  0.01079798       0.004
   0.13022869  0.05067518  0.01089843       0.004
  -0.12962601  0.04936938  0.00959263       0.004
  -0.10963719  0.04946983  0.00969307       0.004
  -0.08964837  0.04957027  0.00979352       0.004
  -0.06965954  0.04967072  0.00989397       0.004
  -0.04967072  0.04977117  0.00999441       0.004
  -0.02968190  0.04987161  0.01009486       0.004
  -0.00969307  0.04997206  0.01019530       0.004
   0.07036267  0.07036267  0.01069754       0.002
   0.09035149  0.07046311  0.01079798       0.004
   0.11034031  0.07056356  0.01089843       0.004
   0.13032914  0.07066401  0.01099888       0.004
  -0.12952557  0.06935820  0.00969307       0.004
  -0.10953674  0.06945865  0.00979352       0.004
  -0.08954792  0.06955910  0.00989397       0.004
  -0.06955910  0.06965954  0.00999441       0.004
  -0.04957027  0.06975999  0.01009486       0.004
  -0.02958145  0.06986044  0.01019530       0.004
  -0.00959263  0.06996088  0.01029575       0.004
   0.09045194  0.09045194  0.01089843       0.002
   0.11044076  0.09055238  0.01099888       0.004
   0.13042958  0.09065283  0.01109932       0.004
  -0.12942512  0.08934703  0.00979352       0.004
  -0.10943630  0.08944747  0.00989397       0.004
  -0.08944747  0.08954792  0.00999441       0.004
  -0.06945865  0.08964837  0.01009486       0.004
  -0.04946983  0.08974881  0.01019530       0.004
  -0.02948100  0.08984926  0.01029575       0.004
  -0.00949218  0.08994971  0.01039620       0.004
   0.11054121  0.11054121  0.01109932       0.002
   0.13053003  0.11064165  0.01119977       0.004
  -0.12932467  0.10933585  0.00989397       0.004
  -0.10933585  0.10943630  0.00999441       0.004
  -0.08934703  0.10953674  0.01009486       0.004
  -0.06935820  0.10963719  0.01019530       0.004
  -0.04936938  0.10973764  0.01029575       0.004
  -0.02938056  0.10983808  0.01039620       0.004
  -0.00939173  0.10993853  0.01049664       0.004
   0.13063048  0.13063048  0.01130021       0.002
  -0.12922423  0.12932467  0.00999441       0.004
  -0.10923540  0.12942512  0.01009486       0.004
  -0.08924658  0.12952557  0.01019530       0.004
  -0.06925776  0.12962601  0.01029575       0.004
  -0.04926893  0.12972646  0.01039620       0.004
  -0.02928011  0.12982691  0.01049664       0.004
  -0.00929129  0.12992735  0.01059709       0.004
  -0.13053003 -0.13053003  0.00868861       0.002
  -0.11054121 -0.13042958  0.00878906       0.004
  -0.09055238 -0.13032914  0.00888950       0.004
  -0.07056356 -0.13022869  0.00898995       0.004
  -0.05057474 -0.13012825  0.00909039       0.004
  -0.03058591 -0.13002780  0.00919084       0.004
  -0.11044076 -0.11044076  0.00888950       0.002
  -0.09045194 -0.11034031  0.00898995       0.004
  -0.07046311 -0.11023987  0.00909039       0.004
  -0.05047429 -0.11013942  0.00919084       0.004
  -0.03048547 -0.11003898  0.00929129       0.004
  -0.09035149 -0.09035149  0.00909039       0.002
  -0.07036267 -0.09025104  0.00919084       0.004
  -0.05037384 -0.09015060  0.00929129       0.004
  -0.03038502 -0.09005015  0.00939173       0.004
  -0.07026222 -0.07026222  0.00929129       0.002
  -0.05027340 -0.07016177  0.00939173       0.004
  -0.03028457 -0.07006133  0.00949218       0.004
  -0.05017295 -0.05017295  0.00949218       0.002
  -0.03018413 -0.05007251  0.00959263       0.004
  -0.03008368 -0.03008368  0.00969307       0.002
   0.03028457  0.03028457  0.03028457       0.001
   0.05027340  0.03038502  0.03038502       0.002
   0.07026222  0.03048547  0.03048547       0.002
   0.09025104  0.03058591  0.03058591       0.002
   0.11023987  0.03068636  0.03068636       0.002
   0.13022869  0.03078681  0.03078681       0.002
  -0.12962601  0.02948100  0.02948100       0.002
  -0.10963719  0.02958145  0.02958145       0.002
  -0.08964837  0.02968190  0.02968190       0.002
  -0.06965954  0.02978234  0.02978234       0.002
  -0.04967072  0.02988279  0.02988279       0.002
  -0.02968190  0.02998324  0.02998324       0.002
   0.05037384  0.05037384  0.03048547       0.002
   0.07036267  0.05047429  0.03058591       0.004
   0.09035149  0.05057474  0.03068636       0.004
   0.11034031  0.05067518  0.03078681       0.004
   0.13032914  0.05077563  0.03088725       0.004
  -0.12952557  0.04946983  0.02958145       0.004
  -0.10953674  0.04957027  0.02968190       0.004
  -0.08954792  0.04967072  0.02978234       0.004
  -0.06955910  0.04977117  0.02988279       0.004
  -0.04957027  0.04987161  0.02998324       0.004
  -0.02958145  0.04997206  0.03008368       0.004
   0.07046311  0.07046311  0.03068636       0.002
   0.09045194  0.07056356  0.03078681       0.004
   0.11044076  0.07066401  0.03088725       0.004
   0.13042958  0.07076445  0.03098770       0.004
  -0.12942512  0.06945865  0.02968190       0.004
  -0.10943630  0.06955910  0.02978234       0.004
  -0.08944747  0.06965954  0.02988279       0.004
  -0.06945865  0.06975999  0.02998324       0.004
  -0.04946983  0.06986044  0.03008368       0.004
  -0.02948100  0.06996088  0.03018413       0.004
   0.09055238  0.09055238  0.03088725       0.002
   0.11054121  0.09065283  0.03098770       0.004
   0.13053003  0.09075328  0.03108815       0.004
  -0.12932467  0.08944747  0.02978234       0.004
  -0.10933585  0.08954792  0.02988279       0.004
  -0.08934703  0.08964837  0.02998324       0.004
  -0.06935820  0.08974881  0.03008368       0.004
  -0.04936938  0.08984926  0.03018413       0.004
  -0.02938056  0.08994971  0.03028457       0.004
   0.11064165  0.11064165  0.03108815       0.002
   0.13063048  0.11074210  0.03118859       0.004
  -0.12922423  0.10943630  0.02988279       0.004
  -0.10923540  0.10953674  0.02998324       0.004
  -0.08924658  0.10963719  0.03008368       0.004
  -0.06925776  0.10973764  0.03018413       0.004
  -0.04926893  0.10983808  0.03028457       0.004
  -0.02928011  0.10993853  0.03038502       0.004
   0.13073092  0.13073092  0.03128904       0.002
  -0.12912378  0.12942512  0.02998324       0.004
  -0.10913496  0.12952557  0.03008368       0.004
  -0.08914613  0.12962601  0.03018413       0.004
  -0.06915731  0.12972646  0.03028457       0.004
  -0.04916849  0.12982691  0.03038502       0.004
  -0.02917966  0.12992735  0.03048547       0.004
  -0.13042958 -0.13042958  0.02867743       0.002
  -0.11044076 -0.13032914  0.02877788       0.004
  -0.09045194 -0.13022869  0.02887833       0.004
  -0.07046311 -0.13012825  0.02897877       0.004
  -0.05047429 -0.13002780  0.02907922       0.004
  -0.11034031 -0.11034031  0.02887833       0.002
  -0.09035149 -0.11023987  0.02897877       0.004
  -0.07036267 -0.11013942  0.02907922       0.004
  -0.05037384 -0.11003898  0.02917966       0.004
  -0.09025104 -0.09025104  0.02907922       0.002
  -0.07026222 -0.09015060  0.02917966       0.004
  -0.05027340 -0.09005015  0.02928011       0.004
  -0.07016177 -0.07016177  0.02928011       0.002
  -0.05017295 -0.07006133  0.02938056       0.004
  -0.05007251 -0.05007251  0.02948100       0.002
   0.05047429  0.05047429  0.05047429       0.001
   0.07046311  0.05057474  0.05057474       0.002
   0.09045194  0.05067518  0.05067518       0.002
   0.11044076  0.05077563  0.05077563       0.002
   0.13042958  0.05087608  0.05087608       0.002
  -0.12942512  0.04957027  0.04957027       0.002
  -0.10943630  0.04967072  0.04967072       0.002
  -0.08944747  0.04977117  0.04977117       0.002
  -0.06945865  0.04987161  0.04987161       0.002
  -0.04946983  0.04997206  0.04997206       0.002
   0.07056356  0.07056356  0.05067518       0.002
   0.09055238  0.07066401  0.05077563       0.004
   0.11054121  0.07076445  0.05087608       0.004
   0.13053003  0.07086490  0.05097652       0.004
  -0.12932467  0.06955910  0.04967072       0.004
  -0.10933585  0.06965954  0.04977117       0.004
  -0.08934703  0.06975999  0.04987161       0.004
  -0.06935820  0.06986044  0.04997206       0.004
  -0.04936938  0.06996088  0.05007251       0.004
   0.09065283  0.09065283  0.05087608       0.002
   0.11064165  0.09075328  0.05097652       0.004
   0.13063048  0.09085372  0.05107697       0.004
  -0.12922423  0.08954792  0.04977117       0.004
  -0.10923540  0.08964837  0.04987161       0.004
  -0.08924658  0.08974881  0.04997206       0.004
  -0.06925776  0.08984926  0.05007251       0.004
  -0.04926893  0.08994971  0.05017295       0.004
   0.11074210  0.11074210  0.05107697       0.002
   0.13073092  0.11084255  0.05117741       0.004
  -0.12912378  0.10953674  0.04987161       0.004
  -0.10913496  0.10963719  0.04997206       0.004
  -0.08914613  0.10973764  0.05007251       0.004
  -0.06915731  0.10983808  0.05017295       0.004
  -0.04916849  0.10993853  0.05027340       0.004
   0.13083137  0.13083137  0.05127786       0.002
  -0.12902334  0.12952557  0.04997206       0.004
  -0.10903451  0.12962601  0.05007251       0.004
  -0.08904569  0.12972646  0.05017295       0.004
  -0.06905687  0.12982691  0.05027340       0.004
  -0.04906804  0.12992735  0.05037384       0.004
  -0.13032914 -0.13032914  0.04866626       0.002
  -0.11034031 -0.13022869  0.04876670       0.004
  -0.09035149 -0.13012825  0.04886715       0.004
  -0.07036267 -0.13002780  0.04896760       0.004
  -0.11023987 -0.11023987  0.04886715       0.002
  -0.09025104 -0.11013942  0.04896760       0.004
  -0.07026222 -0.11003898  0.04906804       0.004
  -0.09015060 -0.09015060  0.04906804       0.002
  -0.07016177 -0.09005015  0.04916849       0.004
  -0.07006133 -0.07006133  0.04926893       0.002
   0.07066401  0.07066401  0.07066401       0.001
   0.09065283  0.07076445  0.07076445       0.002
   0.11064165  0.07086490  0.07086490       0.002
   0.13063048  0.07096535  0.07096535       0.002
  -0.12922423  0.06965954  0.06965954       0.002
  -0.10923540  0.06975999  0.06975999       0.002
  -0.08924658  0.06986044  0.06986044       0.002
  -0.06925776  0.06996088  0.06996088       0.002
   0.09075328  0.09075328  0.07086490       0.002
   0.11074210  0.09085372  0.07096535       0.004
   0.13073092  0.09095417  0.07106579       0.004
  -0.12912378  0.08964837  0.06975999       0.004
  -0.10913496  0.08974881  0.06986044       0.004
  -0.08914613  0.08984926  0.06996088       0.004
  -0.06915731  0.08994971  0.07006133       0.004
   0.11084255  0.11084255  0.07106579       0.002
   0.13083137  0.11094299  0.07116624       0.004
  -0.12902334  0.10963719  0.06986044       0.004
  -0.10903451  0.10973764  0.06996088       0.004
  -0.08904569  0.10983808  0.07006133       0.004
  -0.06905687  0.10993853  0.07016177       0.004
   0.13093182  0.13093182  0.07126668       0.002
  -0.12892289  0.12962601  0.06996088       0.004
  -0.10893407  0.12972646  0.07006133       0.004
  -0.08894524  0.12982691  0.07016177       0.004
  -0.06895642  0.12992735  0.07026222       0.004
  -0.13022869 -0.13022869  0.06865508       0.002
  -0.11023987 -0.13012825  0.06875553       0.004
  -0.09025104 -0.13002780  0.06885597       0.004
  -0.11013942 -0.11013942  0.06885597       0.002
  -0.09015060 -0.11003898  0.06895642       0.004
  -0.09005015 -0.09005015  0.06905687       0.002
   0.09085372  0.09085372  0.09085372       0.001
   0.11084255  0.09095417  0.09095417       0.002
   0.13083137  0.09105462  0.09105462       0.002
  -0.12902334  0.08974881  0.08974881       0.002
  -0.10903451  0.08984926  0.08984926       0.002
  -0.08904569  0.08994971  0.08994971       0.002
   0.11094299  0.11094299  0.09105462       0.002
   0.13093182  0.11104344  0.09115506       0.004
  -0.12892289  0.10973764  0.08984926       0.004
  -0.10893407  0.10983808  0.08994971       0.004
  -0.08894524  0.10993853  0.09005015       0.004
   0.13103226  0.13103226  0.09125551       0.002
  -0.12882244  0.12972646  0.08994971       0.004
  -0.10883362  0.12982691  0.09005015       0.004
  -0.08884480  0.12992735  0.09015060       0.004
  -0.13012825 -0.13012825  0.08864390       0.002
  -0.11013942 -0.13002780  0.08874435       0.004
  -0.11003898 -0.11003898  0.08884480       0.002
   0.11104344  0.11104344  0.11104344       0.001
   0.13103226  0.11114389  0.11114389       0.002
  -0.12882244  0.10983808  0.10983808       0.002
  -0.10883362  0.10993853  0.10993853       0.002
   0.13113271  0.13113271  0.11124433       0.002
  -0.12872200  0.12982691  0.10993853       0.004
  -0.10873317  0.12992735  0.11003898       0.004
  -0.13002780 -0.13002780  0.10863273       0.002
   0.13123316  0.13123316  0.13123316       0.001
  -0.12862155  0.12992735  0.12992735       0.002
 
 k-points in reciprocal lattice and weights: K-Mesh Generated with KP-Resolved Value 
   0.03571429  0.03571429  0.03571429       0.001
   0.10714286  0.03571429  0.03571429       0.002
   0.17857143  0.03571429  0.03571429       0.002
   0.25000000  0.03571429  0.03571429       0.002
   0.32142857  0.03571429  0.03571429       0.002
   0.39285714  0.03571429  0.03571429       0.002
   0.46428571  0.03571429  0.03571429       0.002
  -0.46428571  0.03571429  0.03571429       0.002
  -0.39285714  0.03571429  0.03571429       0.002
  -0.32142857  0.03571429  0.03571429       0.002
  -0.25000000  0.03571429  0.03571429       0.002
  -0.17857143  0.03571429  0.03571429       0.002
  -0.10714286  0.03571429  0.03571429       0.002
  -0.03571429  0.03571429  0.03571429       0.002
   0.10714286  0.10714286  0.03571429       0.002
   0.17857143  0.10714286  0.03571429       0.004
   0.25000000  0.10714286  0.03571429       0.004
   0.32142857  0.10714286  0.03571429       0.004
   0.39285714  0.10714286  0.03571429       0.004
   0.46428571  0.10714286  0.03571429       0.004
  -0.46428571  0.10714286  0.03571429       0.004
  -0.39285714  0.10714286  0.03571429       0.004
  -0.32142857  0.10714286  0.03571429       0.004
  -0.25000000  0.10714286  0.03571429       0.004
  -0.17857143  0.10714286  0.03571429       0.004
  -0.10714286  0.10714286  0.03571429       0.004
  -0.03571429  0.10714286  0.03571429       0.004
   0.17857143  0.17857143  0.03571429       0.002
   0.25000000  0.17857143  0.03571429       0.004
   0.32142857  0.17857143  0.03571429       0.004
   0.39285714  0.17857143  0.03571429       0.004
   0.46428571  0.17857143  0.03571429       0.004
  -0.46428571  0.17857143  0.03571429       0.004
  -0.39285714  0.17857143  0.03571429       0.004
  -0.32142857  0.17857143  0.03571429       0.004
  -0.25000000  0.17857143  0.03571429       0.004
  -0.17857143  0.17857143  0.03571429       0.004
  -0.10714286  0.17857143  0.03571429       0.004
  -0.03571429  0.17857143  0.03571429       0.004
   0.25000000  0.25000000  0.03571429       0.002
   0.32142857  0.25000000  0.03571429       0.004
   0.39285714  0.25000000  0.03571429       0.004
   0.46428571  0.25000000  0.03571429       0.004
  -0.46428571  0.25000000  0.03571429       0.004
  -0.39285714  0.25000000  0.03571429       0.004
  -0.32142857  0.25000000  0.03571429       0.004
  -0.25000000  0.25000000  0.03571429       0.004
  -0.17857143  0.25000000  0.03571429       0.004
  -0.10714286  0.25000000  0.03571429       0.004
  -0.03571429  0.25000000  0.03571429       0.004
   0.32142857  0.32142857  0.03571429       0.002
   0.39285714  0.32142857  0.03571429       0.004
   0.46428571  0.32142857  0.03571429       0.004
  -0.46428571  0.32142857  0.03571429       0.004
  -0.39285714  0.32142857  0.03571429       0.004
  -0.32142857  0.32142857  0.03571429       0.004
  -0.25000000  0.32142857  0.03571429       0.004
  -0.17857143  0.32142857  0.03571429       0.004
  -0.10714286  0.32142857  0.03571429       0.004
  -0.03571429  0.32142857  0.03571429       0.004
   0.39285714  0.39285714  0.03571429       0.002
   0.46428571  0.39285714  0.03571429       0.004
  -0.46428571  0.39285714  0.03571429       0.004
  -0.39285714  0.39285714  0.03571429       0.004
  -0.32142857  0.39285714  0.03571429       0.004
  -0.25000000  0.39285714  0.03571429       0.004
  -0.17857143  0.39285714  0.03571429       0.004
  -0.10714286  0.39285714  0.03571429       0.004
  -0.03571429  0.39285714  0.03571429       0.004
   0.46428571  0.46428571  0.03571429       0.002
  -0.46428571  0.46428571  0.03571429       0.004
  -0.39285714  0.46428571  0.03571429       0.004
  -0.32142857  0.46428571  0.03571429       0.004
  -0.25000000  0.46428571  0.03571429       0.004
  -0.17857143  0.46428571  0.03571429       0.004
  -0.10714286  0.46428571  0.03571429       0.004
  -0.03571429  0.46428571  0.03571429       0.004
  -0.46428571 -0.46428571  0.03571429       0.002
  -0.39285714 -0.46428571  0.03571429       0.004
  -0.32142857 -0.46428571  0.03571429       0.004
  -0.25000000 -0.46428571  0.03571429       0.004
  -0.17857143 -0.46428571  0.03571429       0.004
  -0.10714286 -0.46428571  0.03571429       0.004
  -0.39285714 -0.39285714  0.03571429       0.002
  -0.32142857 -0.39285714  0.03571429       0.004
  -0.25000000 -0.39285714  0.03571429       0.004
  -0.17857143 -0.39285714  0.03571429       0.004
  -0.10714286 -0.39285714  0.03571429       0.004
  -0.32142857 -0.32142857  0.03571429       0.002
  -0.25000000 -0.32142857  0.03571429       0.004
  -0.17857143 -0.32142857  0.03571429       0.004
  -0.10714286 -0.32142857  0.03571429       0.004
  -0.25000000 -0.25000000  0.03571429       0.002
  -0.17857143 -0.25000000  0.03571429       0.004
  -0.10714286 -0.25000000  0.03571429       0.004
  -0.17857143 -0.17857143  0.03571429       0.002
  -0.10714286 -0.17857143  0.03571429       0.004
  -0.10714286 -0.10714286  0.03571429       0.002
   0.10714286  0.10714286  0.10714286       0.001
   0.17857143  0.10714286  0.10714286       0.002
   0.25000000  0.10714286  0.10714286       0.002
   0.32142857  0.10714286  0.10714286       0.002
   0.39285714  0.10714286  0.10714286       0.002
   0.46428571  0.10714286  0.10714286       0.002
  -0.46428571  0.10714286  0.10714286       0.002
  -0.39285714  0.10714286  0.10714286       0.002
  -0.32142857  0.10714286  0.10714286       0.002
  -0.25000000  0.10714286  0.10714286       0.002
  -0.17857143  0.10714286  0.10714286       0.002
  -0.10714286  0.10714286  0.10714286       0.002
   0.17857143  0.17857143  0.10714286       0.002
   0.25000000  0.17857143  0.10714286       0.004
   0.32142857  0.17857143  0.10714286       0.004
   0.39285714  0.17857143  0.10714286       0.004
   0.46428571  0.17857143  0.10714286       0.004
  -0.46428571  0.17857143  0.10714286       0.004
  -0.39285714  0.17857143  0.10714286       0.004
  -0.32142857  0.17857143  0.10714286       0.004
  -0.25000000  0.17857143  0.10714286       0.004
  -0.17857143  0.17857143  0.10714286       0.004
  -0.10714286  0.17857143  0.10714286       0.004
   0.25000000  0.25000000  0.10714286       0.002
   0.32142857  0.25000000  0.10714286       0.004
   0.39285714  0.25000000  0.10714286       0.004
   0.46428571  0.25000000  0.10714286       0.004
  -0.46428571  0.25000000  0.10714286       0.004
  -0.39285714  0.25000000  0.10714286       0.004
  -0.32142857  0.25000000  0.10714286       0.004
  -0.25000000  0.25000000  0.10714286       0.004
  -0.17857143  0.25000000  0.10714286       0.004
  -0.10714286  0.25000000  0.10714286       0.004
   0.32142857  0.32142857  0.10714286       0.002
   0.39285714  0.32142857  0.10714286       0.004
   0.46428571  0.32142857  0.10714286       0.004
  -0.46428571  0.32142857  0.10714286       0.004
  -0.39285714  0.32142857  0.10714286       0.004
  -0.32142857  0.32142857  0.10714286       0.004
  -0.25000000  0.32142857  0.10714286       0.004
  -0.17857143  0.32142857  0.10714286       0.004
  -0.10714286  0.32142857  0.10714286       0.004
   0.39285714  0.39285714  0.10714286       0.002
   0.46428571  0.39285714  0.10714286       0.004
  -0.46428571  0.39285714  0.10714286       0.004
  -0.39285714  0.39285714  0.10714286       0.004
  -0.32142857  0.39285714  0.10714286       0.004
  -0.25000000  0.39285714  0.10714286       0.004
  -0.17857143  0.39285714  0.10714286       0.004
  -0.10714286  0.39285714  0.10714286       0.004
   0.46428571  0.46428571  0.10714286       0.002
  -0.46428571  0.46428571  0.10714286       0.004
  -0.39285714  0.46428571  0.10714286       0.004
  -0.32142857  0.46428571  0.10714286       0.004
  -0.25000000  0.46428571  0.10714286       0.004
  -0.17857143  0.46428571  0.10714286       0.004
  -0.10714286  0.46428571  0.10714286       0.004
  -0.46428571 -0.46428571  0.10714286       0.002
  -0.39285714 -0.46428571  0.10714286       0.004
  -0.32142857 -0.46428571  0.10714286       0.004
  -0.25000000 -0.46428571  0.10714286       0.004
  -0.17857143 -0.46428571  0.10714286       0.004
  -0.39285714 -0.39285714  0.10714286       0.002
  -0.32142857 -0.39285714  0.10714286       0.004
  -0.25000000 -0.39285714  0.10714286       0.004
  -0.17857143 -0.39285714  0.10714286       0.004
  -0.32142857 -0.32142857  0.10714286       0.002
  -0.25000000 -0.32142857  0.10714286       0.004
  -0.17857143 -0.32142857  0.10714286       0.004
  -0.25000000 -0.25000000  0.10714286       0.002
  -0.17857143 -0.25000000  0.10714286       0.004
  -0.17857143 -0.17857143  0.10714286       0.002
   0.17857143  0.17857143  0.17857143       0.001
   0.25000000  0.17857143  0.17857143       0.002
   0.32142857  0.17857143  0.17857143       0.002
   0.39285714  0.17857143  0.17857143       0.002
   0.46428571  0.17857143  0.17857143       0.002
  -0.46428571  0.17857143  0.17857143       0.002
  -0.39285714  0.17857143  0.17857143       0.002
  -0.32142857  0.17857143  0.17857143       0.002
  -0.25000000  0.17857143  0.17857143       0.002
  -0.17857143  0.17857143  0.17857143       0.002
   0.25000000  0.25000000  0.17857143       0.002
   0.32142857  0.25000000  0.17857143       0.004
   0.39285714  0.25000000  0.17857143       0.004
   0.46428571  0.25000000  0.17857143       0.004
  -0.46428571  0.25000000  0.17857143       0.004
  -0.39285714  0.25000000  0.17857143       0.004
  -0.32142857  0.25000000  0.17857143       0.004
  -0.25000000  0.25000000  0.17857143       0.004
  -0.17857143  0.25000000  0.17857143       0.004
   0.32142857  0.32142857  0.17857143       0.002
   0.39285714  0.32142857  0.17857143       0.004
   0.46428571  0.32142857  0.17857143       0.004
  -0.46428571  0.32142857  0.17857143       0.004
  -0.39285714  0.32142857  0.17857143       0.004
  -0.32142857  0.32142857  0.17857143       0.004
  -0.25000000  0.32142857  0.17857143       0.004
  -0.17857143  0.32142857  0.17857143       0.004
   0.39285714  0.39285714  0.17857143       0.002
   0.46428571  0.39285714  0.17857143       0.004
  -0.46428571  0.39285714  0.17857143       0.004
  -0.39285714  0.39285714  0.17857143       0.004
  -0.32142857  0.39285714  0.17857143       0.004
  -0.25000000  0.39285714  0.17857143       0.004
  -0.17857143  0.39285714  0.17857143       0.004
   0.46428571  0.46428571  0.17857143       0.002
  -0.46428571  0.46428571  0.17857143       0.004
  -0.39285714  0.46428571  0.17857143       0.004
  -0.32142857  0.46428571  0.17857143       0.004
  -0.25000000  0.46428571  0.17857143       0.004
  -0.17857143  0.46428571  0.17857143       0.004
  -0.46428571 -0.46428571  0.17857143       0.002
  -0.39285714 -0.46428571  0.17857143       0.004
  -0.32142857 -0.46428571  0.17857143       0.004
  -0.25000000 -0.46428571  0.17857143       0.004
  -0.39285714 -0.39285714  0.17857143       0.002
  -0.32142857 -0.39285714  0.17857143       0.004
  -0.25000000 -0.39285714  0.17857143       0.004
  -0.32142857 -0.32142857  0.17857143       0.002
  -0.25000000 -0.32142857  0.17857143       0.004
  -0.25000000 -0.25000000  0.17857143       0.002
   0.25000000  0.25000000  0.25000000       0.001
   0.32142857  0.25000000  0.25000000       0.002
   0.39285714  0.25000000  0.25000000       0.002
   0.46428571  0.25000000  0.25000000       0.002
  -0.46428571  0.25000000  0.25000000       0.002
  -0.39285714  0.25000000  0.25000000       0.002
  -0.32142857  0.25000000  0.25000000       0.002
  -0.25000000  0.25000000  0.25000000       0.002
   0.32142857  0.32142857  0.25000000       0.002
   0.39285714  0.32142857  0.25000000       0.004
   0.46428571  0.32142857  0.25000000       0.004
  -0.46428571  0.32142857  0.25000000       0.004
  -0.39285714  0.32142857  0.25000000       0.004
  -0.32142857  0.32142857  0.25000000       0.004
  -0.25000000  0.32142857  0.25000000       0.004
   0.39285714  0.39285714  0.25000000       0.002
   0.46428571  0.39285714  0.25000000       0.004
  -0.46428571  0.39285714  0.25000000       0.004
  -0.39285714  0.39285714  0.25000000       0.004
  -0.32142857  0.39285714  0.25000000       0.004
  -0.25000000  0.39285714  0.25000000       0.004
   0.46428571  0.46428571  0.25000000       0.002
  -0.46428571  0.46428571  0.25000000       0.004
  -0.39285714  0.46428571  0.25000000       0.004
  -0.32142857  0.46428571  0.25000000       0.004
  -0.25000000  0.46428571  0.25000000       0.004
  -0.46428571 -0.46428571  0.25000000       0.002
  -0.39285714 -0.46428571  0.25000000       0.004
  -0.32142857 -0.46428571  0.25000000       0.004
  -0.39285714 -0.39285714  0.25000000       0.002
  -0.32142857 -0.39285714  0.25000000       0.004
  -0.32142857 -0.32142857  0.25000000       0.002
   0.32142857  0.32142857  0.32142857       0.001
   0.39285714  0.32142857  0.32142857       0.002
   0.46428571  0.32142857  0.32142857       0.002
  -0.46428571  0.32142857  0.32142857       0.002
  -0.39285714  0.32142857  0.32142857       0.002
  -0.32142857  0.32142857  0.32142857       0.002
   0.39285714  0.39285714  0.32142857       0.002
   0.46428571  0.39285714  0.32142857       0.004
  -0.46428571  0.39285714  0.32142857       0.004
  -0.39285714  0.39285714  0.32142857       0.004
  -0.32142857  0.39285714  0.32142857       0.004
   0.46428571  0.46428571  0.32142857       0.002
  -0.46428571  0.46428571  0.32142857       0.004
  -0.39285714  0.46428571  0.32142857       0.004
  -0.32142857  0.46428571  0.32142857       0.004
  -0.46428571 -0.46428571  0.32142857       0.002
  -0.39285714 -0.46428571  0.32142857       0.004
  -0.39285714 -0.39285714  0.32142857       0.002
   0.39285714  0.39285714  0.39285714       0.001
   0.46428571  0.39285714  0.39285714       0.002
  -0.46428571  0.39285714  0.39285714       0.002
  -0.39285714  0.39285714  0.39285714       0.002
   0.46428571  0.46428571  0.39285714       0.002
  -0.46428571  0.46428571  0.39285714       0.004
  -0.39285714  0.46428571  0.39285714       0.004
  -0.46428571 -0.46428571  0.39285714       0.002
   0.46428571  0.46428571  0.46428571       0.001
  -0.46428571  0.46428571  0.46428571       0.002
 
 position of ions in fractional coordinates (direct lattice) 
   0.25000000  0.25000000  0.25000000
   0.00000000  0.00000000  0.00000000
   0.25000000  0.75000000  0.75000000
   0.00000000  0.50000000  0.50000000
   0.75000000  0.25000000  0.75000000
   0.50000000  0.00000000  0.50000000
   0.75000000  0.75000000  0.25000000
   0.50000000  0.50000000  0.00000000
 
 position of ions in cartesian coordinates  (Angst):
   0.88446726  0.88446726  0.88446726
   0.00000000  0.00000000  0.00000000
   0.86659923  2.66233578  2.66233578
  -0.01786803  1.77786852  1.77786852
   2.66233578  0.86659923  2.66233578
   1.77786852 -0.01786803  1.77786852
   2.66233578  2.66233578  0.86659923
   1.77786852  1.77786852 -0.01786803
 


--------------------------------------------------------------------------------------------------------


 k-point  1 :   0.0357 0.0357 0.0357  plane waves:    2694
 k-point  2 :   0.1071 0.0357 0.0357  plane waves:    2690
 k-point  3 :   0.1786 0.0357 0.0357  plane waves:    2691
 k-point  4 :   0.2500 0.0357 0.0357  plane waves:    2688
 k-point  5 :   0.3214 0.0357 0.0357  plane waves:    2696
 k-point  6 :   0.3929 0.0357 0.0357  plane waves:    2690
 k-point  7 :   0.4643 0.0357 0.0357  plane waves:    2699
 k-point  8 :  -0.4643 0.0357 0.0357  plane waves:    2691
 k-point  9 :  -0.3929 0.0357 0.0357  plane waves:    2690
 k-point 10 :  -0.3214 0.0357 0.0357  plane waves:    2709
 k-point 11 :  -0.2500 0.0357 0.0357  plane waves:    2686
 k-point 12 :  -0.1786 0.0357 0.0357  plane waves:    2674
 k-point 13 :  -0.1071 0.0357 0.0357  plane waves:    2678
 k-point 14 :  -0.0357 0.0357 0.0357  plane waves:    2688
 k-point 15 :   0.1071 0.1071 0.0357  plane waves:    2691
 k-point 16 :   0.1786 0.1071 0.0357  plane waves:    2691
 k-point 17 :   0.2500 0.1071 0.0357  plane waves:    2692
 k-point 18 :   0.3214 0.1071 0.0357  plane waves:    2694
 k-point 19 :   0.3929 0.1071 0.0357  plane waves:    2687
 k-point 20 :   0.4643 0.1071 0.0357  plane waves:    2696
 k-point 21 :  -0.4643 0.1071 0.0357  plane waves:    2692
 k-point 22 :  -0.3929 0.1071 0.0357  plane waves:    2685
 k-point 23 :  -0.3214 0.1071 0.0357  plane waves:    2694
 k-point 24 :  -0.2500 0.1071 0.0357  plane waves:    2691
 k-point 25 :  -0.1786 0.1071 0.0357  plane waves:    2687
 k-point 26 :  -0.1071 0.1071 0.0357  plane waves:    2677
 k-point 27 :  -0.0357 0.1071 0.0357  plane waves:    2677
 k-point 28 :   0.1786 0.1786 0.0357  plane waves:    2687
 k-point 29 :   0.2500 0.1786 0.0357  plane waves:    2689
 k-point 30 :   0.3214 0.1786 0.0357  plane waves:    2693
 k-point 31 :   0.3929 0.1786 0.0357  plane waves:    2690
 k-point 32 :   0.4643 0.1786 0.0357  plane waves:    2693
 k-point 33 :  -0.4643 0.1786 0.0357  plane waves:    2689
 k-point 34 :  -0.3929 0.1786 0.0357  plane waves:    2685
 k-point 35 :  -0.3214 0.1786 0.0357  plane waves:    2686
 k-point 36 :  -0.2500 0.1786 0.0357  plane waves:    2685
 k-point 37 :  -0.1786 0.1786 0.0357  plane waves:    2687
 k-point 38 :  -0.1071 0.1786 0.0357  plane waves:    2684
 k-point 39 :  -0.0357 0.1786 0.0357  plane waves:    2687
 k-point 40 :   0.2500 0.2500 0.0357  plane waves:    2685
 k-point 41 :   0.3214 0.2500 0.0357  plane waves:    2682
 k-point 42 :   0.3929 0.2500 0.0357  plane waves:    2683
 k-point 43 :   0.4643 0.2500 0.0357  plane waves:    2687
 k-point 44 :  -0.4643 0.2500 0.0357  plane waves:    2687
 k-point 45 :  -0.3929 0.2500 0.0357  plane waves:    2684
 k-point 46 :  -0.3214 0.2500 0.0357  plane waves:    2683
 k-point 47 :  -0.2500 0.2500 0.0357  plane waves:    2686
 k-point 48 :  -0.1786 0.2500 0.0357  plane waves:    2687
 k-point 49 :  -0.1071 0.2500 0.0357  plane waves:    2691
 k-point 50 :  -0.0357 0.2500 0.0357  plane waves:    2696
 k-point 51 :   0.3214 0.3214 0.0357  plane waves:    2682
 k-point 52 :   0.3929 0.3214 0.0357  plane waves:    2676
 k-point 53 :   0.4643 0.3214 0.0357  plane waves:    2678
 k-point 54 :  -0.4643 0.3214 0.0357  plane waves:    2683
 k-point 55 :  -0.3929 0.3214 0.0357  plane waves:    2681
 k-point 56 :  -0.3214 0.3214 0.0357  plane waves:    2679
 k-point 57 :  -0.2500 0.3214 0.0357  plane waves:    2683
 k-point 58 :  -0.1786 0.3214 0.0357  plane waves:    2686
 k-point 59 :  -0.1071 0.3214 0.0357  plane waves:    2687
 k-point 60 :  -0.0357 0.3214 0.0357  plane waves:    2691
 k-point 61 :   0.3929 0.3929 0.0357  plane waves:    2681
 k-point 62 :   0.4643 0.3929 0.0357  plane waves:    2677
 k-point 63 :  -0.4643 0.3929 0.0357  plane waves:    2683
 k-point 64 :  -0.3929 0.3929 0.0357  plane waves:    2678
 k-point 65 :  -0.3214 0.3929 0.0357  plane waves:    2676
 k-point 66 :  -0.2500 0.3929 0.0357  plane waves:    2672
 k-point 67 :  -0.1786 0.3929 0.0357  plane waves:    2684
 k-point 68 :  -0.1071 0.3929 0.0357  plane waves:    2687
 k-point 69 :  -0.0357 0.3929 0.0357  plane waves:    2691
 k-point 70 :   0.4643 0.4643 0.0357  plane waves:    2680
 k-point 71 :  -0.4643 0.4643 0.0357  plane waves:    2683
 k-point 72 :  -0.3929 0.4643 0.0357  plane waves:    2680
 k-point 73 :  -0.3214 0.4643 0.0357  plane waves:    2678
 k-point 74 :  -0.2500 0.4643 0.0357  plane waves:    2681
 k-point 75 :  -0.1786 0.4643 0.0357  plane waves:    2688
 k-point 76 :  -0.1071 0.4643 0.0357  plane waves:    2693
 k-point 77 :  -0.0357 0.4643 0.0357  plane waves:    2690
 k-point 78 :  -0.4643-0.4643 0.0357  plane waves:    2679
 k-point 79 :  -0.3929-0.4643 0.0357  plane waves:    2673
 k-point 80 :  -0.3214-0.4643 0.0357  plane waves:    2676
 k-point 81 :  -0.2500-0.4643 0.0357  plane waves:    2678
 k-point 82 :  -0.1786-0.4643 0.0357  plane waves:    2684
 k-point 83 :  -0.1071-0.4643 0.0357  plane waves:    2694
 k-point 84 :  -0.3929-0.3929 0.0357  plane waves:    2664
 k-point 85 :  -0.3214-0.3929 0.0357  plane waves:    2674
 k-point 86 :  -0.2500-0.3929 0.0357  plane waves:    2682
 k-point 87 :  -0.1786-0.3929 0.0357  plane waves:    2691
 k-point 88 :  -0.1071-0.3929 0.0357  plane waves:    2694
 k-point 89 :  -0.3214-0.3214 0.0357  plane waves:    2674
 k-point 90 :  -0.2500-0.3214 0.0357  plane waves:    2677
 k-point 91 :  -0.1786-0.3214 0.0357  plane waves:    2690
 k-point 92 :  -0.1071-0.3214 0.0357  plane waves:    2692
 k-point 93 :  -0.2500-0.2500 0.0357  plane waves:    2673
 k-point 94 :  -0.1786-0.2500 0.0357  plane waves:    2686
 k-point 95 :  -0.1071-0.2500 0.0357  plane waves:    2694
 k-point 96 :  -0.1786-0.1786 0.0357  plane waves:    2688
 k-point 97 :  -0.1071-0.1786 0.0357  plane waves:    2688
 k-point 98 :  -0.1071-0.1071 0.0357  plane waves:    2684
 k-point 99 :   0.1071 0.1071 0.1071  plane waves:    2683
 k-point ** :   0.1786 0.1071 0.1071  plane waves:    2684
 k-point ** :   0.2500 0.1071 0.1071  plane waves:    2695
 k-point ** :   0.3214 0.1071 0.1071  plane waves:    2704
 k-point ** :   0.3929 0.1071 0.1071  plane waves:    2700
 k-point ** :   0.4643 0.1071 0.1071  plane waves:    2699
 k-point ** :  -0.4643 0.1071 0.1071  plane waves:    2691
 k-point ** :  -0.3929 0.1071 0.1071  plane waves:    2683
 k-point ** :  -0.3214 0.1071 0.1071  plane waves:    2703
 k-point ** :  -0.2500 0.1071 0.1071  plane waves:    2690
[...]
     16       8.2481      2.00000
     17      18.8042      0.00000
     18      19.1357      0.00000
     19      19.1357      0.00000
     20      19.3032      0.00000
     21      19.3142      0.00000
     22      19.8827      0.00000
     23      19.8827      0.00000
     24      19.9093      0.00000

 k-point   269 :      -0.3929   -0.4643    0.3214
  band No.  band energies     occupation 
      1      -6.3750      2.00000
      2      -5.8112      2.00000
      3      -4.8370      2.00000
      4      -4.2840      2.00000
      5      -2.0534      2.00000
      6      -1.7722      2.00000
      7      -0.8241      2.00000
      8      -0.2774      2.00000
      9       6.2992      2.00000
     10       6.6717      2.00000
     11       7.3453      2.00000
     12       7.3562      2.00000
     13       7.4903      2.00000
     14       7.7715      2.00000
     15       7.8356      2.00000
     16       8.3058      2.00000
     17      18.6572      0.00000
     18      18.8126      0.00000
     19      18.9721      0.00000
     20      19.0400      0.00000
     21      19.5368      0.00000
     22      19.9704      0.00000
     23      20.0549      0.00000
     24      20.1533      0.00000

 k-point   270 :      -0.3929   -0.3929    0.3214
  band No.  band energies     occupation 
      1      -6.8883      2.00000
      2      -5.1917      2.00000
      3      -5.1917      2.00000
      4      -4.2005      2.00000
      5      -1.9764      2.00000
      6      -1.2676      2.00000
      7      -1.2676      2.00000
      8       0.3786      2.00000
      9       6.0568      2.00000
     10       6.7619      2.00000
     11       6.7619      2.00000
     12       7.1652      2.00000
     13       7.3509      2.00000
     14       7.3509      2.00000
     15       8.1102      2.00000
     16       8.5360      2.00000
     17      18.2457      0.00000
     18      18.5848      0.00000
     19      18.5848      0.00000
     20      18.9913      0.00000
     21      19.3820      0.00000
     22      19.8113      0.00000
     23      20.6197      0.00000
     24      20.6197      0.00000

 k-point   271 :       0.3929    0.3929    0.3929
  band No.  band energies     occupation 
      1      -6.3358      2.00000
      2      -4.9278      2.00000
      3      -4.9278      2.00000
      4      -4.9278      2.00000
      5      -1.8248      2.00000
      6      -1.8248      2.00000
      7      -1.8248      2.00000
      8      -0.2024      2.00000
      9       7.0783      2.00000
     10       7.0783      2.00000
     11       7.0783      2.00000
     12       7.5439      2.00000
     13       7.5439      2.00000
     14       7.5439      2.00000
     15       8.1356      2.00000
     16       8.1356      2.00000
     17      18.6317      0.00000
     18      18.6317      0.00000
     19      18.6317      0.00000
     20      19.1714      0.00000
     21      19.1714      0.00000
     22      19.1989      0.00000
     23      20.2397      0.00000
     24      20.2397      0.00000

 k-point   272 :       0.4643    0.3929    0.3929
  band No.  band energies     occupation 
      1      -5.8239      2.00000
      2      -5.4645      2.00000
      3      -4.7202      2.00000
      4      -4.7202      2.00000
      5      -2.2008      2.00000
      6      -2.2008      2.00000
      7      -1.4711      2.00000
      8      -0.8643      2.00000
      9       7.2008      2.00000
     10       7.2008      2.00000
     11       7.7262      2.00000
     12       7.7262      2.00000
     13       7.7570      2.00000
     14       7.8071      2.00000
     15       7.8883      2.00000
     16       8.0284      2.00000
     17      18.9083      0.00000
     18      19.0015      0.00000
     19      19.0081      0.00000
     20      19.0081      0.00000
     21      19.3708      0.00000
     22      19.4145      0.00000
     23      19.7080      0.00000
     24      19.7082      0.00000

 k-point   273 :      -0.4643    0.3929    0.3929
  band No.  band energies     occupation 
      1      -5.9939      2.00000
      2      -5.2594      2.00000
      3      -4.7118      2.00000
      4      -4.7118      2.00000
      5      -2.2160      2.00000
      6      -2.2160      2.00000
      7      -1.4186      2.00000
      8      -0.9613      2.00000
      9       7.1969      2.00000
     10       7.1969      2.00000
     11       7.6064      2.00000
     12       7.6348      2.00000
     13       7.7444      2.00000
     14       7.7444      2.00000
     15       8.0710      2.00000
     16       8.1834      2.00000
     17      18.7758      0.00000
     18      19.0669      0.00000
     19      19.0669      0.00000
     20      19.1407      0.00000
     21      19.3936      0.00000
     22      19.6838      0.00000
     23      19.6838      0.00000
     24      19.7696      0.00000

 k-point   274 :      -0.3929    0.3929    0.3929
  band No.  band energies     occupation 
      1      -6.4750      2.00000
      2      -4.9091      2.00000
      3      -4.9091      2.00000
      4      -4.6845      2.00000
      5      -1.8639      2.00000
      6      -1.8639      2.00000
      7      -1.8224      2.00000
      8      -0.3372      2.00000
      9       6.9250      2.00000
     10       7.0856      2.00000
     11       7.0856      2.00000
     12       7.3892      2.00000
     13       7.5754      2.00000
     14       7.5754      2.00000
     15       8.3050      2.00000
     16       8.3190      2.00000
     17      18.5138      0.00000
     18      18.7206      0.00000
     19      18.7206      0.00000
     20      19.1341      0.00000
     21      19.3017      0.00000
     22      19.7447      0.00000
     23      20.2157      0.00000
     24      20.3505      0.00000

 k-point   275 :       0.4643    0.4643    0.3929
  band No.  band energies     occupation 
      1      -5.3448      2.00000
      2      -5.0932      2.00000
      3      -5.0932      2.00000
      4      -4.7942      2.00000
      5      -2.2997      2.00000
      6      -2.0053      2.00000
      7      -2.0053      2.00000
      8      -1.4969      2.00000
      9       7.5292      2.00000
     10       7.6812      2.00000
     11       7.6812      2.00000
     12       7.7686      2.00000
     13       7.9397      2.00000
     14       8.0001      2.00000
     15       8.0001      2.00000
     16       8.0258      2.00000
     17      19.1128      0.00000
     18      19.2079      0.00000
     19      19.2323      0.00000
     20      19.2326      0.00000
     21      19.2326      0.00000
     22      19.3857      0.00000
     23      19.4227      0.00000
     24      19.4227      0.00000

 k-point   276 :      -0.4643    0.4643    0.3929
  band No.  band energies     occupation 
      1      -5.5430      2.00000
      2      -5.0767      2.00000
      3      -4.8522      2.00000
      4      -4.8036      2.00000
      5      -2.2944      2.00000
      6      -2.0266      2.00000
      7      -1.9821      2.00000
      8      -1.5690      2.00000
      9       7.5156      2.00000
     10       7.5264      2.00000
     11       7.6929      2.00000
     12       7.8219      2.00000
     13       7.9412      2.00000
     14       7.9498      2.00000
     15       8.0085      2.00000
     16       8.1984      2.00000
     17      19.0782      0.00000
     18      19.1243      0.00000
     19      19.1929      0.00000
     20      19.2238      0.00000
     21      19.3344      0.00000
     22      19.4120      0.00000
     23      19.4403      0.00000
     24      19.7317      0.00000

 k-point   277 :      -0.3929    0.4643    0.3929
  band No.  band energies     occupation 
      1      -5.9839      2.00000
      2      -5.4468      2.00000
      3      -4.7184      2.00000
      4      -4.4465      2.00000
      5      -2.2190      2.00000
      6      -2.2159      2.00000
      7      -1.5027      2.00000
      8      -0.9784      2.00000
      9       7.0421      2.00000
     10       7.2356      2.00000
     11       7.5522      2.00000
     12       7.7058      2.00000
     13       7.7773      2.00000
     14       7.8241      2.00000
     15       8.0699      2.00000
     16       8.2102      2.00000
     17      18.8776      0.00000
     18      18.9206      0.00000
     19      19.0120      0.00000
     20      19.0582      0.00000
     21      19.5166      0.00000
     22      19.5810      0.00000
     23      19.8749      0.00000
     24      19.8823      0.00000

 k-point   278 :      -0.4643   -0.4643    0.3929
  band No.  band energies     occupation 
      1      -5.5321      2.00000
      2      -5.0869      2.00000
      3      -5.0869      2.00000
      4      -4.5288      2.00000
      5      -2.3014      2.00000
      6      -2.0183      2.00000
      7      -2.0183      2.00000
      8      -1.5825      2.00000
      9       7.3511      2.00000
     10       7.7083      2.00000
     11       7.7083      2.00000
     12       7.7641      2.00000
     13       7.9523      2.00000
     14       7.9856      2.00000
     15       7.9856      2.00000
     16       8.2126      2.00000
     17      18.9823      0.00000
     18      19.1206      0.00000
     19      19.1206      0.00000
     20      19.1892      0.00000
     21      19.3632      0.00000
     22      19.5657      0.00000
     23      19.7586      0.00000
     24      19.7586      0.00000

 k-point   279 :       0.4643    0.4643    0.4643
  band No.  band energies     occupation 
      1      -4.9357      2.00000
      2      -4.8858      2.00000
      3      -4.8858      2.00000
      4      -4.8858      2.00000
      5      -2.3795      2.00000
      6      -2.3795      2.00000
      7      -2.3795      2.00000
      8      -2.0642      2.00000
      9       7.9534      2.00000
     10       7.9534      2.00000
     11       7.9785      2.00000
     12       7.9785      2.00000
     13       7.9785      2.00000
     14       8.0538      2.00000
     15       8.0538      2.00000
     16       8.0538      2.00000
     17      19.2023      0.00000
     18      19.2023      0.00000
     19      19.2697      0.00000
     20      19.2697      0.00000
     21      19.2697      0.00000
     22      19.2768      0.00000
     23      19.3141      0.00000
     24      19.3141      0.00000

 k-point   280 :      -0.4643    0.4643    0.4643
  band No.  band energies     occupation 
      1      -5.1705      2.00000
      2      -4.8830      2.00000
      3      -4.8830      2.00000
      4      -4.6108      2.00000
      5      -2.3854      2.00000
      6      -2.3845      2.00000
      7      -2.3845      2.00000
      8      -2.1016      2.00000
      9       7.8072      2.00000
     10       7.8644      2.00000
     11       7.9910      2.00000
     12       7.9910      2.00000
     13       8.0462      2.00000
     14       8.0462      2.00000
     15       8.1263      2.00000
     16       8.1473      2.00000
     17      19.1247      0.00000
     18      19.1733      0.00000
     19      19.1733      0.00000
     20      19.1853      0.00000
     21      19.3233      0.00000
     22      19.3565      0.00000
     23      19.4131      0.00000
     24      19.4760      0.00000


--------------------------------------------------------------------------------------------------------


 soft charge-density along one line, spin component           1
         0         1         2         3         4         5         6         7         8         9
 total charge-density along one line
 
 pseudopotential strength for first ion, spin component:           1
 12.170  20.467   0.000   0.000   0.000   0.000   0.000   0.000
 20.467  34.420   0.000   0.000   0.000   0.000   0.000   0.000
  0.000   0.000  -2.970   0.000   0.000  -5.306   0.000   0.000
  0.000   0.000   0.000  -2.970   0.000   0.000  -5.306   0.000
  0.000   0.000   0.000   0.000  -2.970   0.000   0.000  -5.306
  0.000   0.000  -5.306   0.000   0.000  -9.460   0.000   0.000
  0.000   0.000   0.000  -5.306   0.000   0.000  -9.460   0.000
  0.000   0.000   0.000   0.000  -5.306   0.000   0.000  -9.460
 total augmentation occupancy for first ion, spin component:           1
  7.188  -2.506  -0.060  -0.060  -0.060   0.025   0.025   0.025
 -2.506   0.929   0.026   0.026   0.026  -0.011  -0.011  -0.011
 -0.060   0.026   5.671   0.033   0.033  -1.837  -0.011  -0.011
 -0.060   0.026   0.033   5.671   0.033  -0.011  -1.837  -0.011
 -0.060   0.026   0.033   0.033   5.671  -0.011  -0.011  -1.837
  0.025  -0.011  -1.837  -0.011  -0.011   0.612   0.004   0.004
  0.025  -0.011  -0.011  -1.837  -0.011   0.004   0.612   0.004
  0.025  -0.011  -0.011  -0.011  -1.837   0.004   0.004   0.612


------------------------ aborting loop because EDIFF is reached ----------------------------------------


    CHARGE:  cpu time    0.2110: real time    0.2101
    FORLOC:  cpu time    0.0000: real time    0.0003
    FORNL :  cpu time    0.6409: real time    0.6418
    STRESS:  cpu time    4.0484: real time    4.0569
    FORCOR:  cpu time    0.0030: real time    0.0034
    FORHAR:  cpu time    0.0010: real time    0.0009
    MIXING:  cpu time    0.0000: real time    0.0004
    OFIELD:  cpu time    0.0010: real time    0.0001

  FORCE on cell =-STRESS in cart. coord.  units (eV):
  Direction    XX          YY          ZZ          XY          YZ          ZX
  --------------------------------------------------------------------------------------
  Alpha Z    76.88434    76.88434    76.88434
  Ewald    -463.05436  -463.05436  -463.05436     4.57150     4.57150     4.57150
  Hartree    35.20656    35.20656    35.20656     1.20685     1.20685     1.20685
  E(xc)    -132.03598  -132.03598  -132.03598    -0.01668    -0.01668    -0.01668
  Local    -126.68355  -126.68355  -126.68355    -5.55844    -5.55844    -5.55844
  n-local    28.68972    28.68887    28.78932    -0.23720     0.27978    -0.57535
  augment     0.48721     0.48721     0.48721     0.00359     0.00359     0.00359
  Kinetic   577.46984   577.50751   585.39460     2.20310    -3.01015     5.50207
  Fock        0.00000     0.00000     0.00000     0.00000     0.00000     0.00000
  -------------------------------------------------------------------------------------
  Total      -0.34916    -0.34916    -0.34916     1.59424     1.59424     1.59424
  in kB     -12.25867   -12.25867   -12.25867    55.97296    55.97296    55.97296
  external pressure =      -12.26 kB  Pullay stress =        0.00 kB


 VOLUME and BASIS-vectors are now :
 -----------------------------------------------------------------------------
  energy-cutoff  :      875.00
  volume of cell :       45.63
      direct lattice vectors                 reciprocal lattice vectors
     3.573605071 -0.017868025 -0.017868025     0.279843529  0.001406249  0.001406249
    -0.017868025  3.573605071 -0.017868025     0.001406249  0.279843529  0.001406249
    -0.017868025 -0.017868025  3.573605071     0.001406249  0.001406249  0.279843529

  length of vectors
     3.573694410  3.573694410  3.573694410     0.279850595  0.279850595  0.279850595


 FORCES acting on ions
    electron-ion (+dipol)            ewald-force                    non-local-force                 convergence-correction
 -----------------------------------------------------------------------------------------------
   -.187E+01 -.187E+01 -.187E+01   0.174E+01 0.174E+01 0.174E+01   0.129E+00 0.129E+00 0.129E+00   -.541E-05 -.541E-05 -.541E-05
   0.187E+01 0.187E+01 0.187E+01   -.174E+01 -.174E+01 -.174E+01   -.129E+00 -.129E+00 -.129E+00   0.541E-05 0.541E-05 0.541E-05
   -.187E+01 -.187E+01 -.187E+01   0.174E+01 0.174E+01 0.174E+01   0.129E+00 0.129E+00 0.129E+00   -.541E-05 -.541E-05 -.541E-05
   0.187E+01 0.187E+01 0.187E+01   -.174E+01 -.174E+01 -.174E+01   -.129E+00 -.129E+00 -.129E+00   0.541E-05 0.541E-05 0.541E-05
   -.187E+01 -.187E+01 -.187E+01   0.174E+01 0.174E+01 0.174E+01   0.129E+00 0.129E+00 0.129E+00   -.541E-05 -.541E-05 -.541E-05
   0.187E+01 0.187E+01 0.187E+01   -.174E+01 -.174E+01 -.174E+01   -.129E+00 -.129E+00 -.129E+00   0.541E-05 0.541E-05 0.541E-05
   -.187E+01 -.187E+01 -.187E+01   0.174E+01 0.174E+01 0.174E+01   0.129E+00 0.129E+00 0.129E+00   -.541E-05 -.541E-05 -.541E-05
   0.187E+01 0.187E+01 0.187E+01   -.174E+01 -.174E+01 -.174E+01   -.129E+00 -.129E+00 -.129E+00   0.541E-05 0.541E-05 0.541E-05
 -----------------------------------------------------------------------------------------------
   0.120E-12 0.306E-11 0.628E-11   -.377E-14 -.155E-14 0.311E-14   0.278E-15 0.333E-15 0.000E+00   -.466E-13 -.155E-13 -.312E-13
 
 
 POSITION                                       TOTAL-FORCE (eV/Angst)
 -----------------------------------------------------------------------------------
      0.88491      0.88491      0.88491        -0.000009     -0.000009     -0.000009
     -0.00044     -0.00044     -0.00044         0.000009      0.000009      0.000009
      0.86704      2.66278      2.66278        -0.000009     -0.000009     -0.000009
     -0.01831      1.77743      1.77743         0.000009      0.000009      0.000009
      2.66278      0.86704      2.66278        -0.000009     -0.000009     -0.000009
      1.77743     -0.01831      1.77743         0.000009      0.000009      0.000009
      2.66278      2.66278      0.86704        -0.000009     -0.000009     -0.000009
      1.77743      1.77743     -0.01831         0.000009      0.000009      0.000009
 -----------------------------------------------------------------------------------
    total drift:                                0.000000      0.000000      0.000000


--------------------------------------------------------------------------------------------------------



  FREE ENERGIE OF THE ION-ELECTRON SYSTEM (eV)
  ---------------------------------------------------
  free  energy   TOTEN  =       -72.82117103 eV

  energy  without entropy=      -72.82117103  energy(sigma->0) =      -72.82117103
 
 d Force = 0.1267638E-02[ 0.259E-06, 0.254E-02]  d Energy = 0.1270617E-02-0.298E-05
 d Force =-0.4655965E-01[-0.495E-01,-0.436E-01]  d Ewald  =-0.4654817E-01-0.115E-04


--------------------------------------------------------------------------------------------------------


    POTLOK:  cpu time    0.0110: real time    0.0116


--------------------------------------------------------------------------------------------------------


 stress matrix after NEB project (eV)
     -0.34916      1.59424      1.59424
      1.59424     -0.34916      1.59424
      1.59424      1.59424     -0.34916
  FORCES: max atom, RMS     0.000016    0.000016
  FORCE total and by dimension    0.000045    0.000009
  Stress total and by dimension    3.951633    1.594244


--------------------------------------------------------------------------------------------------------


  
 reached required accuracy - stopping structural energy minimisation
     LOOP+:  cpu time   48.8206: real time   49.0018
    4ORBIT:  cpu time    0.0000: real time    0.0000

 total amount of memory used by VASP MPI-rank0    94461. kBytes
=======================================================================

   base      :      30000. kBytes
   nonl-proj :      48946. kBytes
   fftplans  :        905. kBytes
   grid      :       2114. kBytes
   one-center:         24. kBytes
   wavefun   :      12472. kBytes
 
  
  
 General timing and accounting informations for this job:
 ========================================================
  
                  Total CPU time used (sec):      205.530
                            User time (sec):      203.563
                          System time (sec):        1.967
                         Elapsed time (sec):      214.736
  
                   Maximum memory used (kb):      188992.
                   Average memory used (kb):           0.
  
                          Minor page faults:        47276
                          Major page faults:          398
                 Voluntary context switches:         8084
