<?xml version="1.0" encoding="ISO-8859-1"?>
<modeling>
 <generator>
  <i name="program" type="string">vasp </i>
  <i name="version" type="string">5.4.4.18Apr17-6-g9f103f2a35  </i>
  <i name="subversion" type="string">(build Jan 14 2019 14:48:31) complex            parallel </i>
  <i name="platform" type="string">LinuxIFC </i>
  <i name="date" type="string">2019 08 26 </i>
  <i name="time" type="string">20:54:04 </i>
 </generator>
 <incar>
  <i type="int" name="ISTART">     0</i>
  <i type="string" name="PREC">high     (precision level)</i>
  <i type="logical" name="ADDGRID"> T  </i>
  <i type="int" name="NELM">    40</i>
  <i type="int" name="NELMIN">     4</i>
  <i type="int" name="IBRION">     2</i>
  <i name="EDIFF">      0.00000001</i>
  <i name="EDIFFG">     -0.01000000</i>
  <i type="int" name="NSW">   100</i>
  <i type="int" name="ISIF">     2</i>
  <i type="logical" name="LREAL"> F  </i>
  <i type="int" name="ISMEAR">     0</i>
  <i name="SIGMA">      0.05000000</i>
  <i type="logical" name="LWAVE"> F  </i>
  <i type="logical" name="LCHARG"> F  </i>
  <v type="int" name="KPOINT_BSE">    -1     0     0     0</v>
  <i type="int" name="NELM">    40</i>
 </incar>
 <structure name="primitive_cell" >
  <crystal>
   <varray name="basis" >
    <v>      -0.01786803       1.77786852       1.77786852 </v>
    <v>       1.77786852      -0.01786803       1.77786852 </v>
    <v>       1.77786852       1.77786852      -0.01786803 </v>
   </varray>
   <i name="volume">     11.40845921 </i>
   <varray name="rec_basis" >
    <v>      -0.27703103       0.27984353       0.27984353 </v>
    <v>       0.27984353      -0.27703103       0.27984353 </v>
    <v>       0.27984353       0.27984353      -0.27703103 </v>
   </varray>
  </crystal>
  <varray name="positions" >
   <v>       0.25000000       0.25000000       0.25000000 </v>
   <v>       0.00000000       0.00000000       0.00000000 </v>
  </varray>
 </structure>
 <varray name="primitive_index" >
  <v type="int" >        1 </v>
  <v type="int" >        2 </v>
 </varray>
 <kpoints>
  <generation param="Monkhorst-Pack">
   <v type="int" name="divisions">      14       14       14 </v>
   <v name="usershift">      0.00000000       0.00000000       0.00000000 </v>
   <v name="genvec1">      0.07142857       0.00000000       0.00000000 </v>
   <v name="genvec2">      0.00000000       0.07142857       0.00000000 </v>
   <v name="genvec3">      0.00000000       0.00000000       0.07142857 </v>
   <v name="shift">      0.50000000       0.50000000       0.50000000 </v>
  </generation>
  <varray name="kpointlist" >
   <v>       0.03571429       0.03571429       0.03571429 </v>
   <v>       0.10714286       0.03571429       0.03571429 </v>
   <v>       0.17857143       0.03571429       0.03571429 </v>
   <v>       0.25000000       0.03571429       0.03571429 </v>
   <v>       0.32142857       0.03571429       0.03571429 </v>
   <v>       0.39285714       0.03571429       0.03571429 </v>
   <v>       0.46428571       0.03571429       0.03571429 </v>
   <v>      -0.46428571       0.03571429       0.03571429 </v>
   <v>      -0.39285714       0.03571429       0.03571429 </v>
   <v>      -0.32142857       0.03571429       0.03571429 </v>
   <v>      -0.25000000       0.03571429       0.03571429 </v>
   <v>      -0.17857143       0.03571429       0.03571429 </v>
   <v>      -0.10714286       0.03571429       0.03571429 </v>
   <v>      -0.03571429       0.03571429       0.03571429 </v>
   <v>       0.10714286       0.10714286       0.03571429 </v>
   <v>       0.17857143       0.10714286       0.03571429 </v>
   <v>       0.25000000       0.10714286       0.03571429 </v>
   <v>       0.32142857       0.10714286       0.03571429 </v>
   <v>       0.39285714       0.10714286       0.03571429 </v>
   <v>       0.46428571       0.10714286       0.03571429 </v>
   <v>      -0.46428571       0.10714286       0.03571429 </v>
   <v>      -0.39285714       0.10714286       0.03571429 </v>
   <v>      -0.32142857       0.10714286       0.03571429 </v>
   <v>      -0.25000000       0.10714286       0.03571429 </v>
   <v>      -0.17857143       0.10714286       0.03571429 </v>
   <v>      -0.10714286       0.10714286       0.03571429 </v>
   <v>      -0.03571429       0.10714286       0.03571429 </v>
   <v>       0.17857143       0.17857143       0.03571429 </v>
   <v>       0.25000000       0.17857143       0.03571429 </v>
   <v>       0.32142857       0.17857143       0.03571429 </v>
   <v>       0.39285714       0.17857143       0.03571429 </v>
   <v>       0.46428571       0.17857143       0.03571429 </v>
   <v>      -0.46428571       0.17857143       0.03571429 </v>
   <v>      -0.39285714       0.17857143       0.03571429 </v>
   <v>      -0.32142857       0.17857143       0.03571429 </v>
   <v>      -0.25000000       0.17857143       0.03571429 </v>
   <v>      -0.17857143       0.17857143       0.03571429 </v>
   <v>      -0.10714286       0.17857143       0.03571429 </v>
   <v>      -0.03571429       0.17857143       0.03571429 </v>
   <v>       0.25000000       0.25000000       0.03571429 </v>
   <v>       0.32142857       0.25000000       0.03571429 </v>
   <v>       0.39285714       0.25000000       0.03571429 </v>
   <v>       0.46428571       0.25000000       0.03571429 </v>
   <v>      -0.46428571       0.25000000       0.03571429 </v>
   <v>      -0.39285714       0.25000000       0.03571429 </v>
   <v>      -0.32142857       0.25000000       0.03571429 </v>
   <v>      -0.25000000       0.25000000       0.03571429 </v>
   <v>      -0.17857143       0.25000000       0.03571429 </v>
   <v>      -0.10714286       0.25000000       0.03571429 </v>
   <v>      -0.03571429       0.25000000       0.03571429 </v>
   <v>       0.32142857       0.32142857       0.03571429 </v>
   <v>       0.39285714       0.32142857       0.03571429 </v>
   <v>       0.46428571       0.32142857       0.03571429 </v>
   <v>      -0.46428571       0.32142857       0.03571429 </v>
   <v>      -0.39285714       0.32142857       0.03571429 </v>
   <v>      -0.32142857       0.32142857       0.03571429 </v>
   <v>      -0.25000000       0.32142857       0.03571429 </v>
   <v>      -0.17857143       0.32142857       0.03571429 </v>
   <v>      -0.10714286       0.32142857       0.03571429 </v>
   <v>      -0.03571429       0.32142857       0.03571429 </v>
   <v>       0.39285714       0.39285714       0.03571429 </v>
   <v>       0.46428571       0.39285714       0.03571429 </v>
   <v>      -0.46428571       0.39285714       0.03571429 </v>
   <v>      -0.39285714       0.39285714       0.03571429 </v>
   <v>      -0.32142857       0.39285714       0.03571429 </v>
   <v>      -0.25000000       0.39285714       0.03571429 </v>
   <v>      -0.17857143       0.39285714       0.03571429 </v>
   <v>      -0.10714286       0.39285714       0.03571429 </v>
   <v>      -0.03571429       0.39285714       0.03571429 </v>
   <v>       0.46428571       0.46428571       0.03571429 </v>
   <v>      -0.46428571       0.46428571       0.03571429 </v>
   <v>      -0.39285714       0.46428571       0.03571429 </v>
   <v>      -0.32142857       0.46428571       0.03571429 </v>
   <v>      -0.25000000       0.46428571       0.03571429 </v>
   <v>      -0.17857143       0.46428571       0.03571429 </v>
   <v>      -0.10714286       0.46428571       0.03571429 </v>
   <v>      -0.03571429       0.46428571       0.03571429 </v>
   <v>      -0.46428571      -0.46428571       0.03571429 </v>
   <v>      -0.39285714      -0.46428571       0.03571429 </v>
   <v>      -0.32142857      -0.46428571       0.03571429 </v>
   <v>      -0.25000000      -0.46428571       0.03571429 </v>
   <v>      -0.17857143      -0.46428571       0.03571429 </v>
   <v>      -0.10714286      -0.46428571       0.03571429 </v>
   <v>      -0.39285714      -0.39285714       0.03571429 </v>
   <v>      -0.32142857      -0.39285714       0.03571429 </v>
   <v>      -0.25000000      -0.39285714       0.03571429 </v>
   <v>      -0.17857143      -0.39285714       0.03571429 </v>
   <v>      -0.10714286      -0.39285714       0.03571429 </v>
   <v>      -0.32142857      -0.32142857       0.03571429 </v>
   <v>      -0.25000000      -0.32142857       0.03571429 </v>
   <v>      -0.17857143      -0.32142857       0.03571429 </v>
   <v>      -0.10714286      -0.32142857       0.03571429 </v>
   <v>      -0.25000000      -0.25000000       0.03571429 </v>
   <v>      -0.17857143      -0.25000000       0.03571429 </v>
   <v>      -0.10714286      -0.25000000       0.03571429 </v>
   <v>      -0.17857143      -0.17857143       0.03571429 </v>
   <v>      -0.10714286      -0.17857143       0.03571429 </v>
   <v>      -0.10714286      -0.10714286       0.03571429 </v>
   <v>       0.10714286       0.10714286       0.10714286 </v>
   <v>       0.17857143       0.10714286       0.10714286 </v>
   <v>       0.25000000       0.10714286       0.10714286 </v>
   <v>       0.32142857       0.10714286       0.10714286 </v>
   <v>       0.39285714       0.10714286       0.10714286 </v>
   <v>       0.46428571       0.10714286       0.10714286 </v>
   <v>      -0.46428571       0.10714286       0.10714286 </v>
   <v>      -0.39285714       0.10714286       0.10714286 </v>
   <v>      -0.32142857       0.10714286       0.10714286 </v>
   <v>      -0.25000000       0.10714286       0.10714286 </v>
   <v>      -0.17857143       0.10714286       0.10714286 </v>
   <v>      -0.10714286       0.10714286       0.10714286 </v>
   <v>       0.17857143       0.17857143       0.10714286 </v>
   <v>       0.25000000       0.17857143       0.10714286 </v>
   <v>       0.32142857       0.17857143       0.10714286 </v>
   <v>       0.39285714       0.17857143       0.10714286 </v>
   <v>       0.46428571       0.17857143       0.10714286 </v>
   <v>      -0.46428571       0.17857143       0.10714286 </v>
   <v>      -0.39285714       0.17857143       0.10714286 </v>
   <v>      -0.32142857       0.17857143       0.10714286 </v>
   <v>      -0.25000000       0.17857143       0.10714286 </v>
   <v>      -0.17857143       0.17857143       0.10714286 </v>
   <v>      -0.10714286       0.17857143       0.10714286 </v>
   <v>       0.25000000       0.25000000       0.10714286 </v>
   <v>       0.32142857       0.25000000       0.10714286 </v>
   <v>       0.39285714       0.25000000       0.10714286 </v>
   <v>       0.46428571       0.25000000       0.10714286 </v>
   <v>      -0.46428571       0.25000000       0.10714286 </v>
   <v>      -0.39285714       0.25000000       0.10714286 </v>
   <v>      -0.32142857       0.25000000       0.10714286 </v>
   <v>      -0.25000000       0.25000000       0.10714286 </v>
   <v>      -0.17857143       0.25000000       0.10714286 </v>
   <v>      -0.10714286       0.25000000       0.10714286 </v>
   <v>       0.32142857       0.32142857       0.10714286 </v>
   <v>       0.39285714       0.32142857       0.10714286 </v>
   <v>       0.46428571       0.32142857       0.10714286 </v>
   <v>      -0.46428571       0.32142857       0.10714286 </v>
   <v>      -0.39285714       0.32142857       0.10714286 </v>
   <v>      -0.32142857       0.32142857       0.10714286 </v>
   <v>      -0.25000000       0.32142857       0.10714286 </v>
   <v>      -0.17857143       0.32142857       0.10714286 </v>
   <v>      -0.10714286       0.32142857       0.10714286 </v>
   <v>       0.39285714       0.39285714       0.10714286 </v>
   <v>       0.46428571       0.39285714       0.10714286 </v>
   <v>      -0.46428571       0.39285714       0.10714286 </v>
   <v>      -0.39285714       0.39285714       0.10714286 </v>
   <v>      -0.32142857       0.39285714       0.10714286 </v>
   <v>      -0.25000000       0.39285714       0.10714286 </v>
   <v>      -0.17857143       0.39285714       0.10714286 </v>
   <v>      -0.10714286       0.39285714       0.10714286 </v>
   <v>       0.46428571       0.46428571       0.10714286 </v>
   <v>      -0.46428571       0.46428571       0.10714286 </v>
   <v>      -0.39285714       0.46428571       0.10714286 </v>
   <v>      -0.32142857       0.46428571       0.10714286 </v>
   <v>      -0.25000000       0.46428571       0.10714286 </v>
   <v>      -0.17857143       0.46428571       0.10714286 </v>
   <v>      -0.10714286       0.46428571       0.10714286 </v>
   <v>      -0.46428571      -0.46428571       0.10714286 </v>
   <v>      -0.39285714      -0.46428571       0.10714286 </v>
   <v>      -0.32142857      -0.46428571       0.10714286 </v>
   <v>      -0.25000000      -0.46428571       0.10714286 </v>
   <v>      -0.17857143      -0.46428571       0.10714286 </v>
   <v>      -0.39285714      -0.39285714       0.10714286 </v>
   <v>      -0.32142857      -0.39285714       0.10714286 </v>
   <v>      -0.25000000      -0.39285714       0.10714286 </v>
   <v>      -0.17857143      -0.39285714       0.10714286 </v>
   <v>      -0.32142857      -0.32142857       0.10714286 </v>
   <v>      -0.25000000      -0.32142857       0.10714286 </v>
   <v>      -0.17857143      -0.32142857       0.10714286 </v>
   <v>      -0.25000000      -0.25000000       0.10714286 </v>
   <v>      -0.17857143      -0.25000000       0.10714286 </v>
   <v>      -0.17857143      -0.17857143       0.10714286 </v>
   <v>       0.17857143       0.17857143       0.17857143 </v>
   <v>       0.25000000       0.17857143       0.17857143 </v>
   <v>       0.32142857       0.17857143       0.17857143 </v>
   <v>       0.39285714       0.17857143       0.17857143 </v>
   <v>       0.46428571       0.17857143       0.17857143 </v>
   <v>      -0.46428571       0.17857143       0.17857143 </v>
   <v>      -0.39285714       0.17857143       0.17857143 </v>
   <v>      -0.32142857       0.17857143       0.17857143 </v>
   <v>      -0.25000000       0.17857143       0.17857143 </v>
   <v>      -0.17857143       0.17857143       0.17857143 </v>
   <v>       0.25000000       0.25000000       0.17857143 </v>
   <v>       0.32142857       0.25000000       0.17857143 </v>
   <v>       0.39285714       0.25000000       0.17857143 </v>
   <v>       0.46428571       0.25000000       0.17857143 </v>
   <v>      -0.46428571       0.25000000       0.17857143 </v>
   <v>      -0.39285714       0.25000000       0.17857143 </v>
   <v>      -0.32142857       0.25000000       0.17857143 </v>
   <v>      -0.25000000       0.25000000       0.17857143 </v>
   <v>      -0.17857143       0.25000000       0.17857143 </v>
   <v>       0.32142857       0.32142857       0.17857143 </v>
   <v>       0.39285714       0.32142857       0.17857143 </v>
   <v>       0.46428571       0.32142857       0.17857143 </v>
   <v>      -0.46428571       0.32142857       0.17857143 </v>
   <v>      -0.39285714       0.32142857       0.17857143 </v>
   <v>      -0.32142857       0.32142857       0.17857143 </v>
   <v>      -0.25000000       0.32142857       0.17857143 </v>
   <v>      -0.17857143       0.32142857       0.17857143 </v>
   <v>       0.39285714       0.39285714       0.17857143 </v>
   <v>       0.46428571       0.39285714       0.17857143 </v>
   <v>      -0.46428571       0.39285714       0.17857143 </v>
   <v>      -0.39285714       0.39285714       0.17857143 </v>
   <v>      -0.32142857       0.39285714       0.17857143 </v>
   <v>      -0.25000000       0.39285714       0.17857143 </v>
   <v>      -0.17857143       0.39285714       0.17857143 </v>
   <v>       0.46428571       0.46428571       0.17857143 </v>
   <v>      -0.46428571       0.46428571       0.17857143 </v>
   <v>      -0.39285714       0.46428571       0.17857143 </v>
   <v>      -0.32142857       0.46428571       0.17857143 </v>
   <v>      -0.25000000       0.46428571       0.17857143 </v>
   <v>      -0.17857143       0.46428571       0.17857143 </v>
   <v>      -0.46428571      -0.46428571       0.17857143 </v>
   <v>      -0.39285714      -0.46428571       0.17857143 </v>
   <v>      -0.32142857      -0.46428571       0.17857143 </v>
   <v>      -0.25000000      -0.46428571       0.17857143 </v>
   <v>      -0.39285714      -0.39285714       0.17857143 </v>
   <v>      -0.32142857      -0.39285714       0.17857143 </v>
   <v>      -0.25000000      -0.39285714       0.17857143 </v>
   <v>      -0.32142857      -0.32142857       0.17857143 </v>
   <v>      -0.25000000      -0.32142857       0.17857143 </v>
   <v>      -0.25000000      -0.25000000       0.17857143 </v>
   <v>       0.25000000       0.25000000       0.25000000 </v>
   <v>       0.32142857       0.25000000       0.25000000 </v>
   <v>       0.39285714       0.25000000       0.25000000 </v>
   <v>       0.46428571       0.25000000       0.25000000 </v>
   <v>      -0.46428571       0.25000000       0.25000000 </v>
   <v>      -0.39285714       0.25000000       0.25000000 </v>
   <v>      -0.32142857       0.25000000       0.25000000 </v>
   <v>      -0.25000000       0.25000000       0.25000000 </v>
   <v>       0.32142857       0.32142857       0.25000000 </v>
   <v>       0.39285714       0.32142857       0.25000000 </v>
   <v>       0.46428571       0.32142857       0.25000000 </v>
   <v>      -0.46428571       0.32142857       0.25000000 </v>
   <v>      -0.39285714       0.32142857       0.25000000 </v>
   <v>      -0.32142857       0.32142857       0.25000000 </v>
   <v>      -0.25000000       0.32142857       0.25000000 </v>
   <v>       0.39285714       0.39285714       0.25000000 </v>
   <v>       0.46428571       0.39285714       0.25000000 </v>
   <v>      -0.46428571       0.39285714       0.25000000 </v>
   <v>      -0.39285714       0.39285714       0.25000000 </v>
   <v>      -0.32142857       0.39285714       0.25000000 </v>
   <v>      -0.25000000       0.39285714       0.25000000 </v>
   <v>       0.46428571       0.46428571       0.25000000 </v>
   <v>      -0.46428571       0.46428571       0.25000000 </v>
   <v>      -0.39285714       0.46428571       0.25000000 </v>
   <v>      -0.32142857       0.46428571       0.25000000 </v>
   <v>      -0.25000000       0.46428571       0.25000000 </v>
   <v>      -0.46428571      -0.46428571       0.25000000 </v>
   <v>      -0.39285714      -0.46428571       0.25000000 </v>
   <v>      -0.32142857      -0.46428571       0.25000000 </v>
   <v>      -0.39285714      -0.39285714       0.25000000 </v>
   <v>      -0.32142857      -0.39285714       0.25000000 </v>
   <v>      -0.32142857      -0.32142857       0.25000000 </v>
   <v>       0.32142857       0.32142857       0.32142857 </v>
   <v>       0.39285714       0.32142857       0.32142857 </v>
   <v>       0.46428571       0.32142857       0.32142857 </v>
   <v>      -0.46428571       0.32142857       0.32142857 </v>
   <v>      -0.39285714       0.32142857       0.32142857 </v>
   <v>      -0.32142857       0.32142857       0.32142857 </v>
   <v>       0.39285714       0.39285714       0.32142857 </v>
   <v>       0.46428571       0.39285714       0.32142857 </v>
   <v>      -0.46428571       0.39285714       0.32142857 </v>
   <v>      -0.39285714       0.39285714       0.32142857 </v>
   <v>      -0.32142857       0.39285714       0.32142857 </v>
   <v>       0.46428571       0.46428571       0.32142857 </v>
   <v>      -0.46428571       0.46428571       0.32142857 </v>
   <v>      -0.39285714       0.46428571       0.32142857 </v>
   <v>      -0.32142857       0.46428571       0.32142857 </v>
   <v>      -0.46428571      -0.46428571       0.32142857 </v>
   <v>      -0.39285714      -0.46428571       0.32142857 </v>
   <v>      -0.39285714      -0.39285714       0.32142857 </v>
   <v>       0.39285714       0.39285714       0.39285714 </v>
   <v>       0.46428571       0.39285714       0.39285714 </v>
   <v>      -0.46428571       0.39285714       0.39285714 </v>
   <v>      -0.39285714       0.39285714       0.39285714 </v>
   <v>       0.46428571       0.46428571       0.39285714 </v>
   <v>      -0.46428571       0.46428571       0.39285714 </v>
   <v>      -0.39285714       0.46428571       0.39285714 </v>
   <v>      -0.46428571      -0.46428571       0.39285714 </v>
   <v>       0.46428571       0.46428571       0.46428571 </v>
   <v>      -0.46428571       0.46428571       0.46428571 </v>
  </varray>
  <varray name="weights" >
   <v>       0.00072886 </v>
   <v>       0.00218659 </v>
   <v>       0.00218659 </v>
   <v>       0.00218659 </v>
   <v>       0.00218659 </v>
   <v>       0.00218659 </v>
   <v>       0.00218659 </v>
   <v>       0.00218659 </v>
   <v>       0.00218659 </v>
   <v>       0.00218659 </v>
   <v>       0.00218659 </v>
   <v>       0.00218659 </v>
   <v>       0.00218659 </v>
   <v>       0.00218659 </v>
   <v>       0.00218659 </v>
   <v>       0.00437318 </v>
   <v>       0.00437318 </v>
   <v>       0.00437318 </v>
   <v>       0.00437318 </v>
   <v>       0.00437318 </v>
   <v>       0.00437318 </v>
   <v>       0.00437318 </v>
   <v>       0.00437318 </v>
   <v>       0.00437318 </v>
   <v>       0.00437318 </v>
   <v>       0.00437318 </v>
   <v>       0.00437318 </v>
   <v>       0.00218659 </v>
   <v>       0.00437318 </v>
   <v>       0.00437318 </v>
   <v>       0.00437318 </v>
   <v>       0.00437318 </v>
   <v>       0.00437318 </v>
   <v>       0.00437318 </v>
   <v>       0.00437318 </v>
   <v>       0.00437318 </v>
   <v>       0.00437318 </v>
   <v>       0.00437318 </v>
   <v>       0.00437318 </v>
   <v>       0.00218659 </v>
   <v>       0.00437318 </v>
   <v>       0.00437318 </v>
   <v>       0.00437318 </v>
   <v>       0.00437318 </v>
   <v>       0.00437318 </v>
   <v>       0.00437318 </v>
   <v>       0.00437318 </v>
   <v>       0.00437318 </v>
   <v>       0.00437318 </v>
   <v>       0.00437318 </v>
   <v>       0.00218659 </v>
   <v>       0.00437318 </v>
   <v>       0.00437318 </v>
   <v>       0.00437318 </v>
   <v>       0.00437318 </v>
   <v>       0.00437318 </v>
   <v>       0.00437318 </v>
   <v>       0.00437318 </v>
   <v>       0.00437318 </v>
   <v>       0.00437318 </v>
   <v>       0.00218659 </v>
   <v>       0.00437318 </v>
   <v>       0.00437318 </v>
   <v>       0.00437318 </v>
   <v>       0.00437318 </v>
   <v>       0.00437318 </v>
   <v>       0.00437318 </v>
   <v>       0.00437318 </v>
   <v>       0.00437318 </v>
   <v>       0.00218659 </v>
   <v>       0.00437318 </v>
   <v>       0.00437318 </v>
   <v>       0.00437318 </v>
   <v>       0.00437318 </v>
   <v>       0.00437318 </v>
   <v>       0.00437318 </v>
   <v>       0.00437318 </v>
   <v>       0.00218659 </v>
   <v>       0.00437318 </v>
   <v>       0.00437318 </v>
   <v>       0.00437318 </v>
   <v>       0.00437318 </v>
   <v>       0.00437318 </v>
   <v>       0.00218659 </v>
   <v>       0.00437318 </v>
   <v>       0.00437318 </v>
   <v>       0.00437318 </v>
   <v>       0.00437318 </v>
   <v>       0.00218659 </v>
   <v>       0.00437318 </v>
   <v>       0.00437318 </v>
   <v>       0.00437318 </v>
   <v>       0.00218659 </v>
   <v>       0.00437318 </v>
   <v>       0.00437318 </v>
   <v>       0.00218659 </v>
   <v>       0.00437318 </v>
   <v>       0.00218659 </v>
   <v>       0.00072886 </v>
   <v>       0.00218659 </v>
   <v>       0.00218659 </v>
   <v>       0.00218659 </v>
   <v>       0.00218659 </v>
   <v>       0.00218659 </v>
   <v>       0.00218659 </v>
   <v>       0.00218659 </v>
   <v>       0.00218659 </v>
   <v>       0.00218659 </v>
   <v>       0.00218659 </v>
   <v>       0.00218659 </v>
   <v>       0.00218659 </v>
   <v>       0.00437318 </v>
   <v>       0.00437318 </v>
   <v>       0.00437318 </v>
   <v>       0.00437318 </v>
   <v>       0.00437318 </v>
   <v>       0.00437318 </v>
   <v>       0.00437318 </v>
   <v>       0.00437318 </v>
   <v>       0.00437318 </v>
   <v>       0.00437318 </v>
   <v>       0.00218659 </v>
   <v>       0.00437318 </v>
   <v>       0.00437318 </v>
   <v>       0.00437318 </v>
   <v>       0.00437318 </v>
   <v>       0.00437318 </v>
   <v>       0.00437318 </v>
   <v>       0.00437318 </v>
   <v>       0.00437318 </v>
   <v>       0.00437318 </v>
   <v>       0.00218659 </v>
   <v>       0.00437318 </v>
   <v>       0.00437318 </v>
   <v>       0.00437318 </v>
   <v>       0.00437318 </v>
   <v>       0.00437318 </v>
   <v>       0.00437318 </v>
   <v>       0.00437318 </v>
   <v>       0.00437318 </v>
   <v>       0.00218659 </v>
   <v>       0.00437318 </v>
   <v>       0.00437318 </v>
   <v>       0.00437318 </v>
   <v>       0.00437318 </v>
   <v>       0.00437318 </v>
   <v>       0.00437318 </v>
   <v>       0.00437318 </v>
   <v>       0.00218659 </v>
   <v>       0.00437318 </v>
   <v>       0.00437318 </v>
   <v>       0.00437318 </v>
   <v>       0.00437318 </v>
   <v>       0.00437318 </v>
   <v>       0.00437318 </v>
   <v>       0.00218659 </v>
   <v>       0.00437318 </v>
   <v>       0.00437318 </v>
   <v>       0.00437318 </v>
   <v>       0.00437318 </v>
   <v>       0.00218659 </v>
   <v>       0.00437318 </v>
   <v>       0.00437318 </v>
   <v>       0.00437318 </v>
   <v>       0.00218659 </v>
   <v>       0.00437318 </v>
   <v>       0.00437318 </v>
   <v>       0.00218659 </v>
   <v>       0.00437318 </v>
   <v>       0.00218659 </v>
   <v>       0.00072886 </v>
   <v>       0.00218659 </v>
   <v>       0.00218659 </v>
   <v>       0.00218659 </v>
   <v>       0.00218659 </v>
   <v>       0.00218659 </v>
   <v>       0.00218659 </v>
   <v>       0.00218659 </v>
   <v>       0.00218659 </v>
   <v>       0.00218659 </v>
   <v>       0.00218659 </v>
   <v>       0.00437318 </v>
   <v>       0.00437318 </v>
   <v>       0.00437318 </v>
   <v>       0.00437318 </v>
   <v>       0.00437318 </v>
   <v>       0.00437318 </v>
   <v>       0.00437318 </v>
   <v>       0.00437318 </v>
   <v>       0.00218659 </v>
   <v>       0.00437318 </v>
   <v>       0.00437318 </v>
   <v>       0.00437318 </v>
   <v>       0.00437318 </v>
   <v>       0.00437318 </v>
   <v>       0.00437318 </v>
   <v>       0.00437318 </v>
   <v>       0.00218659 </v>
   <v>       0.00437318 </v>
   <v>       0.00437318 </v>
   <v>       0.00437318 </v>
   <v>       0.00437318 </v>
   <v>       0.00437318 </v>
   <v>       0.00437318 </v>
   <v>       0.00218659 </v>
   <v>       0.00437318 </v>
   <v>       0.00437318 </v>
   <v>       0.00437318 </v>
   <v>       0.00437318 </v>
   <v>       0.00437318 </v>
   <v>       0.00218659 </v>
   <v>       0.00437318 </v>
   <v>       0.00437318 </v>
   <v>       0.00437318 </v>
   <v>       0.00218659 </v>
   <v>       0.00437318 </v>
   <v>       0.00437318 </v>
   <v>       0.00218659 </v>
   <v>       0.00437318 </v>
   <v>       0.00218659 </v>
   <v>       0.00072886 </v>
   <v>       0.00218659 </v>
   <v>       0.00218659 </v>
   <v>       0.00218659 </v>
   <v>       0.00218659 </v>
   <v>       0.00218659 </v>
   <v>       0.00218659 </v>
   <v>       0.00218659 </v>
   <v>       0.00218659 </v>
   <v>       0.00437318 </v>
   <v>       0.00437318 </v>
   <v>       0.00437318 </v>
   <v>       0.00437318 </v>
   <v>       0.00437318 </v>
   <v>       0.00437318 </v>
   <v>       0.00218659 </v>
   <v>       0.00437318 </v>
   <v>       0.00437318 </v>
   <v>       0.00437318 </v>
   <v>       0.00437318 </v>
   <v>       0.00437318 </v>
   <v>       0.00218659 </v>
   <v>       0.00437318 </v>
   <v>       0.00437318 </v>
   <v>       0.00437318 </v>
   <v>       0.00437318 </v>
   <v>       0.00218659 </v>
   <v>       0.00437318 </v>
   <v>       0.00437318 </v>
   <v>       0.00218659 </v>
   <v>       0.00437318 </v>
   <v>       0.00218659 </v>
   <v>       0.00072886 </v>
   <v>       0.00218659 </v>
   <v>       0.00218659 </v>
   <v>       0.00218659 </v>
   <v>       0.00218659 </v>
   <v>       0.00218659 </v>
   <v>       0.00218659 </v>
   <v>       0.00437318 </v>
   <v>       0.00437318 </v>
   <v>       0.00437318 </v>
   <v>       0.00437318 </v>
   <v>       0.00218659 </v>
   <v>       0.00437318 </v>
   <v>       0.00437318 </v>
   <v>       0.00437318 </v>
   <v>       0.00218659 </v>
   <v>       0.00437318 </v>
   <v>       0.00218659 </v>
   <v>       0.00072886 </v>
   <v>       0.00218659 </v>
   <v>       0.00218659 </v>
   <v>       0.00218659 </v>
   <v>       0.00218659 </v>
   <v>       0.00437318 </v>
   <v>       0.00437318 </v>
   <v>       0.00218659 </v>
   <v>       0.00072886 </v>
   <v>       0.00218659 </v>
  </varray>
 </kpoints>
 <parameters>
  <separator name="general" >
   <i type="string" name="SYSTEM">unknown system</i>
   <i type="logical" name="LCOMPAT"> F  </i>
  </separator>
  <separator name="electronic" >
   <i type="string" name="PREC">high</i>
   <i name="ENMAX">    875.00000000</i>
   <i name="ENAUG">    946.76800000</i>
   <i name="EDIFF">      0.00000001</i>
   <i type="int" name="IALGO">    38</i>
   <i type="int" name="IWAVPR">    11</i>
   <i type="int" name="NBANDS">    24</i>
   <i name="NELECT">     32.00000000</i>
   <i type="int" name="TURBO">     0</i>
   <i type="int" name="IRESTART">     0</i>
   <i type="int" name="NREBOOT">     0</i>
   <i type="int" name="NMIN">     0</i>
   <i name="EREF">      0.00000000</i>
   <separator name="electronic smearing" >
    <i type="int" name="ISMEAR">     0</i>
    <i name="SIGMA">      0.05000000</i>
    <i name="KSPACING">      0.50000000</i>
    <i type="logical" name="KGAMMA"> T  </i>
   </separator>
   <separator name="electronic projectors" >
    <i type="logical" name="LREAL"> F  </i>
    <v name="ROPT">      0.00000000</v>
    <i type="int" name="LMAXPAW">  -100</i>
    <i type="int" name="LMAXMIX">     2</i>
    <i type="logical" name="NLSPLINE"> F  </i>
   </separator>
   <separator name="electronic startup" >
    <i type="int" name="ISTART">     0</i>
    <i type="int" name="ICHARG">     2</i>
    <i type="int" name="INIWAV">     1</i>
   </separator>
   <separator name="electronic spin" >
    <i type="int" name="ISPIN">     1</i>
    <i type="logical" name="LNONCOLLINEAR"> F  </i>
    <v name="MAGMOM">      1.00000000      1.00000000      1.00000000      1.00000000      1.00000000      1.00000000      1.00000000      1.00000000</v>
    <i name="NUPDOWN">     -1.00000000</i>
    <i type="logical" name="LSORBIT"> F  </i>
    <v name="SAXIS">      0.00000000      0.00000000      1.00000000</v>
    <i type="logical" name="LSPIRAL"> F  </i>
    <v name="QSPIRAL">      0.00000000      0.00000000      0.00000000</v>
    <i type="logical" name="LZEROZ"> F  </i>
   </separator>
   <separator name="electronic exchange-correlation" >
    <i type="logical" name="LASPH"> F  </i>
    <i type="logical" name="LMETAGGA"> F  </i>
   </separator>
   <separator name="electronic convergence" >
    <i type="int" name="NELM">    40</i>
    <i type="int" name="NELMDL">    -5</i>
    <i type="int" name="NELMIN">     4</i>
    <i name="ENINI">    875.00000000</i>
    <separator name="electronic convergence detail" >
     <i type="logical" name="LDIAG"> T  </i>
     <i type="logical" name="LSUBROT"> F  </i>
     <i name="WEIMIN">      0.00100000</i>
     <i name="EBREAK">      0.00000000</i>
     <i name="DEPER">      0.30000000</i>
     <i type="int" name="NRMM">     4</i>
     <i name="TIME">      0.40000000</i>
    </separator>
   </separator>
   <separator name="electronic mixer" >
    <i name="AMIX">      0.40000000</i>
    <i name="BMIX">      1.00000000</i>
    <i name="AMIN">      0.10000000</i>
    <i name="AMIX_MAG">      1.60000000</i>
    <i name="BMIX_MAG">      1.00000000</i>
    <separator name="electronic mixer details" >
     <i type="int" name="IMIX">     4</i>
     <i type="logical" name="MIXFIRST"> F  </i>
     <i type="int" name="MAXMIX">   -45</i>
     <i name="WC">    100.00000000</i>
     <i type="int" name="INIMIX">     1</i>
     <i type="int" name="MIXPRE">     1</i>
     <i type="int" name="MREMOVE">     5</i>
    </separator>
   </separator>
   <separator name="electronic dipolcorrection" >
    <i type="logical" name="LDIPOL"> F  </i>
    <i type="logical" name="LMONO"> F  </i>
    <i type="int" name="IDIPOL">     0</i>
    <i name="EPSILON">      1.00000000</i>
    <v name="DIPOL">   -100.00000000   -100.00000000   -100.00000000</v>
    <i name="EFIELD">      0.00000000</i>
   </separator>
  </separator>
  <separator name="grids" >
   <i type="int" name="NGX">    36</i>
   <i type="int" name="NGY">    36</i>
   <i type="int" name="NGZ">    36</i>
   <i type="int" name="NGXF">    48</i>
   <i type="int" name="NGYF">    48</i>
   <i type="int" name="NGZF">    48</i>
   <i type="logical" name="ADDGRID"> T  </i>
  </separator>
  <separator name="ionic" >
   <i type="int" name="NSW">   100</i>
   <i type="int" name="IBRION">     2</i>
   <i type="int" name="MDALGO">     0</i>
   <i type="int" name="ISIF">     2</i>
   <i name="PSTRESS">      0.00000000</i>
   <i name="EDIFFG">     -0.01000000</i>
   <i type="int" name="NFREE">     1</i>
   <i name="POTIM">      0.50000000</i>
   <i name="SMASS">     -3.00000000</i>
   <i name="SCALEE">      1.00000000</i>
  </separator>
  <separator name="ionic md" >
   <i name="TEBEG">      0.00010000</i>
   <i name="TEEND">      0.00010000</i>
   <i type="int" name="NBLOCK">     1</i>
   <i type="int" name="KBLOCK">   100</i>
   <i type="int" name="NPACO">   256</i>
   <i name="APACO">     16.00000000</i>
  </separator>
  <separator name="symmetry" >
   <i type="int" name="ISYM">     2</i>
   <i name="SYMPREC">      0.00001000</i>
  </separator>
  <separator name="dos" >
   <i type="int" name="LORBIT">     0</i>
   <v name="RWIGS">     -1.00000000</v>
   <i type="int" name="NEDOS">   301</i>
   <i name="EMIN">     10.00000000</i>
   <i name="EMAX">    -10.00000000</i>
   <i name="EFERMI">      0.00000000</i>
  </separator>
  <separator name="writing" >
   <i type="int" name="NWRITE">     2</i>
   <i type="logical" name="LWAVE"> F  </i>
   <i type="logical" name="LDOWNSAMPLE"> F  </i>
   <i type="logical" name="LCHARG"> F  </i>
   <i type="logical" name="LPARD"> F  </i>
   <i type="logical" name="LVTOT"> F  </i>
   <i type="logical" name="LVHAR"> F  </i>
   <i type="logical" name="LELF"> F  </i>
   <i type="logical" name="LOPTICS"> F  </i>
   <v name="STM">      0.00000000      0.00000000      0.00000000      0.00000000      0.00000000      0.00000000      0.00000000</v>
  </separator>
  <separator name="performance" >
   <i type="int" name="NPAR">    24</i>
   <i type="int" name="NSIM">     4</i>
   <i type="int" name="NBLK">    -1</i>
   <i type="logical" name="LPLANE"> T  </i>
   <i type="logical" name="LSCALAPACK"> T  </i>
   <i type="logical" name="LSCAAWARE"> F  </i>
   <i type="logical" name="LSCALU"> F  </i>
   <i type="logical" name="LASYNC"> F  </i>
   <i type="logical" name="LORBITALREAL"> F  </i>
  </separator>
  <separator name="miscellaneous" >
   <i type="int" name="IDIOT">     3</i>
   <i type="int" name="ISPECIAL">     0</i>
   <i type="logical" name="LMUSIC"> F  </i>
   <v name="POMASS">     12.01100000</v>
   <v name="DARWINR">      0.00000000</v>
   <v name="DARWINV">      1.00000000</v>
   <i type="logical" name="LCORR"> T  </i>
  </separator>
  <i type="logical" name="GGA_COMPAT"> T  </i>
  <i type="logical" name="LBERRY"> F  </i>
  <i type="int" name="ICORELEVEL">     0</i>
  <i type="logical" name="LDAU"> F  </i>
  <i type="int" name="I_CONSTRAINED_M">     0</i>
  <separator name="electronic exchange-correlation" >
   <i type="string" name="GGA">--</i>
   <i type="int" name="VOSKOWN">     0</i>
   <i type="logical" name="LHFCALC"> F  </i>
   <i type="string" name="PRECFOCK"></i>
   <i type="logical" name="LSYMGRAD"> F  </i>
   <i type="logical" name="LHFONE"> F  </i>
   <i type="logical" name="LRHFCALC"> F  </i>
   <i type="logical" name="LTHOMAS"> F  </i>
   <i type="logical" name="LMODELHF"> F  </i>
   <i name="ENCUT4O">     -1.00000000</i>
   <i type="int" name="EXXOEP">     0</i>
   <i type="int" name="FOURORBIT">     0</i>
   <i name="AEXX">      0.00000000</i>
   <i name="HFALPHA">      0.00000000</i>
   <i name="MCALPHA">      0.00000000</i>
   <i name="ALDAX">      1.00000000</i>
   <i name="AGGAX">      1.00000000</i>
   <i name="ALDAC">      1.00000000</i>
   <i name="AGGAC">      1.00000000</i>
   <i type="int" name="NKREDX">     1</i>
   <i type="int" name="NKREDY">     1</i>
   <i type="int" name="NKREDZ">     1</i>
   <i type="logical" name="SHIFTRED"> F  </i>
   <i type="logical" name="ODDONLY"> F  </i>
   <i type="logical" name="EVENONLY"> F  </i>
   <i type="int" name="LMAXFOCK">     0</i>
   <i type="int" name="NMAXFOCKAE">     0</i>
   <i type="logical" name="LFOCKAEDFT"> F  </i>
   <i name="HFSCREEN">      0.00000000</i>
   <i name="HFSCREENC">      0.00000000</i>
   <i type="int" name="NBANDSGWLOW">     0</i>
  </separator>
  <separator name="vdW DFT" >
   <i type="logical" name="LUSE_VDW"> F  </i>
   <i name="Zab_VDW">     -0.84910000</i>
   <i name="PARAM1">      0.12340000</i>
   <i name="PARAM2">      1.00000000</i>
   <i name="PARAM3">      0.00000000</i>
  </separator>
  <separator name="model GW" >
   <i type="int" name="MODEL_GW">     0</i>
   <i name="MODEL_EPS0">      3.42253776</i>
   <i name="MODEL_ALPHA">      1.00000000</i>
  </separator>
  <separator name="linear response parameters" >
   <i type="logical" name="LEPSILON"> F  </i>
   <i type="logical" name="LRPA"> F  </i>
   <i type="logical" name="LNABLA"> F  </i>
   <i type="logical" name="LVEL"> F  </i>
   <i type="int" name="KINTER">     0</i>
   <i name="CSHIFT">      0.10000000</i>
   <i name="OMEGAMAX">     -1.00000000</i>
   <i name="DEG_THRESHOLD">      0.00200000</i>
   <i name="RTIME">     -0.10000000</i>
   <i name="WPLASMAI">      0.00000000</i>
   <v name="DFIELD">      0.00000000      0.00000000      0.00000000</v>
   <v name="WPLASMA">      0.00000000      0.00000000      0.00000000      0.00000000      0.00000000      0.00000000      0.00000000      0.00000000      0.00000000</v>
  </separator>
  <separator name="orbital magnetization" >
   <i type="logical" name="NUCIND"> F  </i>
   <v name="MAGPOS">      0.00000000      0.00000000      0.00000000</v>
   <i type="logical" name="LNICSALL"> T  </i>
   <i type="logical" name="ORBITALMAG"> F  </i>
   <i type="logical" name="LMAGBLOCH"> F  </i>
   <i type="logical" name="LCHIMAG"> F  </i>
   <i type="logical" name="LGAUGE"> T  </i>
   <i type="int" name="MAGATOM">     0</i>
   <v name="MAGDIPOL">      0.00000000      0.00000000      0.00000000</v>
   <v name="AVECCONST">      0.00000000      0.00000000      0.00000000</v>
  </separator>
  <separator name="response functions" >
   <i type="logical" name="LADDER"> F  </i>
   <i type="logical" name="LRPAFORCE"> F  </i>
   <i type="logical" name="LFXC"> F  </i>
   <i type="logical" name="LHARTREE"> T  </i>
   <i type="int" name="IBSE">     0</i>
   <v type="int" name="KPOINT">    -1     0     0     0</v>
   <i type="logical" name="LTCTE"> F  </i>
   <i type="logical" name="LTETE"> F  </i>
   <i type="logical" name="LTRIPLET"> F  </i>
   <i type="logical" name="LFXCEPS"> F  </i>
   <i type="logical" name="LFXHEG"> F  </i>
   <i type="int" name="NATURALO">     2</i>
   <i type="logical" name="L2ORDER"> F  </i>
   <i type="logical" name="LMP2LT"> F  </i>
   <i type="logical" name="LUSEW"> F  </i>
   <i name="ENCUTGW">     -2.00000000</i>
   <i name="ENCUTGWSOFT">     -2.00000000</i>
   <i name="ENCUTLF">     -1.00000000</i>
   <i type="int" name="LMAXMP2">    -1</i>
   <i name="SCISSOR">      0.00000000</i>
   <i type="int" name="NOMEGA">     0</i>
   <i type="int" name="NOMEGAR">     0</i>
   <i type="int" name="NBANDSGW">    -1</i>
   <i type="int" name="NBANDSO">    -1</i>
   <i type="int" name="NBANDSV">    -1</i>
   <i type="int" name="NELM">    40</i>
   <i type="int" name="NELMHF">     1</i>
   <i type="int" name="DIM">     3</i>
   <i type="int" name="ANTIRES">     0</i>
   <i name="OMEGAMAX">    -30.00000000</i>
   <i name="OMEGAMIN">    -30.00000000</i>
   <i name="OMEGATL">   -200.00000000</i>
   <i type="int" name="OMEGAGRID">   140</i>
   <i name="CSHIFT">     -0.10000000</i>
   <i type="logical" name="SELFENERGY"> F  </i>
   <i type="logical" name="LSPECTRAL"> F  </i>
   <i type="logical" name="LSPECTRALGW"> F  </i>
   <i type="logical" name="LSINGLES"> F  </i>
   <i type="logical" name="LFERMIGW"> F  </i>
   <i type="logical" name="ODDONLYGW"> F  </i>
   <i type="logical" name="EVENONLYGW"> F  </i>
   <i type="int" name="NKREDLFX">     1</i>
   <i type="int" name="NKREDLFY">     1</i>
   <i type="int" name="NKREDLFZ">     1</i>
   <i type="int" name="MAXMEM">  2800</i>
   <i type="int" name="TELESCOPE">     0</i>
   <i type="int" name="TAUPAR">     1</i>
   <i type="int" name="OMEGAPAR">    -1</i>
   <i name="LAMBDA">      1.00000000</i>
  </separator>
  <separator name="External order field" >
   <i name="OFIELD_KAPPA">      0.00000000</i>
   <v name="OFIELD_K">      0.00000000      0.00000000      0.00000000</v>
   <i name="OFIELD_Q6_NEAR">      0.00000000</i>
   <i name="OFIELD_Q6_FAR">      0.00000000</i>
   <i name="OFIELD_A">      0.00000000</i>
  </separator>
 </parameters>
 <atominfo>
  <atoms>       8 </atoms>
  <types>       1 </types>
  <array name="atoms" >
   <dimension dim="1">ion</dimension>
   <field type="string">element</field>
   <field type="int">atomtype</field>
   <set>
    <rc><c>C </c><c>   1</c></rc>
    <rc><c>C </c><c>   1</c></rc>
    <rc><c>C </c><c>   1</c></rc>
    <rc><c>C </c><c>   1</c></rc>
    <rc><c>C </c><c>   1</c></rc>
    <rc><c>C </c><c>   1</c></rc>
    <rc><c>C </c><c>   1</c></rc>
    <rc><c>C </c><c>   1</c></rc>
   </set>
  </array>
  <array name="atomtypes" >
   <dimension dim="1">type</dimension>
   <field type="int">atomspertype</field>
   <field type="string">element</field>
   <field>mass</field>
   <field>valence</field>
   <field type="string">pseudopotential</field>
   <set>
    <rc><c>   8</c><c>C </c><c>     12.01100000</c><c>      4.00000000</c><c>  PAW_PBE C_h 06Feb2004                 </c></rc>
   </set>
  </array>
 </atominfo>
 <structure name="initialpos" >
  <crystal>
   <varray name="basis" >
    <v>       3.57360507      -0.01786803      -0.01786803 </v>
    <v>      -0.01786803       3.57360507      -0.01786803 </v>
    <v>      -0.01786803      -0.01786803       3.57360507 </v>
   </varray>
   <i name="volume">     45.63383684 </i>
   <varray name="rec_basis" >
    <v>       0.27984353       0.00140625       0.00140625 </v>
    <v>       0.00140625       0.27984353       0.00140625 </v>
    <v>       0.00140625       0.00140625       0.27984353 </v>
   </varray>
  </crystal>
  <varray name="positions" >
   <v>       0.25000000       0.25000000       0.25000000 </v>
   <v>       0.00000000       0.00000000       0.00000000 </v>
   <v>       0.25000000       0.75000000       0.75000000 </v>
   <v>       0.00000000       0.50000000       0.50000000 </v>
   <v>       0.75000000       0.25000000       0.75000000 </v>
   <v>       0.50000000       0.00000000       0.50000000 </v>
   <v>       0.75000000       0.75000000       0.25000000 </v>
   <v>       0.50000000       0.50000000       0.00000000 </v>
  </varray>
 </structure>
 <calculation>
  <scstep>
   <time name="dav">    4.45    5.59</time>
   <time name="total">    4.59    6.00</time>
   <energy>
    <i name="alphaZ">     76.88434413 </i>
    <i name="ewald">  -1389.14186215 </i>
    <i name="hartreedc">    -70.50932340 </i>
    <i name="XCdc">     62.04635520 </i>
    <i name="pawpsdc">    914.77613359 </i>
    <i name="pawaedc">   -872.73161751 </i>
    <i name="eentropy">     -0.00055897 </i>
    <i name="bandstr">    201.91510978 </i>
    <i name="atom">   1177.21277265 </i>
    <i name="e_fr_energy">    100.45135333 </i>
    <i name="e_wo_entrp">    100.45191230 </i>
    <i name="e_0_energy">    100.45163282 </i>
   </energy>
  </scstep>
  <scstep>
   <time name="dav">    7.61    7.70</time>
   <time name="total">    7.61    7.70</time>
   <energy>
    <i name="e_fr_energy">    -72.46738591 </i>
    <i name="e_wo_entrp">    -72.46738591 </i>
    <i name="e_0_energy">    -72.46738591 </i>
   </energy>
  </scstep>
  <scstep>
   <time name="dav">    5.07    5.10</time>
   <time name="total">    5.07    5.10</time>
   <energy>
    <i name="e_fr_energy">    -75.24403979 </i>
    <i name="e_wo_entrp">    -75.24403979 </i>
    <i name="e_0_energy">    -75.24403979 </i>
   </energy>
  </scstep>
  <scstep>
   <time name="dav">    9.69    9.73</time>
   <time name="total">    9.70    9.73</time>
   <energy>
    <i name="e_fr_energy">    -75.26385002 </i>
    <i name="e_wo_entrp">    -75.26385002 </i>
    <i name="e_0_energy">    -75.26385002 </i>
   </energy>
  </scstep>
  <scstep>
   <time name="dav">    4.97    4.99</time>
   <time name="total">    5.19    5.49</time>
   <energy>
    <i name="e_fr_energy">    -75.26385247 </i>
    <i name="e_wo_entrp">    -75.26385247 </i>
    <i name="e_0_energy">    -75.26385247 </i>
   </energy>
  </scstep>
  <scstep>
   <time name="dav">    5.48    5.49</time>
   <time name="total">    5.70    6.02</time>
   <energy>
    <i name="e_fr_energy">    -73.43461964 </i>
    <i name="e_wo_entrp">    -73.43461964 </i>
    <i name="e_0_energy">    -73.43461964 </i>
   </energy>
  </scstep>
  <scstep>
   <time name="dav">    7.00    7.01</time>
   <time name="total">    7.22    7.25</time>
   <energy>
    <i name="e_fr_energy">    -72.82233605 </i>
    <i name="e_wo_entrp">    -72.82233605 </i>
    <i name="e_0_energy">    -72.82233605 </i>
   </energy>
  </scstep>
  <scstep>
   <time name="dav">    7.69    7.72</time>
   <time name="total">    7.93    8.03</time>
   <energy>
    <i name="e_fr_energy">    -72.82068875 </i>
    <i name="e_wo_entrp">    -72.82068875 </i>
    <i name="e_0_energy">    -72.82068875 </i>
   </energy>
  </scstep>
  <scstep>
   <time name="dav">    7.22    7.24</time>
   <time name="total">    7.44    7.47</time>
   <energy>
    <i name="e_fr_energy">    -72.82086926 </i>
    <i name="e_wo_entrp">    -72.82086926 </i>
    <i name="e_0_energy">    -72.82086926 </i>
   </energy>
  </scstep>
  <scstep>
   <time name="dav">    7.31    7.32</time>
   <time name="total">    7.53    7.56</time>
   <energy>
    <i name="e_fr_energy">    -72.82099245 </i>
    <i name="e_wo_entrp">    -72.82099245 </i>
    <i name="e_0_energy">    -72.82099245 </i>
   </energy>
  </scstep>
  <scstep>
   <time name="dav">    7.86    7.88</time>
   <time name="total">    8.09    8.12</time>
   <energy>
    <i name="e_fr_energy">    -72.82099341 </i>
    <i name="e_wo_entrp">    -72.82099341 </i>
    <i name="e_0_energy">    -72.82099341 </i>
   </energy>
  </scstep>
  <scstep>
   <time name="dav">    7.34    7.35</time>
   <time name="total">    7.56    7.59</time>
   <energy>
    <i name="e_fr_energy">    -72.82099379 </i>
    <i name="e_wo_entrp">    -72.82099379 </i>
    <i name="e_0_energy">    -72.82099379 </i>
   </energy>
  </scstep>
  <scstep>
   <time name="dav">    7.76    7.77</time>
   <time name="total">    7.77    7.80</time>
   <energy>
    <i name="alphaZ">     76.88434413 </i>
    <i name="ewald">  -1389.14186215 </i>
    <i name="hartreedc">   -105.63039379 </i>
    <i name="XCdc">     65.07105352 </i>
    <i name="pawpsdc">  14461.69631676 </i>
    <i name="pawaedc"> -14420.16782554 </i>
    <i name="eentropy">     -0.00000000 </i>
    <i name="bandstr">     61.25460062 </i>
    <i name="atom">   1177.21277265 </i>
    <i name="e_fr_energy">    -72.82099379 </i>
    <i name="e_wo_entrp">    -72.82099379 </i>
    <i name="e_0_energy">    -72.82099379 </i>
   </energy>
  </scstep>
  <structure>
   <crystal>
    <varray name="basis" >
     <v>       3.57360507      -0.01786803      -0.01786803 </v>
     <v>      -0.01786803       3.57360507      -0.01786803 </v>
     <v>      -0.01786803      -0.01786803       3.57360507 </v>
    </varray>
    <i name="volume">     45.63383684 </i>
    <varray name="rec_basis" >
     <v>       0.27984353       0.00140625       0.00140625 </v>
     <v>       0.00140625       0.27984353       0.00140625 </v>
     <v>       0.00140625       0.00140625       0.27984353 </v>
    </varray>
   </crystal>
   <varray name="positions" >
    <v>       0.25000000       0.25000000       0.25000000 </v>
    <v>       0.00000000       0.00000000       0.00000000 </v>
    <v>       0.25000000       0.75000000       0.75000000 </v>
    <v>       0.00000000       0.50000000       0.50000000 </v>
    <v>       0.75000000       0.25000000       0.75000000 </v>
    <v>       0.50000000       0.00000000       0.50000000 </v>
    <v>       0.75000000       0.75000000       0.25000000 </v>
    <v>       0.50000000       0.50000000       0.00000000 </v>
   </varray>
  </structure>
  <varray name="forces" >
   <v>       0.03360829       0.03360829       0.03360829 </v>
   <v>      -0.03360829      -0.03360829      -0.03360829 </v>
   <v>       0.03360829       0.03360829       0.03360829 </v>
   <v>      -0.03360829      -0.03360829      -0.03360829 </v>
   <v>       0.03360829       0.03360829       0.03360829 </v>
   <v>      -0.03360829      -0.03360829      -0.03360829 </v>
   <v>       0.03360829       0.03360829       0.03360829 </v>
   <v>      -0.03360829      -0.03360829      -0.03360829 </v>
  </varray>
  <varray name="stress" >
   <v>     -12.06726279      56.47022128      56.47022128 </v>
   <v>      56.47022128     -12.06726279      56.47022128 </v>
   <v>      56.47022128      56.47022128     -12.06726279 </v>
  </varray>
  <energy>
   <i name="e_fr_energy">    -72.82099379 </i>
   <i name="e_wo_entrp">    -72.82099379 </i>
   <i name="e_0_energy">     -0.00000000 </i>
  </energy>
  <time name="totalsc">   96.85  100.26</time>
 </calculation>
 <calculation>
  <scstep>
   <time name="dav">    5.96    5.98</time>
   <time name="total">    6.18    6.21</time>
   <energy>
    <i name="alphaZ">     76.88434413 </i>
    <i name="ewald">  -1389.20723540 </i>
    <i name="hartreedc">   -105.59881165 </i>
    <i name="XCdc">     65.06929629 </i>
    <i name="pawpsdc">  14461.74702623 </i>
    <i name="pawaedc"> -14420.21853442 </i>
    <i name="eentropy">     -0.00000000 </i>
    <i name="bandstr">     61.29131558 </i>
    <i name="atom">   1177.21277265 </i>
    <i name="e_fr_energy">    -72.81982657 </i>
    <i name="e_wo_entrp">    -72.81982657 </i>
    <i name="e_0_energy">    -72.81982657 </i>
   </energy>
  </scstep>
  <scstep>
   <time name="dav">    8.49    8.51</time>
   <time name="total">    8.71    8.74</time>
   <energy>
    <i name="e_fr_energy">    -72.81992574 </i>
    <i name="e_wo_entrp">    -72.81992574 </i>
    <i name="e_0_energy">    -72.81992574 </i>
   </energy>
  </scstep>
  <scstep>
   <time name="dav">    6.39    6.41</time>
   <time name="total">    6.62    6.64</time>
   <energy>
    <i name="e_fr_energy">    -72.81989980 </i>
    <i name="e_wo_entrp">    -72.81989980 </i>
    <i name="e_0_energy">    -72.81989980 </i>
   </energy>
  </scstep>
  <scstep>
   <time name="dav">    7.97    7.99</time>
   <time name="total">    8.20    8.22</time>
   <energy>
    <i name="e_fr_energy">    -72.81990048 </i>
    <i name="e_wo_entrp">    -72.81990048 </i>
    <i name="e_0_energy">    -72.81990048 </i>
   </energy>
  </scstep>
  <scstep>
   <time name="dav">    6.31    6.32</time>
   <time name="total">    6.53    6.55</time>
   <energy>
    <i name="e_fr_energy">    -72.81990042 </i>
    <i name="e_wo_entrp">    -72.81990042 </i>
    <i name="e_0_energy">    -72.81990042 </i>
   </energy>
  </scstep>
  <scstep>
   <time name="dav">    8.41    8.42</time>
   <time name="total">    8.63    8.66</time>
   <energy>
    <i name="e_fr_energy">    -72.81990041 </i>
    <i name="e_wo_entrp">    -72.81990041 </i>
    <i name="e_0_energy">    -72.81990041 </i>
   </energy>
  </scstep>
  <scstep>
   <time name="dav">    5.25    5.26</time>
   <time name="total">    5.26    5.29</time>
   <energy>
    <i name="alphaZ">     76.88434413 </i>
    <i name="ewald">  -1389.20723540 </i>
    <i name="hartreedc">   -105.59195642 </i>
    <i name="XCdc">     65.06870247 </i>
    <i name="pawpsdc">  14455.71124449 </i>
    <i name="pawaedc"> -14414.18232112 </i>
    <i name="eentropy">     -0.00000000 </i>
    <i name="bandstr">     61.28454878 </i>
    <i name="atom">   1177.21277265 </i>
    <i name="e_fr_energy">    -72.81990041 </i>
    <i name="e_wo_entrp">    -72.81990041 </i>
    <i name="e_0_energy">    -72.81990041 </i>
   </energy>
  </scstep>
  <structure>
   <crystal>
    <varray name="basis" >
     <v>       3.57360507      -0.01786803      -0.01786803 </v>
     <v>      -0.01786803       3.57360507      -0.01786803 </v>
     <v>      -0.01786803      -0.01786803       3.57360507 </v>
    </varray>
    <i name="volume">     45.63383684 </i>
    <varray name="rec_basis" >
     <v>       0.27984353       0.00140625       0.00140625 </v>
     <v>       0.00140625       0.27984353       0.00140625 </v>
     <v>       0.00140625       0.00140625       0.27984353 </v>
    </varray>
   </crystal>
   <varray name="positions" >
    <v>       0.25045829       0.25045829       0.25045829 </v>
    <v>      -0.00045829      -0.00045829      -0.00045829 </v>
    <v>       0.25045829       0.75045829       0.75045829 </v>
    <v>      -0.00045829       0.49954171       0.49954171 </v>
    <v>       0.75045829       0.25045829       0.75045829 </v>
    <v>       0.49954171      -0.00045829       0.49954171 </v>
    <v>       0.75045829       0.75045829       0.25045829 </v>
    <v>       0.49954171       0.49954171      -0.00045829 </v>
   </varray>
  </structure>
  <varray name="forces" >
   <v>      -0.08939597      -0.08939597      -0.08939597 </v>
   <v>       0.08939597       0.08939597       0.08939597 </v>
   <v>      -0.08939597      -0.08939597      -0.08939597 </v>
   <v>       0.08939597       0.08939597       0.08939597 </v>
   <v>      -0.08939597      -0.08939597      -0.08939597 </v>
   <v>       0.08939597       0.08939597       0.08939597 </v>
   <v>      -0.08939597      -0.08939597      -0.08939597 </v>
   <v>       0.08939597       0.08939597       0.08939597 </v>
  </varray>
  <varray name="stress" >
   <v>     -12.69059219      54.68220332      54.68220332 </v>
   <v>      54.68220332     -12.69059219      54.68220332 </v>
   <v>      54.68220332      54.68220332     -12.69059219 </v>
  </varray>
  <energy>
   <i name="e_fr_energy">    -72.81990041 </i>
   <i name="e_wo_entrp">    -72.81990041 </i>
   <i name="e_0_energy">     -0.00000000 </i>
  </energy>
  <time name="totalsc">   55.67   55.88</time>
 </calculation>
 <calculation>
  <scstep>
   <time name="dav">    6.00    6.01</time>
   <time name="total">    6.22    6.24</time>
   <energy>
    <i name="alphaZ">     76.88434413 </i>
    <i name="ewald">  -1389.16068723 </i>
    <i name="hartreedc">   -105.61410826 </i>
    <i name="XCdc">     65.06995459 </i>
    <i name="pawpsdc">  14455.71893547 </i>
    <i name="pawaedc"> -14414.19001242 </i>
    <i name="eentropy">     -0.00000000 </i>
    <i name="bandstr">     61.25766763 </i>
    <i name="atom">   1177.21277265 </i>
    <i name="e_fr_energy">    -72.82113343 </i>
    <i name="e_wo_entrp">    -72.82113343 </i>
    <i name="e_0_energy">    -72.82113343 </i>
   </energy>
  </scstep>
  <scstep>
   <time name="dav">    8.45    8.47</time>
   <time name="total">    8.67    8.70</time>
   <energy>
    <i name="e_fr_energy">    -72.82118396 </i>
    <i name="e_wo_entrp">    -72.82118396 </i>
    <i name="e_0_energy">    -72.82118396 </i>
   </energy>
  </scstep>
  <scstep>
   <time name="dav">    6.47    6.48</time>
   <time name="total">    6.69    6.71</time>
   <energy>
    <i name="e_fr_energy">    -72.82117055 </i>
    <i name="e_wo_entrp">    -72.82117055 </i>
    <i name="e_0_energy">    -72.82117055 </i>
   </energy>
  </scstep>
  <scstep>
   <time name="dav">    7.57    7.58</time>
   <time name="total">    7.79    7.82</time>
   <energy>
    <i name="e_fr_energy">    -72.82117103 </i>
    <i name="e_wo_entrp">    -72.82117103 </i>
    <i name="e_0_energy">    -72.82117103 </i>
   </energy>
  </scstep>
  <scstep>
   <time name="dav">    6.58    6.59</time>
   <time name="total">    6.80    6.82</time>
   <energy>
    <i name="e_fr_energy">    -72.82117104 </i>
    <i name="e_wo_entrp">    -72.82117104 </i>
    <i name="e_0_energy">    -72.82117104 </i>
   </energy>
  </scstep>
  <scstep>
   <time name="dav">    7.47    7.49</time>
   <time name="total">    7.48    7.51</time>
   <energy>
    <i name="alphaZ">     76.88434413 </i>
    <i name="ewald">  -1389.16068723 </i>
    <i name="hartreedc">   -105.61969053 </i>
    <i name="XCdc">     65.07040332 </i>
    <i name="pawpsdc">  14460.04824047 </i>
    <i name="pawaedc"> -14418.51962243 </i>
    <i name="eentropy">     -0.00000000 </i>
    <i name="bandstr">     61.26306857 </i>
    <i name="atom">   1177.21277265 </i>
    <i name="e_fr_energy">    -72.82117103 </i>
    <i name="e_wo_entrp">    -72.82117103 </i>
    <i name="e_0_energy">    -72.82117103 </i>
   </energy>
  </scstep>
  <structure>
   <crystal>
    <varray name="basis" >
     <v>       3.57360507      -0.01786803      -0.01786803 </v>
     <v>      -0.01786803       3.57360507      -0.01786803 </v>
     <v>      -0.01786803      -0.01786803       3.57360507 </v>
    </varray>
    <i name="volume">     45.63383684 </i>
    <varray name="rec_basis" >
     <v>       0.27984353       0.00140625       0.00140625 </v>
     <v>       0.00140625       0.27984353       0.00140625 </v>
     <v>       0.00140625       0.00140625       0.27984353 </v>
    </varray>
   </crystal>
   <varray name="positions" >
    <v>       0.25012431       0.25012431       0.25012431 </v>
    <v>      -0.00012431      -0.00012431      -0.00012431 </v>
    <v>       0.25012431       0.75012431       0.75012431 </v>
    <v>      -0.00012431       0.49987569       0.49987569 </v>
    <v>       0.75012431       0.25012431       0.75012431 </v>
    <v>       0.49987569      -0.00012431       0.49987569 </v>
    <v>       0.75012431       0.75012431       0.25012431 </v>
    <v>       0.49987569       0.49987569      -0.00012431 </v>
   </varray>
  </structure>
  <varray name="forces" >
   <v>      -0.00000914      -0.00000914      -0.00000914 </v>
   <v>       0.00000914       0.00000914       0.00000914 </v>
   <v>      -0.00000914      -0.00000914      -0.00000914 </v>
   <v>       0.00000914       0.00000914       0.00000914 </v>
   <v>      -0.00000914      -0.00000914      -0.00000914 </v>
   <v>       0.00000914       0.00000914       0.00000914 </v>
   <v>      -0.00000914      -0.00000914      -0.00000914 </v>
   <v>       0.00000914       0.00000914       0.00000914 </v>
  </varray>
  <varray name="stress" >
   <v>     -12.25866859      55.97296191      55.97296191 </v>
   <v>      55.97296191     -12.25866859      55.97296191 </v>
   <v>      55.97296191      55.97296191     -12.25866859 </v>
  </varray>
  <energy>
   <i name="e_fr_energy">    -72.82117103 </i>
   <i name="e_wo_entrp">    -72.82117103 </i>
   <i name="e_0_energy">     -0.00000000 </i>
  </energy>
  <time name="totalsc">   48.82   49.00</time>
  <eigenvalues>
   <array>
    <dimension dim="1">band</dimension>
    <dimension dim="2">kpoint</dimension>
    <dimension dim="3">spin</dimension>
    <field>eigene</field>
    <field>occ</field>
    <set>
     <set comment="spin 1">
      <set comment="kpoint 1">
       <r>  -10.5105    1.0000 </r>
       <r>   -2.4357    1.0000 </r>
       <r>   -2.4357    1.0000 </r>
       <r>   -2.4357    1.0000 </r>
       <r>   -1.2643    1.0000 </r>
       <r>   -1.2643    1.0000 </r>
       <r>   -1.2643    1.0000 </r>
       <r>    4.5173    1.0000 </r>
       <r>    4.5173    1.0000 </r>
       <r>    4.5173    1.0000 </r>
       <r>    4.5791    1.0000 </r>
       <r>    4.5791    1.0000 </r>
       <r>    4.5791    1.0000 </r>
       <r>   10.6397    1.0000 </r>
       <r>   10.7703    1.0000 </r>
       <r>   10.7703    1.0000 </r>
       <r>   15.3874    0.0000 </r>
       <r>   15.3874    0.0000 </r>
       <r>   15.3874    0.0000 </r>
       <r>   16.0526    0.0000 </r>
       <r>   16.0526    0.0000 </r>
       <r>   16.0526    0.0000 </r>
       <r>   16.3868    0.0000 </r>
       <r>   16.3868    0.0000 </r>
      </set>
      <set comment="kpoint 2">
       <r>  -10.4157    1.0000 </r>
       <r>   -3.5191    1.0000 </r>
       <r>   -2.3846    1.0000 </r>
       <r>   -2.3846    1.0000 </r>
       <r>   -1.1957    1.0000 </r>
       <r>   -1.1957    1.0000 </r>
       <r>   -0.0921    1.0000 </r>
       <r>    4.2435    1.0000 </r>
       <r>    4.2435    1.0000 </r>
       <r>    4.4572    1.0000 </r>
       <r>    4.4572    1.0000 </r>
       <r>    4.6104    1.0000 </r>
       <r>    4.6647    1.0000 </r>
       <r>   10.2091    1.0000 </r>
       <r>   10.3924    1.0000 </r>
       <r>   10.6578    1.0000 </r>
       <r>   15.2314    0.0000 </r>
       <r>   15.6347    0.0000 </r>
       <r>   15.6347    0.0000 </r>
       <r>   16.3625    0.0000 </r>
       <r>   16.4351    0.0000 </r>
       <r>   16.5615    0.0000 </r>
       <r>   16.5615    0.0000 </r>
       <r>   16.8452    0.0000 </r>
      </set>
      <set comment="kpoint 3">
       <r>  -10.2273    1.0000 </r>
       <r>   -4.5450    1.0000 </r>
       <r>   -2.2736    1.0000 </r>
       <r>   -2.2736    1.0000 </r>
       <r>   -1.0826    1.0000 </r>
       <r>   -1.0826    1.0000 </r>
       <r>    1.1030    1.0000 </r>
       <r>    3.7880    1.0000 </r>
       <r>    3.7880    1.0000 </r>
       <r>    4.2238    1.0000 </r>
       <r>    4.2238    1.0000 </r>
       <r>    4.7948    1.0000 </r>
       <r>    4.8439    1.0000 </r>
       <r>    9.5940    1.0000 </r>
       <r>    9.7824    1.0000 </r>
       <r>   10.2864    1.0000 </r>
       <r>   15.1134    0.0000 </r>
       <r>   16.2281    0.0000 </r>
       <r>   16.2281    0.0000 </r>
       <r>   16.2572    0.0000 </r>
       <r>   16.9974    0.0000 </r>
       <r>   17.3773    0.0000 </r>
       <r>   17.3773    0.0000 </r>
       <r>   17.6149    0.0000 </r>
      </set>
      <set comment="kpoint 4">
       <r>   -9.9459    1.0000 </r>
       <r>   -5.5044    1.0000 </r>
       <r>   -2.1121    1.0000 </r>
       <r>   -2.1121    1.0000 </r>
       <r>   -0.9413    1.0000 </r>
       <r>   -0.9413    1.0000 </r>
       <r>    2.3026    1.0000 </r>
       <r>    3.2914    1.0000 </r>
       <r>    3.2914    1.0000 </r>
       <r>    3.8838    1.0000 </r>
       <r>    3.8838    1.0000 </r>
       <r>    5.0687    1.0000 </r>
       <r>    5.1169    1.0000 </r>
       <r>    8.8829    1.0000 </r>
       <r>    9.0732    1.0000 </r>
       <r>    9.7143    1.0000 </r>
       <r>   15.0673    0.0000 </r>
       <r>   16.0855    0.0000 </r>
       <r>   17.1050    0.0000 </r>
       <r>   17.1050    0.0000 </r>
       <r>   17.7033    0.0000 </r>
       <r>   18.4184    0.0000 </r>
       <r>   18.4184    0.0000 </r>
       <r>   18.5605    0.0000 </r>
      </set>
      <set comment="kpoint 5">
       <r>   -9.5721    1.0000 </r>
       <r>   -6.3908    1.0000 </r>
       <r>   -1.9185    1.0000 </r>
       <r>   -1.9185    1.0000 </r>
       <r>   -0.8003    1.0000 </r>
       <r>   -0.8003    1.0000 </r>
       <r>    2.8309    1.0000 </r>
       <r>    2.8309    1.0000 </r>
       <r>    3.4847    1.0000 </r>
       <r>    3.5175    1.0000 </r>
       <r>    3.5175    1.0000 </r>
       <r>    5.4302    1.0000 </r>
       <r>    5.4857    1.0000 </r>
       <r>    8.1317    1.0000 </r>
       <r>    8.3437    1.0000 </r>
       <r>    8.9974    1.0000 </r>
       <r>   15.0924    0.0000 </r>
       <r>   15.8793    0.0000 </r>
       <r>   18.1877    0.0000 </r>
       <r>   18.1877    0.0000 </r>
       <r>   18.5471    0.0000 </r>
       <r>   19.5992    0.0000 </r>
       <r>   19.6052    0.0000 </r>
       <r>   19.6530    0.0000 </r>
      </set>
      <set comment="kpoint 6">
       <r>   -9.1071    1.0000 </r>
       <r>   -7.1990    1.0000 </r>
       <r>   -1.7241    1.0000 </r>
       <r>   -1.7241    1.0000 </r>
       <r>   -0.7001    1.0000 </r>
       <r>   -0.7001    1.0000 </r>
       <r>    2.4773    1.0000 </r>
       <r>    2.4773    1.0000 </r>
       <r>    3.2079    1.0000 </r>
       <r>    3.2079    1.0000 </r>
       <r>    4.6202    1.0000 </r>
       <r>    5.8758    1.0000 </r>
       <r>    5.9576    1.0000 </r>
       <r>    7.3584    1.0000 </r>
       <r>    7.6376    1.0000 </r>
       <r>    8.1932    1.0000 </r>
       <r>   15.1815    0.0000 </r>
       <r>   15.6629    0.0000 </r>
       <r>   19.3934    0.0000 </r>
       <r>   19.3934    0.0000 </r>
       <r>   19.5206    0.0000 </r>
       <r>   20.6833    0.0000 </r>
       <r>   20.6912    0.0000 </r>
       <r>   20.8370    0.0000 </r>
      </set>
      <set comment="kpoint 7">
       <r>   -8.5523    1.0000 </r>
       <r>   -7.9250    1.0000 </r>
       <r>   -1.5792    1.0000 </r>
       <r>   -1.5792    1.0000 </r>
       <r>   -0.6756    1.0000 </r>
       <r>   -0.6756    1.0000 </r>
       <r>    2.2830    1.0000 </r>
       <r>    2.2830    1.0000 </r>
       <r>    3.0376    1.0000 </r>
       <r>    3.0376    1.0000 </r>
       <r>    5.6639    1.0000 </r>
       <r>    6.4007    1.0000 </r>
       <r>    6.5368    1.0000 </r>
       <r>    6.5550    1.0000 </r>
       <r>    6.9793    1.0000 </r>
       <r>    7.3791    1.0000 </r>
       <r>   15.3246    0.0000 </r>
       <r>   15.4577    0.0000 </r>
       <r>   20.5865    0.0000 </r>
       <r>   20.5865    0.0000 </r>
       <r>   20.5994    0.0000 </r>
       <r>   21.5582    0.0000 </r>
       <r>   21.7476    0.0000 </r>
       <r>   21.7775    0.0000 </r>
      </set>
      <set comment="kpoint 8">
       <r>   -8.5656    1.0000 </r>
       <r>   -7.9095    1.0000 </r>
       <r>   -1.5441    1.0000 </r>
       <r>   -1.5441    1.0000 </r>
       <r>   -0.7224    1.0000 </r>
       <r>   -0.7224    1.0000 </r>
       <r>    2.2668    1.0000 </r>
       <r>    2.2668    1.0000 </r>
       <r>    3.0683    1.0000 </r>
       <r>    3.0683    1.0000 </r>
       <r>    5.6089    1.0000 </r>
       <r>    6.3840    1.0000 </r>
       <r>    6.5609    1.0000 </r>
       <r>    6.6494    1.0000 </r>
       <r>    6.9981    1.0000 </r>
       <r>    7.3067    1.0000 </r>
       <r>   15.2804    0.0000 </r>
       <r>   15.5096    0.0000 </r>
       <r>   20.5503    0.0000 </r>
       <r>   20.9206    0.0000 </r>
       <r>   20.9206    0.0000 </r>
       <r>   21.3907    0.0000 </r>
       <r>   21.3907    0.0000 </r>
       <r>   21.6699    0.0000 </r>
      </set>
      <set comment="kpoint 9">
       <r>   -9.1183    1.0000 </r>
       <r>   -7.1813    1.0000 </r>
       <r>   -1.6417    1.0000 </r>
       <r>   -1.6417    1.0000 </r>
       <r>   -0.8105    1.0000 </r>
       <r>   -0.8105    1.0000 </r>
       <r>    2.4259    1.0000 </r>
       <r>    2.4259    1.0000 </r>
       <r>    3.2944    1.0000 </r>
       <r>    3.2944    1.0000 </r>
       <r>    4.5615    1.0000 </r>
       <r>    5.8615    1.0000 </r>
       <r>    6.0467    1.0000 </r>
       <r>    7.3390    1.0000 </r>
       <r>    7.6582    1.0000 </r>
       <r>    8.1565    1.0000 </r>
       <r>   15.1455    0.0000 </r>
       <r>   15.7223    0.0000 </r>
       <r>   19.4752    0.0000 </r>
       <r>   19.7976    0.0000 </r>
       <r>   19.7976    0.0000 </r>
       <r>   20.3793    0.0000 </r>
       <r>   20.3793    0.0000 </r>
       <r>   20.6700    0.0000 </r>
      </set>
      <set comment="kpoint 10">
       <r>   -9.5813    1.0000 </r>
       <r>   -6.3709    1.0000 </r>
       <r>   -1.8250    1.0000 </r>
       <r>   -1.8250    1.0000 </r>
       <r>   -0.9249    1.0000 </r>
       <r>   -0.9249    1.0000 </r>
       <r>    2.7411    1.0000 </r>
       <r>    2.7411    1.0000 </r>
       <r>    3.4309    1.0000 </r>
       <r>    3.6493    1.0000 </r>
       <r>    3.6493    1.0000 </r>
       <r>    5.4182    1.0000 </r>
       <r>    5.5591    1.0000 </r>
       <r>    8.0810    1.0000 </r>
       <r>    8.3656    1.0000 </r>
       <r>    8.9856    1.0000 </r>
       <r>   15.0648    0.0000 </r>
       <r>   15.9455    0.0000 </r>
       <r>   18.5056    0.0000 </r>
       <r>   18.5867    0.0000 </r>
       <r>   18.5867    0.0000 </r>
       <r>   19.1517    0.0000 </r>
       <r>   19.1517    0.0000 </r>
       <r>   19.5812    0.0000 </r>
      </set>
      <set comment="kpoint 11">
       <r>   -9.9530    1.0000 </r>
       <r>   -5.4821    1.0000 </r>
       <r>   -2.0290    1.0000 </r>
       <r>   -2.0290    1.0000 </r>
       <r>   -1.0508    1.0000 </r>
       <r>   -1.0508    1.0000 </r>
       <r>    2.2550    1.0000 </r>
       <r>    3.1643    1.0000 </r>
       <r>    3.1643    1.0000 </r>
       <r>    4.0507    1.0000 </r>
       <r>    4.0507    1.0000 </r>
       <r>    5.0595    1.0000 </r>
       <r>    5.1735    1.0000 </r>
       <r>    8.8141    1.0000 </r>
       <r>    9.0952    1.0000 </r>
       <r>    9.7176    1.0000 </r>
       <r>   15.0483    0.0000 </r>
       <r>   16.1601    0.0000 </r>
       <r>   17.4872    0.0000 </r>
       <r>   17.4872    0.0000 </r>
       <r>   17.6670    0.0000 </r>
       <r>   17.9873    0.0000 </r>
       <r>   17.9873    0.0000 </r>
       <r>   18.5400    0.0000 </r>
      </set>
      <set comment="kpoint 12">
       <r>  -10.2324    1.0000 </r>
       <r>   -4.5202    1.0000 </r>
       <r>   -2.2104    1.0000 </r>
       <r>   -2.2104    1.0000 </r>
       <r>   -1.1647    1.0000 </r>
       <r>   -1.1647    1.0000 </r>
       <r>    1.0609    1.0000 </r>
       <r>    3.6282    1.0000 </r>
       <r>    3.6282    1.0000 </r>
       <r>    4.4162    1.0000 </r>
       <r>    4.4162    1.0000 </r>
       <r>    4.7881    1.0000 </r>
       <r>    4.8840    1.0000 </r>
       <r>    9.5177    1.0000 </r>
       <r>    9.8030    1.0000 </r>
       <r>   10.3000    1.0000 </r>
       <r>   15.1028    0.0000 </r>
       <r>   16.3437    0.0000 </r>
       <r>   16.5806    0.0000 </r>
       <r>   16.5806    0.0000 </r>
       <r>   16.9676    0.0000 </r>
       <r>   16.9856    0.0000 </r>
       <r>   16.9856    0.0000 </r>
       <r>   17.5947    0.0000 </r>
      </set>
      <set comment="kpoint 13">
       <r>  -10.4187    1.0000 </r>
       <r>   -3.4916    1.0000 </r>
       <r>   -2.3457    1.0000 </r>
       <r>   -2.3457    1.0000 </r>
       <r>   -1.2459    1.0000 </r>
       <r>   -1.2459    1.0000 </r>
       <r>   -0.1297    1.0000 </r>
       <r>    4.0577    1.0000 </r>
       <r>    4.0577    1.0000 </r>
       <r>    4.6065    1.0000 </r>
       <r>    4.6647    1.0000 </r>
       <r>    4.6647    1.0000 </r>
       <r>    4.6887    1.0000 </r>
       <r>   10.1363    1.0000 </r>
       <r>   10.4080    1.0000 </r>
       <r>   10.6815    1.0000 </r>
       <r>   15.2288    0.0000 </r>
       <r>   15.9167    0.0000 </r>
       <r>   15.9167    0.0000 </r>
       <r>   16.2536    0.0000 </r>
       <r>   16.2536    0.0000 </r>
       <r>   16.4133    0.0000 </r>
       <r>   16.4668    0.0000 </r>
       <r>   16.8293    0.0000 </r>
      </set>
      <set comment="kpoint 14">
       <r>  -10.5115    1.0000 </r>
       <r>   -2.4225    1.0000 </r>
       <r>   -2.4225    1.0000 </r>
       <r>   -2.4052    1.0000 </r>
       <r>   -1.2979    1.0000 </r>
       <r>   -1.2811    1.0000 </r>
       <r>   -1.2811    1.0000 </r>
       <r>    4.3756    1.0000 </r>
       <r>    4.3756    1.0000 </r>
       <r>    4.5158    1.0000 </r>
       <r>    4.5872    1.0000 </r>
       <r>    4.7284    1.0000 </r>
       <r>    4.7284    1.0000 </r>
       <r>   10.5826    1.0000 </r>
       <r>   10.7764    1.0000 </r>
       <r>   10.8082    1.0000 </r>
       <r>   15.3893    0.0000 </r>
       <r>   15.5010    0.0000 </r>
       <r>   15.5010    0.0000 </r>
       <r>   15.9298    0.0000 </r>
       <r>   15.9298    0.0000 </r>
       <r>   16.0425    0.0000 </r>
       <r>   16.3805    0.0000 </r>
       <r>   16.4556    0.0000 </r>
      </set>
      <set comment="kpoint 15">
       <r>  -10.3200    1.0000 </r>
       <r>   -3.4585    1.0000 </r>
       <r>   -3.4585    1.0000 </r>
       <r>   -2.3355    1.0000 </r>
       <r>   -1.1303    1.0000 </r>
       <r>   -0.0417    1.0000 </r>
       <r>   -0.0417    1.0000 </r>
       <r>    3.7093    1.0000 </r>
       <r>    4.3284    1.0000 </r>
       <r>    4.3284    1.0000 </r>
       <r>    4.5576    1.0000 </r>
       <r>    4.5576    1.0000 </r>
       <r>    4.6774    1.0000 </r>
       <r>    9.6782    1.0000 </r>
       <r>   10.1145    1.0000 </r>
       <r>   10.6546    1.0000 </r>
       <r>   15.5364    0.0000 </r>
       <r>   15.5364    0.0000 </r>
       <r>   15.5779    0.0000 </r>
       <r>   16.5775    0.0000 </r>
       <r>   16.8897    0.0000 </r>
       <r>   16.8897    0.0000 </r>
       <r>   17.0325    0.0000 </r>
       <r>   17.3015    0.0000 </r>
      </set>
      <set comment="kpoint 16">
       <r>  -10.1307    1.0000 </r>
       <r>   -4.4773    1.0000 </r>
       <r>   -3.3273    1.0000 </r>
       <r>   -2.2343    1.0000 </r>
       <r>   -1.0254    1.0000 </r>
       <r>    0.0266    1.0000 </r>
       <r>    1.1220    1.0000 </r>
       <r>    3.1338    1.0000 </r>
       <r>    3.8745    1.0000 </r>
       <r>    4.3460    1.0000 </r>
       <r>    4.5135    1.0000 </r>
       <r>    4.6964    1.0000 </r>
       <r>    4.7579    1.0000 </r>
       <r>    9.0042    1.0000 </r>
       <r>    9.5451    1.0000 </r>
       <r>   10.4397    1.0000 </r>
       <r>   15.4553    0.0000 </r>
       <r>   15.8888    0.0000 </r>
       <r>   16.1698    0.0000 </r>
       <r>   16.5739    0.0000 </r>
       <r>   17.4144    0.0000 </r>
       <r>   17.6629    0.0000 </r>
       <r>   17.6729    0.0000 </r>
       <r>   17.8935    0.0000 </r>
      </set>
      <set comment="kpoint 17">
       <r>   -9.8486    1.0000 </r>
       <r>   -5.4314    1.0000 </r>
       <r>   -3.1316    1.0000 </r>
       <r>   -2.0983    1.0000 </r>
       <r>   -0.8973    1.0000 </r>
       <r>    0.0863    1.0000 </r>
       <r>    2.2670    1.0000 </r>
       <r>    2.5989    1.0000 </r>
       <r>    3.3770    1.0000 </r>
       <r>    4.0529    1.0000 </r>
       <r>    4.5429    1.0000 </r>
       <r>    4.7993    1.0000 </r>
       <r>    5.0655    1.0000 </r>
       <r>    8.2636    1.0000 </r>
       <r>    8.8627    1.0000 </r>
       <r>    9.9836    1.0000 </r>
       <r>   15.4324    0.0000 </r>
       <r>   16.4280    0.0000 </r>
       <r>   16.5419    0.0000 </r>
       <r>   17.0722    0.0000 </r>
       <r>   18.0921    0.0000 </r>
       <r>   18.5700    0.0000 </r>
       <r>   18.6356    0.0000 </r>
       <r>   18.6685    0.0000 </r>
      </set>
      <set comment="kpoint 18">
       <r>   -9.4742    1.0000 </r>
       <r>   -6.3138    1.0000 </r>
       <r>   -2.8825    1.0000 </r>
       <r>   -1.9639    1.0000 </r>
       <r>   -0.7671    1.0000 </r>
       <r>    0.0952    1.0000 </r>
       <r>    2.1882    1.0000 </r>
       <r>    2.9000    1.0000 </r>
       <r>    3.3537    1.0000 </r>
       <r>    3.7765    1.0000 </r>
       <r>    4.2826    1.0000 </r>
       <r>    5.1825    1.0000 </r>
       <r>    5.4992    1.0000 </r>
       <r>    7.4986    1.0000 </r>
       <r>    8.1521    1.0000 </r>
       <r>    9.3407    1.0000 </r>
       <r>   15.4735    0.0000 </r>
       <r>   16.2333    0.0000 </r>
       <r>   17.4669    0.0000 </r>
       <r>   18.1715    0.0000 </r>
       <r>   18.9107    0.0000 </r>
       <r>   19.5072    0.0000 </r>
       <r>   19.5936    0.0000 </r>
       <r>   19.8142    0.0000 </r>
      </set>
      <set comment="kpoint 19">
       <r>   -9.0088    1.0000 </r>
       <r>   -7.1188    1.0000 </r>
       <r>   -2.5990    1.0000 </r>
       <r>   -1.8976    1.0000 </r>
       <r>   -0.6391    1.0000 </r>
       <r>    0.0103    1.0000 </r>
       <r>    1.9761    1.0000 </r>
       <r>    2.4863    1.0000 </r>
       <r>    3.6158    1.0000 </r>
       <r>    3.9931    1.0000 </r>
       <r>    4.3345    1.0000 </r>
       <r>    5.6521    1.0000 </r>
       <r>    6.0911    1.0000 </r>
       <r>    6.7288    1.0000 </r>
       <r>    7.4591    1.0000 </r>
       <r>    8.5711    1.0000 </r>
       <r>   15.5739    0.0000 </r>
       <r>   16.0239    0.0000 </r>
       <r>   18.5772    0.0000 </r>
       <r>   19.3890    0.0000 </r>
       <r>   19.8591    0.0000 </r>
       <r>   20.4671    0.0000 </r>
       <r>   20.6634    0.0000 </r>
       <r>   20.9450    0.0000 </r>
      </set>
      <set comment="kpoint 20">
       <r>   -8.4538    1.0000 </r>
       <r>   -7.8421    1.0000 </r>
       <r>   -2.3134    1.0000 </r>
       <r>   -1.9713    1.0000 </r>
       <r>   -0.4867    1.0000 </r>
       <r>   -0.1764    1.0000 </r>
       <r>    1.9876    1.0000 </r>
       <r>    2.1629    1.0000 </r>
       <r>    3.6316    1.0000 </r>
       <r>    3.7496    1.0000 </r>
       <r>    5.1878    1.0000 </r>
       <r>    5.9520    1.0000 </r>
       <r>    6.1936    1.0000 </r>
       <r>    6.8096    1.0000 </r>
       <r>    6.8463    1.0000 </r>
       <r>    7.7349    1.0000 </r>
       <r>   15.7247    0.0000 </r>
       <r>   15.8227    0.0000 </r>
       <r>   19.7636    0.0000 </r>
       <r>   20.5359    0.0000 </r>
       <r>   20.9106    0.0000 </r>
       <r>   21.3975    0.0000 </r>
       <r>   21.4391    0.0000 </r>
       <r>   21.7195    0.0000 </r>
      </set>
      <set comment="kpoint 21">
       <r>   -8.4805    1.0000 </r>
       <r>   -7.8111    1.0000 </r>
       <r>   -2.1856    1.0000 </r>
       <r>   -2.0759    1.0000 </r>
       <r>   -0.4201    1.0000 </r>
       <r>   -0.3075    1.0000 </r>
       <r>    1.9659    1.0000 </r>
       <r>    2.1779    1.0000 </r>
       <r>    3.6247    1.0000 </r>
       <r>    3.8143    1.0000 </r>
       <r>    5.1417    1.0000 </r>
       <r>    5.9538    1.0000 </r>
       <r>    6.2193    1.0000 </r>
       <r>    6.7980    1.0000 </r>
       <r>    6.9010    1.0000 </r>
       <r>    7.6988    1.0000 </r>
       <r>   15.6470    0.0000 </r>
       <r>   15.9144    0.0000 </r>
       <r>   20.1198    0.0000 </r>
       <r>   20.6587    0.0000 </r>
       <r>   20.8161    0.0000 </r>
       <r>   21.1584    0.0000 </r>
       <r>   21.5794    0.0000 </r>
       <r>   21.8095    0.0000 </r>
      </set>
      <set comment="kpoint 22">
       <r>   -9.0313    1.0000 </r>
       <r>   -7.0833    1.0000 </r>
       <r>   -2.4744    1.0000 </r>
       <r>   -1.9475    1.0000 </r>
       <r>   -0.6566    1.0000 </r>
       <r>   -0.1515    1.0000 </r>
       <r>    1.9450    1.0000 </r>
       <r>    2.4797    1.0000 </r>
       <r>    3.6735    1.0000 </r>
       <r>    4.1056    1.0000 </r>
       <r>    4.2534    1.0000 </r>
       <r>    5.6970    1.0000 </r>
       <r>    6.1485    1.0000 </r>
       <r>    6.6909    1.0000 </r>
       <r>    7.4570    1.0000 </r>
       <r>    8.5547    1.0000 </r>
       <r>   15.5112    0.0000 </r>
       <r>   16.1286    0.0000 </r>
       <r>   18.9624    0.0000 </r>
       <r>   19.6934    0.0000 </r>
       <r>   19.7701    0.0000 </r>
       <r>   20.5326    0.0000 </r>
       <r>   20.5486    0.0000 </r>
       <r>   20.7654    0.0000 </r>
      </set>
      <set comment="kpoint 23">
       <r>   -9.4926    1.0000 </r>
       <r>   -6.2737    1.0000 </r>
       <r>   -2.7740    1.0000 </r>
       <r>   -1.9572    1.0000 </r>
       <r>   -0.8467    1.0000 </r>
       <r>   -0.0649    1.0000 </r>
       <r>    2.1321    1.0000 </r>
       <r>    2.8542    1.0000 </r>
       <r>    3.2594    1.0000 </r>
       <r>    3.8951    1.0000 </r>
       <r>    4.4334    1.0000 </r>
       <r>    5.2478    1.0000 </r>
       <r>    5.5354    1.0000 </r>
       <r>    7.4301    1.0000 </r>
       <r>    8.1567    1.0000 </r>
       <r>    9.3400    1.0000 </r>
       <r>   15.4264    0.0000 </r>
[...]
       <r>   -4.7184    1.0000 </r>
       <r>   -4.4465    1.0000 </r>
       <r>   -2.2190    1.0000 </r>
       <r>   -2.2159    1.0000 </r>
       <r>   -1.5027    1.0000 </r>
       <r>   -0.9784    1.0000 </r>
       <r>    7.0421    1.0000 </r>
       <r>    7.2356    1.0000 </r>
       <r>    7.5522    1.0000 </r>
       <r>    7.7058    1.0000 </r>
       <r>    7.7773    1.0000 </r>
       <r>    7.8241    1.0000 </r>
       <r>    8.0699    1.0000 </r>
       <r>    8.2102    1.0000 </r>
       <r>   18.8776    0.0000 </r>
       <r>   18.9206    0.0000 </r>
       <r>   19.0120    0.0000 </r>
       <r>   19.0582    0.0000 </r>
       <r>   19.5166    0.0000 </r>
       <r>   19.5810    0.0000 </r>
       <r>   19.8749    0.0000 </r>
       <r>   19.8823    0.0000 </r>
      </set>
      <set comment="kpoint 278">
       <r>   -5.5321    1.0000 </r>
       <r>   -5.0869    1.0000 </r>
       <r>   -5.0869    1.0000 </r>
       <r>   -4.5288    1.0000 </r>
       <r>   -2.3014    1.0000 </r>
       <r>   -2.0183    1.0000 </r>
       <r>   -2.0183    1.0000 </r>
       <r>   -1.5825    1.0000 </r>
       <r>    7.3511    1.0000 </r>
       <r>    7.7083    1.0000 </r>
       <r>    7.7083    1.0000 </r>
       <r>    7.7641    1.0000 </r>
       <r>    7.9523    1.0000 </r>
       <r>    7.9856    1.0000 </r>
       <r>    7.9856    1.0000 </r>
       <r>    8.2126    1.0000 </r>
       <r>   18.9823    0.0000 </r>
       <r>   19.1206    0.0000 </r>
       <r>   19.1206    0.0000 </r>
       <r>   19.1892    0.0000 </r>
       <r>   19.3632    0.0000 </r>
       <r>   19.5657    0.0000 </r>
       <r>   19.7586    0.0000 </r>
       <r>   19.7586    0.0000 </r>
      </set>
      <set comment="kpoint 279">
       <r>   -4.9357    1.0000 </r>
       <r>   -4.8858    1.0000 </r>
       <r>   -4.8858    1.0000 </r>
       <r>   -4.8858    1.0000 </r>
       <r>   -2.3795    1.0000 </r>
       <r>   -2.3795    1.0000 </r>
       <r>   -2.3795    1.0000 </r>
       <r>   -2.0642    1.0000 </r>
       <r>    7.9534    1.0000 </r>
       <r>    7.9534    1.0000 </r>
       <r>    7.9785    1.0000 </r>
       <r>    7.9785    1.0000 </r>
       <r>    7.9785    1.0000 </r>
       <r>    8.0538    1.0000 </r>
       <r>    8.0538    1.0000 </r>
       <r>    8.0538    1.0000 </r>
       <r>   19.2023    0.0000 </r>
       <r>   19.2023    0.0000 </r>
       <r>   19.2697    0.0000 </r>
       <r>   19.2697    0.0000 </r>
       <r>   19.2697    0.0000 </r>
       <r>   19.2768    0.0000 </r>
       <r>   19.3141    0.0000 </r>
       <r>   19.3141    0.0000 </r>
      </set>
      <set comment="kpoint 280">
       <r>   -5.1705    1.0000 </r>
       <r>   -4.8830    1.0000 </r>
       <r>   -4.8830    1.0000 </r>
       <r>   -4.6108    1.0000 </r>
       <r>   -2.3854    1.0000 </r>
       <r>   -2.3845    1.0000 </r>
       <r>   -2.3845    1.0000 </r>
       <r>   -2.1016    1.0000 </r>
       <r>    7.8072    1.0000 </r>
       <r>    7.8644    1.0000 </r>
       <r>    7.9910    1.0000 </r>
       <r>    7.9910    1.0000 </r>
       <r>    8.0462    1.0000 </r>
       <r>    8.0462    1.0000 </r>
       <r>    8.1263    1.0000 </r>
       <r>    8.1473    1.0000 </r>
       <r>   19.1247    0.0000 </r>
       <r>   19.1733    0.0000 </r>
       <r>   19.1733    0.0000 </r>
       <r>   19.1853    0.0000 </r>
       <r>   19.3233    0.0000 </r>
       <r>   19.3565    0.0000 </r>
       <r>   19.4131    0.0000 </r>
       <r>   19.4760    0.0000 </r>
      </set>
     </set>
    </set>
   </array>
  </eigenvalues>
  <separator name="orbital magnetization" >
   <v name="MAGDIPOLOUT">      0.00000000      0.00000000      0.00000000</v>
  </separator>
  <dos>
   <i name="efermi">     11.10033787 </i>
   <total>
    <array>
     <dimension dim="1">gridpoints</dimension>
     <dimension dim="2">spin</dimension>
     <field>energy</field>
     <field>total</field>
     <field>integrated</field>
     <set>
      <set comment="spin 1">
       <r>   -12.1725     0.0000     0.0000 </r>
       <r>   -12.0507     0.0000     0.0000 </r>
       <r>   -11.9289     0.0000     0.0000 </r>
       <r>   -11.8071     0.0000     0.0000 </r>
       <r>   -11.6853     0.0000     0.0000 </r>
       <r>   -11.5635     0.0000     0.0000 </r>
       <r>   -11.4417     0.0000     0.0000 </r>
       <r>   -11.3199     0.0000     0.0000 </r>
       <r>   -11.1981     0.0000     0.0000 </r>
       <r>   -11.0763     0.0000     0.0000 </r>
       <r>   -10.9544     0.0000     0.0000 </r>
       <r>   -10.8326     0.0000     0.0000 </r>
       <r>   -10.7108     0.0000     0.0000 </r>
       <r>   -10.5890     0.0007     0.0001 </r>
       <r>   -10.4672     0.0536     0.0066 </r>
       <r>   -10.3454     0.1732     0.0277 </r>
       <r>   -10.2236     0.2190     0.0544 </r>
       <r>   -10.1018     0.3274     0.0943 </r>
       <r>    -9.9800     0.2351     0.1229 </r>
       <r>    -9.8582     0.4425     0.1768 </r>
       <r>    -9.7364     0.3466     0.2190 </r>
       <r>    -9.6146     0.4012     0.2679 </r>
       <r>    -9.4928     0.4993     0.3287 </r>
       <r>    -9.3710     0.4923     0.3887 </r>
       <r>    -9.2491     0.5411     0.4546 </r>
       <r>    -9.1273     0.3898     0.5021 </r>
       <r>    -9.0055     0.6735     0.5841 </r>
       <r>    -8.8837     0.6483     0.6631 </r>
       <r>    -8.7619     0.5439     0.7293 </r>
       <r>    -8.6401     0.4846     0.7883 </r>
       <r>    -8.5183     0.7380     0.8782 </r>
       <r>    -8.3965     0.8101     0.9769 </r>
       <r>    -8.2747     0.5883     1.0486 </r>
       <r>    -8.1529     0.7552     1.1406 </r>
       <r>    -8.0311     0.6414     1.2187 </r>
       <r>    -7.9093     0.8379     1.3208 </r>
       <r>    -7.7875     0.6147     1.3956 </r>
       <r>    -7.6656     0.9466     1.5109 </r>
       <r>    -7.5438     1.0034     1.6332 </r>
       <r>    -7.4220     0.5827     1.7041 </r>
       <r>    -7.3002     0.7993     1.8015 </r>
       <r>    -7.1784     0.7463     1.8924 </r>
       <r>    -7.0566     1.1674     2.0346 </r>
       <r>    -6.9348     0.9415     2.1493 </r>
       <r>    -6.8130     0.9279     2.2623 </r>
       <r>    -6.6912     0.7846     2.3579 </r>
       <r>    -6.5694     1.0312     2.4835 </r>
       <r>    -6.4476     0.8710     2.5896 </r>
       <r>    -6.3258     1.0918     2.7226 </r>
       <r>    -6.2040     1.0399     2.8493 </r>
       <r>    -6.0821     1.1162     2.9852 </r>
       <r>    -5.9603     1.0325     3.1110 </r>
       <r>    -5.8385     1.2519     3.2635 </r>
       <r>    -5.7167     1.0806     3.3951 </r>
       <r>    -5.5949     0.7939     3.4918 </r>
       <r>    -5.4731     1.1013     3.6259 </r>
       <r>    -5.3513     1.5514     3.8149 </r>
       <r>    -5.2295     1.2355     3.9654 </r>
       <r>    -5.1077     1.3576     4.1308 </r>
       <r>    -4.9859     1.2914     4.2881 </r>
       <r>    -4.8641     1.2936     4.4456 </r>
       <r>    -4.7423     1.3894     4.6149 </r>
       <r>    -4.6205     1.4568     4.7923 </r>
       <r>    -4.4986     1.7729     5.0083 </r>
       <r>    -4.3768     1.2739     5.1635 </r>
       <r>    -4.2550     1.3420     5.3269 </r>
       <r>    -4.1332     1.6587     5.5290 </r>
       <r>    -4.0114     1.6214     5.7265 </r>
       <r>    -3.8896     1.0706     5.8569 </r>
       <r>    -3.7678     1.1517     5.9972 </r>
       <r>    -3.6460     1.0592     6.1262 </r>
       <r>    -3.5242     1.1049     6.2608 </r>
       <r>    -3.4024     1.6098     6.4569 </r>
       <r>    -3.2806     1.0972     6.5905 </r>
       <r>    -3.1588     1.0371     6.7168 </r>
       <r>    -3.0370     1.0410     6.8436 </r>
       <r>    -2.9151     1.1093     6.9788 </r>
       <r>    -2.7933     1.2181     7.1271 </r>
       <r>    -2.6715     0.7517     7.2187 </r>
       <r>    -2.5497     0.7166     7.3060 </r>
       <r>    -2.4279     0.6570     7.3860 </r>
       <r>    -2.3061     1.0528     7.5142 </r>
       <r>    -2.1843     1.2867     7.6710 </r>
       <r>    -2.0625     1.3280     7.8327 </r>
       <r>    -1.9407     1.3970     8.0029 </r>
       <r>    -1.8189     1.0056     8.1254 </r>
       <r>    -1.6971     0.8159     8.2248 </r>
       <r>    -1.5753     0.7728     8.3189 </r>
       <r>    -1.4535     1.0777     8.4502 </r>
       <r>    -1.3316     0.8519     8.5539 </r>
       <r>    -1.2098     0.9901     8.6745 </r>
       <r>    -1.0880     1.7724     8.8904 </r>
       <r>    -0.9662     1.7544     9.1041 </r>
       <r>    -0.8444     1.7327     9.3152 </r>
       <r>    -0.7226     2.2052     9.5838 </r>
       <r>    -0.6008     2.3218     9.8666 </r>
       <r>    -0.4790     2.1438    10.1277 </r>
       <r>    -0.3572     1.5060    10.3112 </r>
       <r>    -0.2354     2.1147    10.5688 </r>
       <r>    -0.1136     2.3394    10.8537 </r>
       <r>     0.0082     2.3753    11.1431 </r>
       <r>     0.1300     1.7474    11.3559 </r>
       <r>     0.2518     1.2879    11.5128 </r>
       <r>     0.3737     0.9747    11.6315 </r>
       <r>     0.4955     1.1277    11.7689 </r>
       <r>     0.6173     1.3055    11.9279 </r>
       <r>     0.7391     1.2847    12.0844 </r>
       <r>     0.8609     1.0250    12.2092 </r>
       <r>     0.9827     1.4609    12.3872 </r>
       <r>     1.1045     1.5442    12.5753 </r>
       <r>     1.2263     0.9356    12.6892 </r>
       <r>     1.3481     0.8784    12.7962 </r>
       <r>     1.4699     1.1924    12.9415 </r>
       <r>     1.5917     1.1031    13.0758 </r>
       <r>     1.7135     1.1783    13.2194 </r>
       <r>     1.8353     1.4216    13.3925 </r>
       <r>     1.9572     1.6587    13.5946 </r>
       <r>     2.0790     2.2043    13.8631 </r>
       <r>     2.2008     1.5970    14.0576 </r>
       <r>     2.3226     2.5718    14.3709 </r>
       <r>     2.4444     1.9392    14.6071 </r>
       <r>     2.5662     2.5087    14.9127 </r>
       <r>     2.6880     1.9708    15.1527 </r>
       <r>     2.8098     1.5323    15.3394 </r>
       <r>     2.9316     1.4426    15.5151 </r>
       <r>     3.0534     2.0868    15.7693 </r>
       <r>     3.1752     3.0322    16.1386 </r>
       <r>     3.2970     2.6600    16.4626 </r>
       <r>     3.4188     1.4721    16.6419 </r>
       <r>     3.5407     1.8037    16.8616 </r>
       <r>     3.6625     2.2046    17.1302 </r>
       <r>     3.7843     2.3602    17.4177 </r>
       <r>     3.9061     2.5778    17.7317 </r>
       <r>     4.0279     2.6073    18.0493 </r>
       <r>     4.1497     2.1455    18.3106 </r>
       <r>     4.2715     2.0487    18.5601 </r>
       <r>     4.3933     3.0170    18.9276 </r>
       <r>     4.5151     3.1375    19.3098 </r>
       <r>     4.6369     3.2970    19.7114 </r>
       <r>     4.7587     2.8740    20.0615 </r>
       <r>     4.8805     2.7698    20.3989 </r>
       <r>     5.0023     2.9298    20.7557 </r>
       <r>     5.1242     2.9133    21.1106 </r>
       <r>     5.2460     4.0170    21.5999 </r>
       <r>     5.3678     3.8271    22.0661 </r>
       <r>     5.4896     2.2521    22.3404 </r>
       <r>     5.6114     2.1223    22.5989 </r>
       <r>     5.7332     2.9451    22.9577 </r>
       <r>     5.8550     3.5603    23.3913 </r>
       <r>     5.9768     3.5743    23.8267 </r>
       <r>     6.0986     2.4655    24.1270 </r>
       <r>     6.2204     2.4604    24.4267 </r>
       <r>     6.3422     3.0375    24.7967 </r>
       <r>     6.4640     2.9708    25.1586 </r>
       <r>     6.5858     2.4712    25.4596 </r>
       <r>     6.7077     3.2321    25.8533 </r>
       <r>     6.8295     2.4476    26.1514 </r>
       <r>     6.9513     2.3847    26.4419 </r>
       <r>     7.0731     2.9415    26.8002 </r>
       <r>     7.1949     3.2584    27.1971 </r>
       <r>     7.3167     2.3567    27.4841 </r>
       <r>     7.4385     2.2456    27.7577 </r>
       <r>     7.5603     2.6090    28.0755 </r>
       <r>     7.6821     2.0820    28.3291 </r>
       <r>     7.8039     3.6230    28.7704 </r>
       <r>     7.9257     2.7388    29.1040 </r>
       <r>     8.0475     1.7213    29.3137 </r>
       <r>     8.1693     1.8737    29.5419 </r>
       <r>     8.2912     2.2059    29.8106 </r>
       <r>     8.4130     2.1251    30.0695 </r>
       <r>     8.5348     1.9213    30.3035 </r>
       <r>     8.6566     1.1627    30.4451 </r>
       <r>     8.7784     0.7870    30.5410 </r>
       <r>     8.9002     1.4072    30.7124 </r>
       <r>     9.0220     1.6146    30.9091 </r>
       <r>     9.1438     1.1716    31.0518 </r>
       <r>     9.2656     0.8537    31.1558 </r>
       <r>     9.3874     0.7574    31.2480 </r>
       <r>     9.5092     0.6601    31.3284 </r>
       <r>     9.6310     1.1413    31.4674 </r>
       <r>     9.7528     0.8698    31.5734 </r>
       <r>     9.8746     0.4254    31.6252 </r>
       <r>     9.9965     0.6134    31.6999 </r>
       <r>    10.1183     0.4828    31.7587 </r>
       <r>    10.2401     0.5972    31.8314 </r>
       <r>    10.3619     0.3458    31.8736 </r>
       <r>    10.4837     0.4981    31.9342 </r>
       <r>    10.6055     0.1474    31.9522 </r>
       <r>    10.7273     0.2812    31.9864 </r>
       <r>    10.8491     0.1059    31.9993 </r>
       <r>    10.9709     0.0055    32.0000 </r>
       <r>    11.0927     0.0000    32.0000 </r>
       <r>    11.2145     0.0000    32.0000 </r>
       <r>    11.3363     0.0000    32.0000 </r>
       <r>    11.4581     0.0000    32.0000 </r>
       <r>    11.5800     0.0000    32.0000 </r>
       <r>    11.7018     0.0000    32.0000 </r>
       <r>    11.8236     0.0000    32.0000 </r>
       <r>    11.9454     0.0000    32.0000 </r>
       <r>    12.0672     0.0000    32.0000 </r>
       <r>    12.1890     0.0000    32.0000 </r>
       <r>    12.3108     0.0000    32.0000 </r>
       <r>    12.4326     0.0000    32.0000 </r>
       <r>    12.5544     0.0000    32.0000 </r>
       <r>    12.6762     0.0000    32.0000 </r>
       <r>    12.7980     0.0000    32.0000 </r>
       <r>    12.9198     0.0000    32.0000 </r>
       <r>    13.0416     0.0000    32.0000 </r>
       <r>    13.1635     0.0000    32.0000 </r>
       <r>    13.2853     0.0000    32.0000 </r>
       <r>    13.4071     0.0000    32.0000 </r>
       <r>    13.5289     0.0000    32.0000 </r>
       <r>    13.6507     0.0000    32.0000 </r>
       <r>    13.7725     0.0000    32.0000 </r>
       <r>    13.8943     0.0000    32.0000 </r>
       <r>    14.0161     0.0000    32.0000 </r>
       <r>    14.1379     0.0000    32.0000 </r>
       <r>    14.2597     0.0000    32.0000 </r>
       <r>    14.3815     0.0000    32.0000 </r>
       <r>    14.5033     0.0000    32.0000 </r>
       <r>    14.6251     0.0000    32.0000 </r>
       <r>    14.7470     0.0000    32.0000 </r>
       <r>    14.8688     0.0000    32.0000 </r>
       <r>    14.9906     0.0039    32.0005 </r>
       <r>    15.1124     0.3023    32.0373 </r>
       <r>    15.2342     0.3137    32.0755 </r>
       <r>    15.3560     0.2518    32.1062 </r>
       <r>    15.4778     0.6763    32.1886 </r>
       <r>    15.5996     1.0869    32.3209 </r>
       <r>    15.7214     0.7752    32.4154 </r>
       <r>    15.8432     0.5468    32.4820 </r>
       <r>    15.9650     1.1579    32.6230 </r>
       <r>    16.0868     0.8207    32.7230 </r>
       <r>    16.2086     1.3686    32.8897 </r>
       <r>    16.3305     2.2045    33.1582 </r>
       <r>    16.4523     1.6523    33.3595 </r>
       <r>    16.5741     1.3975    33.5297 </r>
       <r>    16.6959     1.5525    33.7188 </r>
       <r>    16.8177     1.5150    33.9033 </r>
       <r>    16.9395     1.8414    34.1276 </r>
       <r>    17.0613     2.3771    34.4172 </r>
       <r>    17.1831     2.2019    34.6854 </r>
       <r>    17.3049     2.0632    34.9367 </r>
       <r>    17.4267     2.1749    35.2016 </r>
       <r>    17.5485     2.1972    35.4693 </r>
       <r>    17.6703     2.2710    35.7459 </r>
       <r>    17.7921     2.2677    36.0221 </r>
       <r>    17.9139     2.4707    36.3231 </r>
       <r>    18.0358     2.5801    36.6373 </r>
       <r>    18.1576     2.2973    36.9172 </r>
       <r>    18.2794     2.6104    37.2351 </r>
       <r>    18.4012     3.0093    37.6017 </r>
       <r>    18.5230     3.6629    38.0478 </r>
       <r>    18.6448     4.1571    38.5542 </r>
       <r>    18.7666     2.8210    38.8978 </r>
       <r>    18.8884     3.2886    39.2984 </r>
       <r>    19.0102     3.2121    39.6897 </r>
       <r>    19.1320     4.6350    40.2542 </r>
       <r>    19.2538     3.7301    40.7086 </r>
       <r>    19.3756     3.5394    41.1397 </r>
       <r>    19.4974     5.3119    41.7868 </r>
       <r>    19.6193     4.3237    42.3134 </r>
       <r>    19.7411     3.5708    42.7484 </r>
       <r>    19.8629     3.5748    43.1838 </r>
       <r>    19.9847     2.7878    43.5234 </r>
       <r>    20.1065     2.7815    43.8622 </r>
       <r>    20.2283     2.3330    44.1464 </r>
       <r>    20.3501     2.5676    44.4591 </r>
       <r>    20.4719     3.4780    44.8828 </r>
       <r>    20.5937     3.1557    45.2672 </r>
       <r>    20.7155     3.1358    45.6491 </r>
       <r>    20.8373     2.6390    45.9706 </r>
       <r>    20.9591     2.7211    46.3020 </r>
       <r>    21.0809     2.3105    46.5835 </r>
       <r>    21.2028     1.7978    46.8024 </r>
       <r>    21.3246     1.6006    46.9974 </r>
       <r>    21.4464     1.8555    47.2234 </r>
       <r>    21.5682     1.6535    47.4248 </r>
       <r>    21.6900     1.1594    47.5661 </r>
       <r>    21.8118     1.5029    47.7491 </r>
       <r>    21.9336     0.8984    47.8586 </r>
       <r>    22.0554     0.4541    47.9139 </r>
       <r>    22.1772     0.2774    47.9477 </r>
       <r>    22.2990     0.0964    47.9594 </r>
       <r>    22.4208     0.0244    47.9624 </r>
       <r>    22.5426     0.1535    47.9811 </r>
       <r>    22.6644     0.0910    47.9922 </r>
       <r>    22.7863     0.0633    47.9999 </r>
       <r>    22.9081     0.0010    48.0000 </r>
       <r>    23.0299     0.0000    48.0000 </r>
       <r>    23.1517     0.0000    48.0000 </r>
       <r>    23.2735     0.0000    48.0000 </r>
       <r>    23.3953     0.0000    48.0000 </r>
       <r>    23.5171     0.0000    48.0000 </r>
       <r>    23.6389     0.0000    48.0000 </r>
       <r>    23.7607     0.0000    48.0000 </r>
       <r>    23.8825     0.0000    48.0000 </r>
       <r>    24.0043     0.0000    48.0000 </r>
       <r>    24.1261     0.0000    48.0000 </r>
       <r>    24.2479     0.0000    48.0000 </r>
       <r>    24.3698     0.0000    48.0000 </r>
      </set>
     </set>
    </array>
   </total>
  </dos>
 </calculation>
 <structure name="finalpos" >
  <crystal>
   <varray name="basis" >
    <v>       3.57360507      -0.01786803      -0.01786803 </v>
    <v>      -0.01786803       3.57360507      -0.01786803 </v>
    <v>      -0.01786803      -0.01786803       3.57360507 </v>
   </varray>
   <i name="volume">     45.63383684 </i>
   <varray name="rec_basis" >
    <v>       0.27984353       0.00140625       0.00140625 </v>
    <v>       0.00140625       0.27984353       0.00140625 </v>
    <v>       0.00140625       0.00140625       0.27984353 </v>
   </varray>
  </crystal>
  <varray name="positions" >
   <v>       0.25012431       0.25012431       0.25012431 </v>
   <v>      -0.00012431      -0.00012431      -0.00012431 </v>
   <v>       0.25012431       0.75012431       0.75012431 </v>
   <v>      -0.00012431       0.49987569       0.49987569 </v>
   <v>       0.75012431       0.25012431       0.75012431 </v>
   <v>       0.49987569      -0.00012431       0.49987569 </v>
   <v>       0.75012431       0.75012431       0.25012431 </v>
   <v>       0.49987569       0.49987569      -0.00012431 </v>
  </varray>
 </structure>
</modeling>
