unknown system                          
           1
     3.573605   -0.017868   -0.017868
    -0.017868    3.573605   -0.017868
    -0.017868   -0.017868    3.573605
   C 
   8
Direct configuration=     1
   0.25000000  0.25000000  0.25000000
   0.00000000  0.00000000  0.00000000
   0.25000000  0.75000000  0.75000000
   0.00000000  0.50000000  0.50000000
   0.75000000  0.25000000  0.75000000
   0.50000000  0.00000000  0.50000000
   0.75000000  0.75000000  0.25000000
   0.50000000  0.50000000  0.00000000
Direct configuration=     2
   0.25045829  0.25045829  0.25045829
  -0.00045829 -0.00045829 -0.00045829
   0.25045829  0.75045829  0.75045829
  -0.00045829  0.49954171  0.49954171
   0.75045829  0.25045829  0.75045829
   0.49954171 -0.00045829  0.49954171
   0.75045829  0.75045829  0.25045829
   0.49954171  0.49954171 -0.00045829
Direct configuration=     3
   0.25012431  0.25012431  0.25012431
  -0.00012431 -0.00012431 -0.00012431
   0.25012431  0.75012431  0.75012431
  -0.00012431  0.49987569  0.49987569
   0.75012431  0.25012431  0.75012431
   0.49987569 -0.00012431  0.49987569
   0.75012431  0.75012431  0.25012431
   0.49987569  0.49987569 -0.00012431
