   4   4   0   0
  0.1688491E+02  0.3932535E-09  0.4160661E-09  0.4154382E-09  0.2000000E-15
  1.000000000000000E-004
  CAR 
 unknown system                          
     21.48128948     -1.37486386  301      9.64408556      1.00000000
     -1.375  0.0000E+00  0.0000E+00
     -1.299  0.0000E+00  0.0000E+00
     -1.222  0.0000E+00  0.0000E+00
     -1.146  0.0000E+00  0.0000E+00
     -1.070  0.0000E+00  0.0000E+00
     -0.994  0.0000E+00  0.0000E+00
     -0.918  0.8635E-20  0.6579E-21
     -0.842  0.3436E-16  0.2618E-17
     -0.765  0.5105E-13  0.3892E-14
     -0.689  0.2507E-10  0.1914E-11
     -0.613  0.4217E-08  0.3232E-09
     -0.537  0.2578E-06  0.1997E-07
     -0.461  0.6211E-05  0.4932E-06
     -0.384  0.6415E-04  0.5381E-05
     -0.308  0.3044E-03  0.2857E-04
     -0.232  0.7229E-03  0.8365E-04
     -0.156  0.1099E-02  0.1674E-03
     -0.080  0.1523E-02  0.2834E-03
     -0.003  0.1781E-02  0.4191E-03
      0.073  0.1812E-02  0.5572E-03
      0.149  0.2179E-02  0.7232E-03
      0.225  0.2596E-02  0.9210E-03
      0.301  0.2677E-02  0.1125E-02
      0.377  0.2645E-02  0.1326E-02
      0.454  0.2773E-02  0.1538E-02
      0.530  0.3227E-02  0.1784E-02
      0.606  0.3764E-02  0.2070E-02
      0.682  0.3803E-02  0.2360E-02
      0.758  0.3382E-02  0.2618E-02
      0.835  0.3655E-02  0.2896E-02
      0.911  0.4447E-02  0.3235E-02
      0.987  0.4613E-02  0.3586E-02
      1.063  0.4664E-02  0.3942E-02
      1.139  0.4923E-02  0.4317E-02
      1.216  0.5248E-02  0.4717E-02
      1.292  0.5344E-02  0.5124E-02
      1.368  0.5461E-02  0.5540E-02
      1.444  0.5952E-02  0.5993E-02
      1.520  0.6718E-02  0.6505E-02
      1.596  0.7111E-02  0.7047E-02
      1.673  0.7353E-02  0.7607E-02
      1.749  0.7753E-02  0.8198E-02
      1.825  0.8534E-02  0.8848E-02
      1.901  0.9925E-02  0.9604E-02
      1.977  0.1179E-01  0.1050E-01
      2.054  0.1376E-01  0.1155E-01
      2.130  0.1603E-01  0.1277E-01
      2.206  0.1772E-01  0.1412E-01
      2.282  0.1976E-01  0.1563E-01
      2.358  0.2432E-01  0.1748E-01
      2.434  0.3047E-01  0.1980E-01
      2.511  0.3638E-01  0.2257E-01
      2.587  0.4132E-01  0.2572E-01
      2.663  0.4488E-01  0.2914E-01
      2.739  0.4820E-01  0.3281E-01
      2.815  0.5252E-01  0.3682E-01
      2.892  0.5768E-01  0.4121E-01
      2.968  0.6369E-01  0.4606E-01
      3.044  0.6766E-01  0.5122E-01
      3.120  0.6661E-01  0.5629E-01
      3.196  0.6581E-01  0.6131E-01
      3.273  0.6613E-01  0.6634E-01
      3.349  0.6504E-01  0.7130E-01
      3.425  0.6396E-01  0.7617E-01
      3.501  0.6487E-01  0.8111E-01
      3.577  0.6326E-01  0.8593E-01
      3.653  0.5934E-01  0.9046E-01
      3.730  0.5737E-01  0.9483E-01
      3.806  0.5682E-01  0.9916E-01
      3.882  0.5789E-01  0.1036E+00
      3.958  0.6201E-01  0.1083E+00
      4.034  0.7063E-01  0.1137E+00
      4.111  0.8062E-01  0.1198E+00
      4.187  0.8950E-01  0.1266E+00
      4.263  0.9636E-01  0.1340E+00
      4.339  0.9727E-01  0.1414E+00
      4.415  0.9267E-01  0.1484E+00
      4.492  0.8620E-01  0.1550E+00
      4.568  0.8016E-01  0.1611E+00
      4.644  0.7525E-01  0.1669E+00
      4.720  0.7390E-01  0.1725E+00
      4.796  0.7482E-01  0.1782E+00
      4.872  0.7567E-01  0.1839E+00
      4.949  0.7650E-01  0.1898E+00
      5.025  0.7779E-01  0.1957E+00
      5.101  0.7539E-01  0.2014E+00
      5.177  0.7036E-01  0.2068E+00
      5.253  0.6764E-01  0.2120E+00
      5.330  0.6719E-01  0.2171E+00
      5.406  0.6869E-01  0.2223E+00
      5.482  0.7217E-01  0.2278E+00
      5.558  0.7897E-01  0.2338E+00
      5.634  0.8632E-01  0.2404E+00
      5.711  0.8786E-01  0.2471E+00
      5.787  0.8417E-01  0.2535E+00
      5.863  0.8028E-01  0.2596E+00
      5.939  0.7812E-01  0.2656E+00
      6.015  0.7788E-01  0.2715E+00
      6.091  0.7987E-01  0.2776E+00
      6.168  0.8221E-01  0.2839E+00
      6.244  0.8262E-01  0.2902E+00
      6.320  0.8099E-01  0.2963E+00
      6.396  0.8091E-01  0.3025E+00
      6.472  0.8049E-01  0.3086E+00
      6.549  0.7779E-01  0.3146E+00
      6.625  0.7473E-01  0.3202E+00
      6.701  0.7230E-01  0.3258E+00
      6.777  0.7139E-01  0.3312E+00
      6.853  0.7129E-01  0.3366E+00
      6.930  0.7268E-01  0.3422E+00
      7.006  0.7122E-01  0.3476E+00
      7.082  0.6941E-01  0.3529E+00
      7.158  0.7290E-01  0.3584E+00
      7.234  0.8070E-01  0.3646E+00
      7.310  0.8879E-01  0.3713E+00
      7.387  0.9461E-01  0.3785E+00
      7.463  0.9479E-01  0.3858E+00
      7.539  0.8903E-01  0.3926E+00
      7.615  0.8172E-01  0.3988E+00
      7.691  0.7560E-01  0.4045E+00
      7.768  0.6645E-01  0.4096E+00
      7.844  0.5379E-01  0.4137E+00
      7.920  0.4419E-01  0.4171E+00
      7.996  0.3643E-01  0.4198E+00
      8.072  0.2658E-01  0.4219E+00
      8.149  0.1679E-01  0.4231E+00
      8.225  0.1210E-01  0.4241E+00
      8.301  0.1212E-01  0.4250E+00
      8.377  0.1169E-01  0.4259E+00
      8.453  0.1148E-01  0.4268E+00
      8.529  0.1248E-01  0.4277E+00
      8.606  0.1294E-01  0.4287E+00
      8.682  0.1174E-01  0.4296E+00
      8.758  0.9518E-02  0.4303E+00
      8.834  0.8312E-02  0.4309E+00
      8.910  0.8691E-02  0.4316E+00
      8.987  0.1086E-01  0.4324E+00
      9.063  0.1365E-01  0.4335E+00
      9.139  0.1386E-01  0.4345E+00
      9.215  0.1173E-01  0.4354E+00
      9.291  0.9928E-02  0.4362E+00
      9.368  0.9750E-02  0.4369E+00
      9.444  0.1059E-01  0.4377E+00
      9.520  0.1123E-01  0.4386E+00
      9.596  0.1141E-01  0.4395E+00
      9.672  0.1131E-01  0.4403E+00
      9.748  0.1138E-01  0.4412E+00
      9.825  0.1096E-01  0.4420E+00
      9.901  0.1008E-01  0.4428E+00
      9.977  0.1037E-01  0.4436E+00
     10.053  0.1151E-01  0.4445E+00
     10.129  0.1206E-01  0.4454E+00
     10.206  0.1182E-01  0.4463E+00
     10.282  0.1090E-01  0.4471E+00
     10.358  0.1021E-01  0.4479E+00
     10.434  0.1027E-01  0.4487E+00
     10.510  0.1057E-01  0.4495E+00
     10.587  0.1131E-01  0.4503E+00
     10.663  0.1172E-01  0.4512E+00
     10.739  0.1133E-01  0.4521E+00
     10.815  0.1117E-01  0.4529E+00
     10.891  0.1075E-01  0.4538E+00
     10.967  0.9828E-02  0.4545E+00
     11.044  0.9588E-02  0.4552E+00
     11.120  0.1061E-01  0.4560E+00
     11.196  0.1153E-01  0.4569E+00
     11.272  0.1142E-01  0.4578E+00
     11.348  0.1102E-01  0.4586E+00
     11.425  0.1057E-01  0.4594E+00
     11.501  0.1009E-01  0.4602E+00
     11.577  0.9327E-02  0.4609E+00
     11.653  0.9278E-02  0.4616E+00
     11.729  0.1049E-01  0.4624E+00
     11.806  0.1125E-01  0.4633E+00
     11.882  0.1094E-01  0.4641E+00
     11.958  0.1105E-01  0.4650E+00
     12.034  0.1299E-01  0.4659E+00
     12.110  0.1450E-01  0.4671E+00
     12.186  0.1384E-01  0.4681E+00
     12.263  0.1292E-01  0.4691E+00
     12.339  0.1288E-01  0.4701E+00
     12.415  0.1246E-01  0.4710E+00
     12.491  0.1143E-01  0.4719E+00
     12.567  0.1123E-01  0.4727E+00
     12.644  0.1139E-01  0.4736E+00
     12.720  0.1097E-01  0.4745E+00
     12.796  0.1051E-01  0.4753E+00
     12.872  0.1057E-01  0.4761E+00
     12.948  0.1060E-01  0.4769E+00
     13.025  0.1001E-01  0.4776E+00
     13.101  0.9924E-02  0.4784E+00
     13.177  0.9907E-02  0.4791E+00
     13.253  0.8959E-02  0.4798E+00
     13.329  0.8293E-02  0.4805E+00
     13.405  0.8503E-02  0.4811E+00
     13.482  0.9616E-02  0.4818E+00
     13.558  0.1137E-01  0.4827E+00
     13.634  0.1291E-01  0.4837E+00
     13.710  0.1429E-01  0.4848E+00
     13.786  0.1473E-01  0.4859E+00
     13.863  0.1395E-01  0.4870E+00
     13.939  0.1195E-01  0.4879E+00
     14.015  0.1005E-01  0.4886E+00
     14.091  0.9419E-02  0.4894E+00
     14.167  0.9969E-02  0.4901E+00
     14.244  0.1131E-01  0.4910E+00
     14.320  0.1239E-01  0.4919E+00
     14.396  0.1269E-01  0.4929E+00
     14.472  0.1212E-01  0.4938E+00
     14.548  0.1133E-01  0.4947E+00
     14.624  0.1143E-01  0.4955E+00
     14.701  0.1200E-01  0.4965E+00
     14.777  0.1272E-01  0.4974E+00
     14.853  0.1328E-01  0.4984E+00
     14.929  0.1287E-01  0.4994E+00
     15.005  0.1251E-01  0.5004E+00
     15.082  0.1381E-01  0.5014E+00
     15.158  0.1519E-01  0.5026E+00
     15.234  0.1546E-01  0.5038E+00
     15.310  0.1537E-01  0.5049E+00
     15.386  0.1489E-01  0.5061E+00
     15.463  0.1411E-01  0.5071E+00
     15.539  0.1331E-01  0.5082E+00
     15.615  0.1228E-01  0.5091E+00
     15.691  0.1168E-01  0.5100E+00
     15.767  0.1134E-01  0.5108E+00
     15.843  0.1131E-01  0.5117E+00
     15.920  0.1186E-01  0.5126E+00
     15.996  0.1264E-01  0.5136E+00
     16.072  0.1235E-01  0.5145E+00
     16.148  0.1111E-01  0.5154E+00
     16.224  0.1054E-01  0.5162E+00
     16.301  0.1095E-01  0.5170E+00
     16.377  0.1202E-01  0.5179E+00
     16.453  0.1267E-01  0.5189E+00
     16.529  0.1172E-01  0.5198E+00
     16.605  0.1046E-01  0.5206E+00
     16.681  0.1005E-01  0.5213E+00
     16.758  0.1040E-01  0.5221E+00
     16.834  0.1117E-01  0.5230E+00
     16.910  0.1158E-01  0.5239E+00
     16.986  0.1189E-01  0.5248E+00
     17.062  0.1196E-01  0.5257E+00
     17.139  0.1167E-01  0.5266E+00
     17.215  0.1099E-01  0.5274E+00
     17.291  0.1011E-01  0.5282E+00
     17.367  0.9451E-02  0.5289E+00
     17.443  0.8672E-02  0.5296E+00
     17.520  0.8633E-02  0.5302E+00
     17.596  0.9276E-02  0.5309E+00
     17.672  0.1010E-01  0.5317E+00
     17.748  0.1062E-01  0.5325E+00
     17.824  0.9904E-02  0.5332E+00
     17.900  0.9251E-02  0.5340E+00
     17.977  0.9372E-02  0.5347E+00
     18.053  0.9473E-02  0.5354E+00
     18.129  0.8767E-02  0.5361E+00
     18.205  0.6940E-02  0.5366E+00
     18.281  0.5147E-02  0.5370E+00
     18.358  0.4229E-02  0.5373E+00
     18.434  0.3975E-02  0.5376E+00
     18.510  0.4211E-02  0.5379E+00
     18.586  0.4045E-02  0.5382E+00
     18.662  0.3201E-02  0.5385E+00
     18.739  0.2403E-02  0.5387E+00
     18.815  0.1994E-02  0.5388E+00
     18.891  0.1994E-02  0.5390E+00
     18.967  0.2004E-02  0.5391E+00
     19.043  0.1906E-02  0.5393E+00
     19.119  0.1646E-02  0.5394E+00
     19.196  0.1159E-02  0.5395E+00
     19.272  0.8326E-03  0.5395E+00
     19.348  0.7638E-03  0.5396E+00
     19.424  0.6026E-03  0.5396E+00
     19.500  0.5523E-03  0.5397E+00
     19.577  0.7490E-03  0.5397E+00
     19.653  0.7355E-03  0.5398E+00
     19.729  0.4129E-03  0.5398E+00
     19.805  0.1885E-03  0.5398E+00
     19.881  0.1385E-03  0.5399E+00
     19.958  0.8560E-04  0.5399E+00
     20.034  0.9750E-04  0.5399E+00
     20.110  0.1475E-03  0.5399E+00
     20.186  0.1981E-03  0.5399E+00
     20.262  0.2871E-03  0.5399E+00
     20.338  0.3285E-03  0.5399E+00
     20.415  0.3548E-03  0.5400E+00
     20.491  0.3005E-03  0.5400E+00
     20.567  0.1186E-03  0.5400E+00
     20.643  0.1764E-04  0.5400E+00
     20.719  0.9256E-06  0.5400E+00
     20.796  0.1657E-07  0.5400E+00
     20.872  0.9898E-10  0.5400E+00
     20.948  0.1943E-12  0.5400E+00
     21.024  0.1240E-15  0.5400E+00
     21.100  0.1727E-19  0.5400E+00
     21.177  0.0000E+00  0.5400E+00
     21.253  0.0000E+00  0.5400E+00
     21.329  0.0000E+00  0.5400E+00
     21.405  0.0000E+00  0.5400E+00
     21.481  0.0000E+00  0.5400E+00
