       N       E                     dE             d eps       ncg     rms          rms(c)
DAV:   1     0.279771772552E+03    0.27977E+03   -0.22795E+04 92106   0.153E+03
DAV:   2    -0.860341671417E+01   -0.28838E+03   -0.28074E+03104769   0.334E+02
DAV:   3    -0.136416947445E+02   -0.50383E+01   -0.50069E+01102024   0.467E+01
DAV:   4    -0.136696497427E+02   -0.27955E-01   -0.27946E-01104886   0.359E+00
DAV:   5    -0.136699089163E+02   -0.25917E-03   -0.25917E-03107550   0.360E-01    0.196E+01
RMM:   6    -0.126750392087E+02    0.99487E+00   -0.23881E+00 91152   0.103E+01    0.124E+01
RMM:   7    -0.125964316738E+02    0.78608E-01   -0.41109E-01 91185   0.411E+00    0.481E+00
RMM:   8    -0.125846306811E+02    0.11801E-01   -0.25955E-02 91176   0.107E+00    0.581E-01
RMM:   9    -0.125845246718E+02    0.10601E-03   -0.20348E-04 91230   0.773E-02    0.510E-02
RMM:  10    -0.125845342115E+02   -0.95397E-05   -0.15583E-05 91145   0.310E-02    0.429E-02
RMM:  11    -0.125845370901E+02   -0.28786E-05   -0.56187E-07 50098   0.460E-03    0.135E-03
RMM:  12    -0.125845369504E+02    0.13976E-06   -0.14332E-07 48140   0.255E-03
   1 F= -.12584537E+02 E0= -.12581713E+02  d E =-.125845E+02
