   4   4   0   0
  0.1840439E+02  0.4270157E-09  0.4155953E-09  0.4154382E-09  0.2000000E-15
  1.000000000000000E-004
  CAR 
 unknown system                          
     18.75948722     -1.82804799  301      8.25771199      1.00000000
     -1.828  0.0000E+00  0.0000E+00
     -1.759  0.0000E+00  0.0000E+00
     -1.691  0.0000E+00  0.0000E+00
     -1.622  0.0000E+00  0.0000E+00
     -1.554  0.0000E+00  0.0000E+00
     -1.485  0.0000E+00  0.0000E+00
     -1.416  0.4794E-20  0.3290E-21
     -1.348  0.8882E-17  0.6099E-18
     -1.279  0.8156E-14  0.5603E-15
     -1.210  0.3042E-11  0.2093E-12
     -1.142  0.4718E-09  0.3259E-10
     -1.073  0.3150E-07  0.2194E-08
     -1.005  0.9489E-06  0.6731E-07
     -0.936  0.1361E-04  0.1001E-05
     -0.867  0.9782E-04  0.7714E-05
     -0.799  0.3693E-03  0.3306E-04
     -0.730  0.7920E-03  0.8741E-04
     -0.661  0.1191E-02  0.1691E-03
     -0.593  0.1631E-02  0.2811E-03
     -0.524  0.1899E-02  0.4114E-03
     -0.456  0.1930E-02  0.5439E-03
     -0.387  0.2322E-02  0.7032E-03
     -0.318  0.2742E-02  0.8914E-03
     -0.250  0.2819E-02  0.1085E-02
     -0.181  0.2899E-02  0.1284E-02
     -0.112  0.2919E-02  0.1484E-02
     -0.044  0.3198E-02  0.1704E-02
      0.025  0.3872E-02  0.1969E-02
      0.093  0.4189E-02  0.2257E-02
      0.162  0.3956E-02  0.2528E-02
      0.231  0.3578E-02  0.2774E-02
      0.299  0.3894E-02  0.3041E-02
      0.368  0.4887E-02  0.3376E-02
      0.437  0.5351E-02  0.3744E-02
      0.505  0.5241E-02  0.4103E-02
      0.574  0.5164E-02  0.4458E-02
      0.642  0.5133E-02  0.4810E-02
      0.711  0.5545E-02  0.5190E-02
      0.780  0.5990E-02  0.5601E-02
      0.848  0.6314E-02  0.6035E-02
      0.917  0.7023E-02  0.6517E-02
      0.986  0.7675E-02  0.7043E-02
      1.054  0.7610E-02  0.7566E-02
      1.123  0.7464E-02  0.8078E-02
      1.191  0.7915E-02  0.8621E-02
      1.260  0.8961E-02  0.9236E-02
      1.329  0.1029E-01  0.9942E-02
      1.397  0.1167E-01  0.1074E-01
      1.466  0.1334E-01  0.1166E-01
      1.535  0.1556E-01  0.1273E-01
      1.603  0.1909E-01  0.1404E-01
      1.672  0.2316E-01  0.1563E-01
      1.740  0.2636E-01  0.1743E-01
      1.809  0.2945E-01  0.1945E-01
      1.878  0.3332E-01  0.2174E-01
      1.946  0.3870E-01  0.2440E-01
      2.015  0.4571E-01  0.2753E-01
      2.084  0.5220E-01  0.3112E-01
      2.152  0.5931E-01  0.3519E-01
      2.221  0.6696E-01  0.3978E-01
      2.289  0.7348E-01  0.4482E-01
      2.358  0.7817E-01  0.5019E-01
      2.427  0.7959E-01  0.5565E-01
      2.495  0.7912E-01  0.6108E-01
      2.564  0.7868E-01  0.6648E-01
      2.633  0.7541E-01  0.7166E-01
      2.701  0.7218E-01  0.7661E-01
      2.770  0.7147E-01  0.8151E-01
      2.838  0.6948E-01  0.8628E-01
      2.907  0.6619E-01  0.9082E-01
      2.976  0.6144E-01  0.9504E-01
      3.044  0.5751E-01  0.9899E-01
      3.113  0.5901E-01  0.1030E+00
      3.182  0.6429E-01  0.1074E+00
      3.250  0.7095E-01  0.1123E+00
      3.319  0.7976E-01  0.1178E+00
      3.387  0.8768E-01  0.1238E+00
      3.456  0.9215E-01  0.1301E+00
      3.525  0.9411E-01  0.1366E+00
      3.593  0.9411E-01  0.1430E+00
      3.662  0.9585E-01  0.1496E+00
      3.731  0.9787E-01  0.1563E+00
      3.799  0.9635E-01  0.1630E+00
      3.868  0.9197E-01  0.1693E+00
      3.936  0.9215E-01  0.1756E+00
      4.005  0.1021E+00  0.1826E+00
      4.074  0.1158E+00  0.1905E+00
      4.142  0.1213E+00  0.1989E+00
      4.211  0.1165E+00  0.2069E+00
      4.280  0.1101E+00  0.2144E+00
      4.348  0.1073E+00  0.2218E+00
      4.417  0.1051E+00  0.2290E+00
      4.485  0.1004E+00  0.2359E+00
      4.554  0.9308E-01  0.2423E+00
      4.623  0.8411E-01  0.2480E+00
      4.691  0.7777E-01  0.2534E+00
      4.760  0.7625E-01  0.2586E+00
      4.829  0.7789E-01  0.2640E+00
      4.897  0.8190E-01  0.2696E+00
      4.966  0.8754E-01  0.2756E+00
      5.034  0.9285E-01  0.2820E+00
      5.103  0.9721E-01  0.2886E+00
      5.172  0.9878E-01  0.2954E+00
      5.240  0.9481E-01  0.3019E+00
      5.309  0.8966E-01  0.3081E+00
      5.378  0.8848E-01  0.3141E+00
      5.446  0.8761E-01  0.3202E+00
      5.515  0.8396E-01  0.3259E+00
      5.583  0.7881E-01  0.3313E+00
      5.652  0.7473E-01  0.3364E+00
      5.721  0.7539E-01  0.3416E+00
      5.789  0.7858E-01  0.3470E+00
      5.858  0.7933E-01  0.3525E+00
      5.927  0.8083E-01  0.3580E+00
      5.995  0.8826E-01  0.3641E+00
      6.064  0.9726E-01  0.3707E+00
      6.132  0.1044E+00  0.3779E+00
      6.201  0.1132E+00  0.3857E+00
      6.270  0.1190E+00  0.3938E+00
      6.338  0.1124E+00  0.4016E+00
      6.407  0.9501E-01  0.4081E+00
      6.476  0.7432E-01  0.4132E+00
      6.544  0.5333E-01  0.4168E+00
      6.613  0.3597E-01  0.4193E+00
      6.681  0.2551E-01  0.4211E+00
      6.750  0.1899E-01  0.4224E+00
      6.819  0.1390E-01  0.4233E+00
      6.887  0.1024E-01  0.4240E+00
      6.956  0.9509E-02  0.4247E+00
      7.025  0.1108E-01  0.4254E+00
      7.093  0.1258E-01  0.4263E+00
      7.162  0.1264E-01  0.4272E+00
      7.230  0.1179E-01  0.4280E+00
      7.299  0.1113E-01  0.4287E+00
      7.368  0.1122E-01  0.4295E+00
      7.436  0.1189E-01  0.4303E+00
      7.505  0.1238E-01  0.4312E+00
      7.574  0.1235E-01  0.4320E+00
      7.642  0.1177E-01  0.4328E+00
      7.711  0.1120E-01  0.4336E+00
      7.779  0.1121E-01  0.4344E+00
      7.848  0.1174E-01  0.4352E+00
      7.917  0.1209E-01  0.4360E+00
      7.985  0.1234E-01  0.4368E+00
      8.054  0.1241E-01  0.4377E+00
      8.123  0.1179E-01  0.4385E+00
      8.191  0.1110E-01  0.4393E+00
      8.260  0.1111E-01  0.4400E+00
      8.328  0.1185E-01  0.4408E+00
      8.397  0.1220E-01  0.4417E+00
      8.466  0.1202E-01  0.4425E+00
      8.534  0.1205E-01  0.4433E+00
      8.603  0.1209E-01  0.4442E+00
      8.672  0.1188E-01  0.4450E+00
      8.740  0.1183E-01  0.4458E+00
      8.809  0.1159E-01  0.4466E+00
      8.877  0.1103E-01  0.4473E+00
      8.946  0.1115E-01  0.4481E+00
      9.015  0.1152E-01  0.4489E+00
      9.083  0.1154E-01  0.4497E+00
      9.152  0.1164E-01  0.4505E+00
      9.221  0.1173E-01  0.4513E+00
      9.289  0.1184E-01  0.4521E+00
      9.358  0.1201E-01  0.4529E+00
      9.426  0.1199E-01  0.4537E+00
      9.495  0.1171E-01  0.4546E+00
      9.564  0.1145E-01  0.4553E+00
      9.632  0.1141E-01  0.4561E+00
      9.701  0.1102E-01  0.4569E+00
      9.770  0.1044E-01  0.4576E+00
      9.838  0.1086E-01  0.4583E+00
      9.907  0.1189E-01  0.4592E+00
      9.975  0.1201E-01  0.4600E+00
     10.044  0.1136E-01  0.4608E+00
     10.113  0.1112E-01  0.4615E+00
     10.181  0.1111E-01  0.4623E+00
     10.250  0.1084E-01  0.4630E+00
     10.319  0.1096E-01  0.4638E+00
     10.387  0.1106E-01  0.4645E+00
     10.456  0.1081E-01  0.4653E+00
     10.524  0.1083E-01  0.4660E+00
     10.593  0.1225E-01  0.4669E+00
     10.662  0.1501E-01  0.4679E+00
     10.730  0.1595E-01  0.4690E+00
     10.799  0.1392E-01  0.4699E+00
     10.868  0.1149E-01  0.4707E+00
     10.936  0.1133E-01  0.4715E+00
     11.005  0.1301E-01  0.4724E+00
     11.073  0.1411E-01  0.4734E+00
     11.142  0.1360E-01  0.4743E+00
     11.211  0.1300E-01  0.4752E+00
     11.279  0.1418E-01  0.4762E+00
     11.348  0.1563E-01  0.4772E+00
     11.417  0.1480E-01  0.4783E+00
     11.485  0.1363E-01  0.4792E+00
     11.554  0.1369E-01  0.4801E+00
     11.622  0.1376E-01  0.4811E+00
     11.691  0.1315E-01  0.4820E+00
     11.760  0.1247E-01  0.4828E+00
     11.828  0.1212E-01  0.4837E+00
     11.897  0.1153E-01  0.4845E+00
     11.966  0.1083E-01  0.4852E+00
     12.034  0.1075E-01  0.4859E+00
     12.103  0.1104E-01  0.4867E+00
     12.171  0.1102E-01  0.4875E+00
     12.240  0.1023E-01  0.4882E+00
     12.309  0.9733E-02  0.4888E+00
     12.377  0.1091E-01  0.4896E+00
     12.446  0.1185E-01  0.4904E+00
     12.515  0.1129E-01  0.4912E+00
     12.583  0.1116E-01  0.4919E+00
     12.652  0.1182E-01  0.4927E+00
     12.720  0.1204E-01  0.4936E+00
     12.789  0.1158E-01  0.4944E+00
     12.858  0.1171E-01  0.4952E+00
     12.926  0.1319E-01  0.4961E+00
     12.995  0.1465E-01  0.4971E+00
     13.064  0.1447E-01  0.4981E+00
     13.132  0.1384E-01  0.4990E+00
     13.201  0.1483E-01  0.5000E+00
     13.269  0.1605E-01  0.5011E+00
     13.338  0.1545E-01  0.5022E+00
     13.407  0.1422E-01  0.5032E+00
     13.475  0.1388E-01  0.5041E+00
     13.544  0.1461E-01  0.5051E+00
     13.613  0.1476E-01  0.5061E+00
     13.681  0.1424E-01  0.5071E+00
     13.750  0.1428E-01  0.5081E+00
     13.818  0.1410E-01  0.5091E+00
     13.887  0.1307E-01  0.5100E+00
     13.956  0.1304E-01  0.5109E+00
     14.024  0.1374E-01  0.5118E+00
     14.093  0.1291E-01  0.5127E+00
     14.162  0.1135E-01  0.5135E+00
     14.230  0.1115E-01  0.5142E+00
     14.299  0.1192E-01  0.5150E+00
     14.367  0.1194E-01  0.5159E+00
     14.436  0.1073E-01  0.5166E+00
     14.505  0.9481E-02  0.5173E+00
     14.573  0.9315E-02  0.5179E+00
     14.642  0.1015E-01  0.5186E+00
     14.711  0.1136E-01  0.5194E+00
     14.779  0.1217E-01  0.5202E+00
     14.848  0.1214E-01  0.5210E+00
     14.916  0.1151E-01  0.5218E+00
     14.985  0.1100E-01  0.5226E+00
     15.054  0.1056E-01  0.5233E+00
     15.122  0.1066E-01  0.5240E+00
     15.191  0.1142E-01  0.5248E+00
     15.260  0.1192E-01  0.5256E+00
     15.328  0.1205E-01  0.5265E+00
     15.397  0.1176E-01  0.5273E+00
     15.465  0.1062E-01  0.5280E+00
     15.534  0.9744E-02  0.5287E+00
     15.603  0.9848E-02  0.5293E+00
     15.671  0.1112E-01  0.5301E+00
     15.740  0.1298E-01  0.5310E+00
     15.809  0.1330E-01  0.5319E+00
     15.877  0.1184E-01  0.5327E+00
     15.946  0.1057E-01  0.5335E+00
     16.014  0.1002E-01  0.5341E+00
     16.083  0.9148E-02  0.5348E+00
     16.152  0.8176E-02  0.5353E+00
     16.220  0.7281E-02  0.5358E+00
     16.289  0.6494E-02  0.5363E+00
     16.358  0.6018E-02  0.5367E+00
     16.426  0.6155E-02  0.5371E+00
     16.495  0.6459E-02  0.5376E+00
     16.563  0.6096E-02  0.5380E+00
     16.632  0.5248E-02  0.5383E+00
     16.701  0.4349E-02  0.5386E+00
     16.769  0.3395E-02  0.5389E+00
     16.838  0.2848E-02  0.5391E+00
     16.907  0.2835E-02  0.5393E+00
     16.975  0.2331E-02  0.5394E+00
     17.044  0.1234E-02  0.5395E+00
     17.112  0.5568E-03  0.5395E+00
     17.181  0.6234E-03  0.5396E+00
     17.250  0.9744E-03  0.5396E+00
     17.318  0.1159E-02  0.5397E+00
     17.387  0.1228E-02  0.5398E+00
     17.456  0.1163E-02  0.5399E+00
     17.524  0.8028E-03  0.5399E+00
     17.593  0.4072E-03  0.5400E+00
     17.661  0.1975E-03  0.5400E+00
     17.730  0.1099E-03  0.5400E+00
     17.799  0.7737E-04  0.5400E+00
     17.867  0.4027E-04  0.5400E+00
     17.936  0.9945E-05  0.5400E+00
     18.005  0.1040E-05  0.5400E+00
     18.073  0.4474E-07  0.5400E+00
     18.142  0.7819E-09  0.5400E+00
     18.210  0.5501E-11  0.5400E+00
     18.279  0.1547E-13  0.5400E+00
     18.348  0.1729E-16  0.5400E+00
     18.416  0.0000E+00  0.5400E+00
     18.485  0.0000E+00  0.5400E+00
     18.554  0.0000E+00  0.5400E+00
     18.622  0.0000E+00  0.5400E+00
     18.691  0.0000E+00  0.5400E+00
     18.759  0.0000E+00  0.5400E+00
