   4   4   0   0
  0.1263658E+02  0.3697401E-09  0.3697400E-09  0.3697400E-09  0.2000000E-15
  1.000000000000000E-004
  CAR 
 unknown system                          
     28.69670483      0.61689609  301     15.63338931      1.00000000
      0.617  0.0000E+00  0.0000E+00
      0.710  0.0000E+00  0.0000E+00
      0.804  0.0000E+00  0.0000E+00
      0.898  0.0000E+00  0.0000E+00
      0.991  0.0000E+00  0.0000E+00
      1.085  0.0000E+00  0.0000E+00
      1.178  0.0000E+00  0.0000E+00
      1.272  0.0000E+00  0.0000E+00
      1.366  0.2720E-17  0.2546E-18
      1.459  0.2680E-13  0.2509E-14
      1.553  0.4821E-10  0.4515E-11
      1.646  0.1673E-07  0.1570E-08
      1.740  0.1266E-05  0.1201E-06
      1.834  0.2618E-04  0.2571E-05
      1.927  0.1892E-03  0.2028E-04
      2.021  0.5534E-03  0.7208E-04
      2.114  0.7797E-03  0.1451E-03
      2.208  0.1046E-02  0.2430E-03
      2.302  0.1500E-02  0.3834E-03
      2.395  0.1218E-02  0.4974E-03
      2.489  0.1430E-02  0.6313E-03
      2.582  0.2047E-02  0.8229E-03
      2.676  0.1955E-02  0.1006E-02
      2.770  0.2035E-02  0.1196E-02
      2.863  0.2271E-02  0.1409E-02
      2.957  0.1778E-02  0.1575E-02
      3.050  0.2671E-02  0.1825E-02
      3.144  0.3112E-02  0.2117E-02
      3.238  0.3182E-02  0.2414E-02
      3.331  0.2845E-02  0.2681E-02
      3.425  0.2003E-02  0.2868E-02
      3.518  0.3298E-02  0.3177E-02
      3.612  0.4408E-02  0.3590E-02
      3.706  0.4003E-02  0.3964E-02
      3.799  0.3619E-02  0.4303E-02
      3.893  0.3727E-02  0.4652E-02
      3.986  0.4332E-02  0.5057E-02
      4.080  0.4785E-02  0.5505E-02
      4.174  0.4726E-02  0.5947E-02
      4.267  0.4428E-02  0.6362E-02
      4.361  0.6588E-02  0.6979E-02
      4.454  0.7259E-02  0.7658E-02
      4.548  0.5803E-02  0.8201E-02
      4.642  0.6460E-02  0.8806E-02
      4.735  0.9656E-02  0.9709E-02
      4.829  0.1713E-01  0.1131E-01
      4.922  0.2187E-01  0.1336E-01
      5.016  0.2142E-01  0.1536E-01
      5.110  0.2625E-01  0.1782E-01
      5.203  0.2931E-01  0.2056E-01
      5.297  0.3169E-01  0.2353E-01
      5.390  0.3568E-01  0.2687E-01
      5.484  0.4086E-01  0.3069E-01
      5.578  0.4698E-01  0.3509E-01
      5.671  0.4966E-01  0.3974E-01
      5.765  0.5443E-01  0.4483E-01
      5.858  0.5775E-01  0.5024E-01
      5.952  0.5311E-01  0.5521E-01
      6.046  0.5461E-01  0.6032E-01
      6.139  0.5388E-01  0.6536E-01
      6.233  0.4525E-01  0.6960E-01
      6.326  0.4649E-01  0.7395E-01
      6.420  0.4974E-01  0.7861E-01
      6.514  0.4555E-01  0.8287E-01
      6.607  0.4198E-01  0.8680E-01
      6.701  0.4382E-01  0.9090E-01
      6.794  0.4099E-01  0.9474E-01
      6.888  0.3032E-01  0.9758E-01
      6.982  0.2902E-01  0.1003E+00
      7.075  0.3533E-01  0.1036E+00
      7.169  0.3985E-01  0.1073E+00
      7.262  0.3929E-01  0.1110E+00
      7.356  0.4123E-01  0.1149E+00
      7.450  0.4813E-01  0.1194E+00
      7.543  0.4878E-01  0.1239E+00
      7.637  0.4633E-01  0.1283E+00
      7.730  0.4943E-01  0.1329E+00
      7.824  0.4922E-01  0.1375E+00
      7.918  0.4022E-01  0.1413E+00
      8.011  0.4391E-01  0.1454E+00
      8.105  0.5019E-01  0.1501E+00
      8.198  0.5005E-01  0.1548E+00
      8.292  0.5281E-01  0.1597E+00
      8.386  0.5016E-01  0.1644E+00
      8.479  0.4638E-01  0.1687E+00
      8.573  0.5133E-01  0.1735E+00
      8.666  0.5749E-01  0.1789E+00
      8.760  0.6433E-01  0.1849E+00
      8.854  0.6878E-01  0.1914E+00
      8.947  0.6925E-01  0.1979E+00
      9.041  0.7219E-01  0.2046E+00
      9.134  0.8141E-01  0.2122E+00
      9.228  0.8249E-01  0.2200E+00
      9.322  0.7263E-01  0.2268E+00
      9.415  0.5410E-01  0.2318E+00
      9.509  0.4894E-01  0.2364E+00
      9.602  0.4884E-01  0.2410E+00
      9.696  0.4257E-01  0.2450E+00
      9.790  0.4091E-01  0.2488E+00
      9.883  0.4149E-01  0.2527E+00
      9.977  0.4169E-01  0.2566E+00
     10.070  0.3828E-01  0.2602E+00
     10.164  0.3713E-01  0.2636E+00
     10.258  0.4010E-01  0.2674E+00
     10.351  0.3950E-01  0.2711E+00
     10.445  0.4354E-01  0.2752E+00
     10.538  0.4952E-01  0.2798E+00
     10.632  0.5008E-01  0.2845E+00
     10.726  0.4734E-01  0.2889E+00
     10.819  0.4991E-01  0.2936E+00
     10.913  0.5601E-01  0.2988E+00
     11.006  0.5224E-01  0.3037E+00
     11.100  0.4737E-01  0.3082E+00
     11.194  0.4093E-01  0.3120E+00
     11.287  0.4061E-01  0.3158E+00
     11.381  0.4215E-01  0.3197E+00
     11.474  0.4252E-01  0.3237E+00
     11.568  0.4282E-01  0.3277E+00
     11.662  0.3763E-01  0.3312E+00
     11.755  0.3383E-01  0.3344E+00
     11.849  0.3249E-01  0.3374E+00
     11.942  0.3898E-01  0.3411E+00
     12.036  0.4109E-01  0.3449E+00
     12.130  0.3820E-01  0.3485E+00
     12.223  0.3972E-01  0.3522E+00
     12.317  0.3486E-01  0.3555E+00
     12.410  0.3099E-01  0.3584E+00
     12.504  0.3889E-01  0.3620E+00
     12.598  0.4934E-01  0.3667E+00
     12.691  0.4697E-01  0.3711E+00
     12.785  0.4219E-01  0.3750E+00
     12.878  0.4511E-01  0.3792E+00
     12.972  0.6109E-01  0.3849E+00
     13.066  0.7513E-01  0.3920E+00
     13.159  0.6761E-01  0.3983E+00
     13.253  0.5625E-01  0.4036E+00
     13.346  0.5025E-01  0.4083E+00
     13.440  0.4956E-01  0.4129E+00
     13.534  0.3777E-01  0.4164E+00
     13.627  0.3114E-01  0.4194E+00
     13.721  0.2963E-01  0.4221E+00
     13.814  0.1768E-01  0.4238E+00
     13.908  0.7445E-02  0.4245E+00
     14.002  0.4779E-02  0.4249E+00
     14.095  0.6385E-02  0.4255E+00
     14.189  0.1084E-01  0.4265E+00
     14.282  0.1849E-01  0.4283E+00
     14.376  0.1475E-01  0.4297E+00
     14.470  0.6598E-02  0.4303E+00
     14.563  0.2920E-02  0.4305E+00
     14.657  0.3966E-02  0.4309E+00
     14.750  0.6318E-02  0.4315E+00
     14.844  0.7693E-02  0.4322E+00
     14.938  0.1221E-01  0.4334E+00
     15.031  0.1400E-01  0.4347E+00
     15.125  0.1112E-01  0.4357E+00
     15.218  0.8444E-02  0.4365E+00
     15.312  0.8256E-02  0.4373E+00
     15.406  0.8090E-02  0.4380E+00
     15.499  0.7337E-02  0.4387E+00
     15.593  0.9350E-02  0.4396E+00
     15.686  0.9114E-02  0.4405E+00
     15.780  0.8163E-02  0.4412E+00
     15.874  0.8549E-02  0.4420E+00
     15.967  0.9430E-02  0.4429E+00
     16.061  0.9545E-02  0.4438E+00
     16.154  0.1106E-01  0.4448E+00
     16.248  0.1104E-01  0.4459E+00
     16.342  0.6717E-02  0.4465E+00
     16.435  0.7763E-02  0.4472E+00
     16.529  0.1194E-01  0.4483E+00
     16.622  0.9111E-02  0.4492E+00
     16.716  0.5918E-02  0.4497E+00
     16.810  0.8564E-02  0.4505E+00
     16.903  0.1004E-01  0.4515E+00
     16.997  0.1013E-01  0.4524E+00
     17.090  0.1172E-01  0.4535E+00
     17.184  0.8217E-02  0.4543E+00
     17.278  0.5145E-02  0.4548E+00
     17.371  0.7507E-02  0.4555E+00
     17.465  0.8690E-02  0.4563E+00
     17.558  0.8696E-02  0.4571E+00
     17.652  0.1079E-01  0.4581E+00
     17.746  0.1102E-01  0.4592E+00
     17.839  0.8031E-02  0.4599E+00
     17.933  0.6096E-02  0.4605E+00
     18.026  0.8393E-02  0.4613E+00
     18.120  0.9378E-02  0.4621E+00
     18.214  0.7229E-02  0.4628E+00
     18.307  0.8788E-02  0.4636E+00
     18.401  0.8739E-02  0.4645E+00
     18.494  0.6517E-02  0.4651E+00
     18.588  0.5312E-02  0.4656E+00
     18.682  0.6930E-02  0.4662E+00
     18.775  0.8331E-02  0.4670E+00
     18.869  0.9231E-02  0.4679E+00
     18.962  0.8230E-02  0.4686E+00
     19.056  0.8685E-02  0.4694E+00
     19.150  0.6625E-02  0.4701E+00
     19.243  0.5870E-02  0.4706E+00
     19.337  0.6304E-02  0.4712E+00
     19.430  0.6153E-02  0.4718E+00
     19.524  0.6365E-02  0.4724E+00
     19.618  0.6055E-02  0.4729E+00
     19.711  0.6738E-02  0.4736E+00
     19.805  0.7234E-02  0.4742E+00
     19.898  0.6048E-02  0.4748E+00
     19.992  0.6992E-02  0.4755E+00
     20.086  0.1016E-01  0.4764E+00
     20.179  0.1223E-01  0.4776E+00
     20.273  0.1420E-01  0.4789E+00
     20.366  0.1793E-01  0.4806E+00
     20.460  0.1654E-01  0.4821E+00
     20.554  0.1162E-01  0.4832E+00
     20.647  0.1343E-01  0.4845E+00
     20.741  0.1409E-01  0.4858E+00
     20.834  0.9573E-02  0.4867E+00
     20.928  0.8148E-02  0.4874E+00
     21.022  0.1138E-01  0.4885E+00
     21.115  0.1178E-01  0.4896E+00
     21.209  0.1113E-01  0.4906E+00
     21.302  0.1273E-01  0.4918E+00
     21.396  0.1245E-01  0.4930E+00
     21.490  0.1111E-01  0.4940E+00
     21.583  0.9995E-02  0.4950E+00
     21.677  0.6712E-02  0.4956E+00
     21.770  0.7048E-02  0.4963E+00
     21.864  0.1038E-01  0.4972E+00
     21.958  0.1337E-01  0.4985E+00
     22.051  0.1388E-01  0.4998E+00
     22.145  0.1186E-01  0.5009E+00
     22.238  0.1114E-01  0.5019E+00
     22.332  0.1086E-01  0.5030E+00
     22.426  0.8713E-02  0.5038E+00
     22.519  0.8727E-02  0.5046E+00
     22.613  0.8334E-02  0.5054E+00
     22.706  0.1112E-01  0.5064E+00
     22.800  0.1404E-01  0.5077E+00
     22.894  0.1394E-01  0.5090E+00
     22.987  0.1381E-01  0.5103E+00
     23.081  0.1129E-01  0.5114E+00
     23.174  0.7314E-02  0.5121E+00
     23.268  0.6854E-02  0.5127E+00
     23.362  0.6557E-02  0.5133E+00
     23.455  0.6655E-02  0.5139E+00
     23.549  0.8714E-02  0.5148E+00
     23.642  0.1153E-01  0.5158E+00
     23.736  0.1302E-01  0.5171E+00
     23.830  0.1306E-01  0.5183E+00
     23.923  0.8950E-02  0.5191E+00
     24.017  0.8581E-02  0.5199E+00
     24.110  0.8824E-02  0.5207E+00
     24.204  0.5957E-02  0.5213E+00
     24.298  0.5062E-02  0.5218E+00
     24.391  0.6839E-02  0.5224E+00
     24.485  0.8362E-02  0.5232E+00
     24.578  0.1157E-01  0.5243E+00
     24.672  0.1572E-01  0.5258E+00
     24.766  0.1266E-01  0.5269E+00
     24.859  0.1017E-01  0.5279E+00
     24.953  0.8587E-02  0.5287E+00
     25.046  0.6762E-02  0.5293E+00
     25.140  0.7273E-02  0.5300E+00
     25.234  0.8843E-02  0.5308E+00
     25.327  0.7270E-02  0.5315E+00
     25.421  0.5497E-02  0.5320E+00
     25.514  0.6464E-02  0.5326E+00
     25.608  0.1050E-01  0.5336E+00
     25.702  0.1542E-01  0.5351E+00
     25.795  0.1484E-01  0.5365E+00
     25.889  0.8984E-02  0.5373E+00
     25.982  0.4480E-02  0.5377E+00
     26.076  0.2068E-02  0.5379E+00
     26.170  0.1738E-02  0.5381E+00
     26.263  0.8065E-03  0.5381E+00
     26.357  0.4552E-03  0.5382E+00
     26.450  0.1294E-02  0.5383E+00
     26.544  0.2509E-02  0.5385E+00
     26.638  0.4389E-02  0.5390E+00
     26.731  0.5149E-02  0.5394E+00
     26.825  0.2588E-02  0.5397E+00
     26.918  0.3711E-03  0.5397E+00
     27.012  0.1376E-04  0.5397E+00
     27.106  0.6535E-04  0.5397E+00
     27.199  0.6022E-03  0.5398E+00
     27.293  0.1274E-02  0.5399E+00
     27.386  0.7617E-03  0.5400E+00
     27.480  0.2677E-03  0.5400E+00
     27.574  0.6253E-04  0.5400E+00
     27.667  0.4200E-05  0.5400E+00
     27.761  0.5993E-07  0.5400E+00
     27.854  0.1668E-09  0.5400E+00
     27.948  0.8696E-13  0.5400E+00
     28.042  0.8308E-17  0.5400E+00
     28.135  0.0000E+00  0.5400E+00
     28.229  0.0000E+00  0.5400E+00
     28.322  0.0000E+00  0.5400E+00
     28.416  0.0000E+00  0.5400E+00
     28.510  0.0000E+00  0.5400E+00
     28.603  0.0000E+00  0.5400E+00
     28.697  0.0000E+00  0.5400E+00
