    4    4  100    1
  0.1263658E+02  0.3697401E-09  0.3697400E-09  0.3697400E-09  0.2000000E-15
  1.000000000000000E-004
  CAR 
 unknown system                          
     44   1688     27
 
  0.0000000E+00  0.0000000E+00  0.0000000E+00  0.2962963E-03
    1        1.893251   1.000000
    2        4.845933   1.000000
    3        4.845933   1.000000
    4        4.845933   1.000000
    5        5.341927   1.000000
    6        5.341927   1.000000
    7        5.341927   1.000000
    8        8.675330   1.000000
    9        8.675331   1.000000
   10        8.675332   1.000000
   11       11.219223   1.000000
   12       11.219224   1.000000
   13       13.179999   1.000000
   14       13.179999   1.000000
   15       13.179999   1.000000
   16       13.791876   1.000000
   17       13.791876   1.000000
   18       13.791876   1.000000
   19       13.791877   1.000000
   20       13.791877   1.000000
   21       13.791877   1.000000
   22       15.555208   0.865561
   23       15.555210   0.865555
   24       15.555210   0.865554
   25       24.146909   0.000000
   26       24.146911   0.000000
   27       24.146912   0.000000
 
  0.6666667E-01  0.1723947E-25  0.0000000E+00  0.5925926E-03
    1        1.962889   1.000000
    2        4.878258   1.000000
    3        4.897511   1.000000
    4        4.897511   1.000000
    5        5.370614   1.000000
    6        5.387976   1.000000
    7        5.387976   1.000000
    8        8.627062   1.000000
    9        8.712300   1.000000
   10        8.712301   1.000000
   11       11.164989   1.000000
   12       11.238076   1.000000
   13       13.098918   1.000000
   14       13.098918   1.000000
   15       13.155407   1.000000
   16       13.285423   1.000000
   17       13.285423   1.000000
   18       13.694290   1.000000
   19       13.694290   1.000000
   20       13.792080   1.000000
   21       13.792081   1.000000
   22       15.200437   1.000000
   23       16.094971   0.000000
   24       16.094972   0.000000
   25       23.942584   0.000000
   26       23.942585   0.000000
   27       24.592185   0.000000
 
  0.1333333E+00  0.3447937E-25  0.0000000E+00  0.5925926E-03
    1        2.169762   1.000000
    2        4.970940   1.000000
    3        5.048916   1.000000
    4        5.048916   1.000000
    5        5.456044   1.000000
    6        5.525733   1.000000
    7        5.525733   1.000000
    8        8.486850   1.000000
    9        8.822992   1.000000
   10        8.822993   1.000000
   11       11.007419   1.000000
   12       11.294076   1.000000
   13       12.389660   1.000000
   14       12.389660   1.000000
   15       12.862186   1.000000
   16       12.862186   1.000000
   17       13.083212   1.000000
   18       13.418663   1.000000
   19       13.418663   1.000000
   20       13.792663   1.000000
   21       13.792663   1.000000
   22       14.313618   1.000000
   23       17.088958   0.000000
   24       17.088958   0.000000
   25       23.495308   0.000000
   26       23.495308   0.000000
   27       25.927628   0.000000
 
  0.2000000E+00  0.1551164E-24  0.4135903E-24  0.5925926E-03
    1        2.506984   1.000000
    2        5.108756   1.000000
    3        5.289760   1.000000
    4        5.289760   1.000000
    5        5.596516   1.000000
    6        5.754371   1.000000
    7        5.754371   1.000000
    8        8.267014   1.000000
    9        9.006209   1.000000
   10        9.006210   1.000000
   11       10.761988   1.000000
   12       11.385562   1.000000
   13       11.457670   1.000000
   14       11.457670   1.000000
   15       12.491436   1.000000
   16       12.491436   1.000000
   17       12.967904   1.000000
   18       13.007403   1.000000
   19       13.007404   1.000000
   20       13.192540   1.000000
   21       13.793503   1.000000
   22       13.793503   1.000000
   23       18.179539   0.000000
   24       18.179539   0.000000
   25       23.014548   0.000000
   26       23.014548   0.000000
   27       25.739516   0.000000
 
  0.2666667E+00 -0.3446320E-24 -0.8271806E-24  0.5925926E-03
    1        2.961217   1.000000
    2        5.261237   1.000000
    3        5.599470   1.000000
    4        5.599471   1.000000
    5        5.789047   1.000000
    6        6.072372   1.000000
    7        6.072372   1.000000
    8        7.985307   1.000000
    9        9.260148   1.000000
   10        9.260149   1.000000
   11       10.455577   1.000000
   12       10.555260   1.000000
   13       10.555261   1.000000
   14       11.509735   1.000000
   15       12.027282   1.000000
   16       12.027282   1.000000
   17       12.045993   1.000000
   18       12.510401   1.000000
   19       12.510401   1.000000
   20       12.816513   1.000000
   21       13.794454   1.000000
   22       13.794455   1.000000
   23       19.292923   0.000000
   24       19.292923   0.000000
   25       22.599592   0.000000
   26       22.599592   0.000000
   27       25.364671   0.000000
 
  0.3333333E+00 -0.1051176E-23  0.0000000E+00  0.5925926E-03
    1        3.508673   1.000000
    2        5.373893   1.000000
    3        5.941862   1.000000
    4        5.941862   1.000000
    5        6.029241   1.000000
    6        6.477723   1.000000
    7        6.477724   1.000000
    8        7.661756   1.000000
    9        9.581817   1.000000
   10        9.581818   1.000000
   11        9.703303   1.000000
   12        9.703304   1.000000
   13       10.128825   1.000000
   14       11.015376   1.000000
   15       11.533015   1.000000
   16       11.533015   1.000000
   17       11.662686   1.000000
   18       11.972091   1.000000
   19       11.972091   1.000000
   20       12.637743   1.000000
   21       13.795358   1.000000
   22       13.795358   1.000000
   23       20.396603   0.000000
   24       20.396604   0.000000
   25       22.286432   0.000000
   26       22.286432   0.000000
   27       24.847562   0.000000
 
  0.4000000E+00  0.3102329E-24  0.8271806E-24  0.5925926E-03
    1        4.107597   1.000000
    2        5.361092   1.000000
    3        6.256066   1.000000
    4        6.256066   1.000000
    5        6.311071   1.000000
    6        6.967872   1.000000
    7        6.967872   1.000000
    8        7.315984   1.000000
    9        8.912257   1.000000
   10        8.912257   1.000000
   11        9.841879   1.000000
   12        9.966923   1.000000
   13        9.966923   1.000000
   14       10.225238   1.000000
   15       11.097888   1.000000
   16       11.097888   1.000000
   17       11.426933   1.000000
   18       11.426933   1.000000
   19       11.839188   1.000000
   20       12.441142   1.000000
   21       13.796035   1.000000
   22       13.796036   1.000000
   23       21.464328   0.000000
   24       21.464328   0.000000
   25       22.081832   0.000000
   26       22.081832   0.000000
   27       24.184549   0.000000
 
  0.4666667E+00 -0.3963107E-24  0.8271806E-24  0.5925926E-03
    1        4.685354   1.000000
    2        5.134230   1.000000
    3        6.453641   1.000000
    4        6.453641   1.000000
    5        6.626643   1.000000
    6        6.965803   1.000000
    7        7.539615   1.000000
    8        7.539615   1.000000
    9        8.189199   1.000000
   10        8.189199   1.000000
   11        9.684714   1.000000
   12        9.778832   1.000000
   13       10.409275   1.000000
   14       10.409276   1.000000
   15       10.833502   1.000000
   16       10.833502   1.000000
   17       10.900157   1.000000
   18       10.900158   1.000000
   19       12.032942   1.000000
   20       12.236454   1.000000
   21       13.796429   1.000000
   22       13.796429   1.000000
   23       21.981702   0.000000
   24       21.981702   0.000000
   25       22.469610   0.000000
   26       22.469610   0.000000
   27       23.385084   0.000000
 
 -0.9810469E-25  0.6666667E-01 -0.4135903E-24  0.5925926E-03
    1        1.962889   1.000000
    2        4.878258   1.000000
    3        4.897511   1.000000
    4        4.897511   1.000000
    5        5.370614   1.000000
    6        5.387976   1.000000
    7        5.387976   1.000000
    8        8.627063   1.000000
    9        8.712299   1.000000
   10        8.712300   1.000000
   11       11.164990   1.000000
   12       11.238075   1.000000
   13       13.098918   1.000000
   14       13.098918   1.000000
   15       13.155407   1.000000
   16       13.285423   1.000000
   17       13.285424   1.000000
   18       13.694290   1.000000
   19       13.694291   1.000000
   20       13.792079   1.000000
   21       13.792080   1.000000
   22       15.200439   1.000000
   23       16.094970   0.000000
   24       16.094972   0.000000
   25       23.942582   0.000000
   26       23.942584   0.000000
   27       24.592187   0.000000
 
  0.6666667E-01  0.6666667E-01 -0.2067952E-24  0.5925926E-03
    1        2.031949   1.000000
    2        4.930081   1.000000
    3        4.930081   1.000000
    4        4.944889   1.000000
    5        5.416296   1.000000
    6        5.416296   1.000000
    7        5.436854   1.000000
    8        8.603581   1.000000
    9        8.725658   1.000000
   10        8.747289   1.000000
   11       11.148404   1.000000
   12       11.222245   1.000000
   13       12.973258   1.000000
   14       13.011194   1.000000
   15       13.011194   1.000000
   16       13.021906   1.000000
   17       13.225182   1.000000
   18       13.225182   1.000000
   19       13.694330   1.000000
   20       13.694331   1.000000
   21       13.731141   1.000000
   22       15.764370   0.031988
   23       15.764371   0.031987
   24       16.501973   0.000000
   25       23.714978   0.000000
   26       24.362077   0.000000
   27       24.362080   0.000000
 
  0.1333333E+00  0.6666667E-01  0.0000000E+00  0.5925926E-03
    1        2.236901   1.000000
    2        5.023460   1.000000
    3        5.082310   1.000000
    4        5.084343   1.000000
    5        5.500711   1.000000
    6        5.552999   1.000000
    7        5.582587   1.000000
    8        8.478311   1.000000
    9        8.824358   1.000000
   10        8.851397   1.000000
   11       11.009107   1.000000
   12       11.269115   1.000000
   13       12.215081   1.000000
   14       12.230177   1.000000
   15       12.695536   1.000000
   16       12.796244   1.000000
   17       12.890667   1.000000
   18       13.102481   1.000000
   19       13.418338   1.000000
   20       13.694475   1.000000
   21       13.697434   1.000000
   22       14.969787   1.000000
   23       16.749484   0.000000
   24       17.378812   0.000000
   25       23.219976   0.000000
   26       23.881626   0.000000
   27       25.416010   0.000000
 
  0.2000000E+00  0.6666667E-01  0.3101927E-24  0.5925926E-03
    1        2.571034   1.000000
    2        5.162457   1.000000
    3        5.308119   1.000000
    4        5.324519   1.000000
    5        5.639452   1.000000
    6        5.779857   1.000000
    7        5.821434   1.000000
    8        8.265869   1.000000
    9        9.004866   1.000000
   10        9.021744   1.000000
   11       10.774375   1.000000
   12       11.297841   1.000000
   13       11.366738   1.000000
   14       11.368919   1.000000
   15       12.145038   1.000000
   16       12.440718   1.000000
   17       12.524901   1.000000
   18       12.929523   1.000000
   19       13.006601   1.000000
   20       13.688868   1.000000
   21       13.694600   1.000000
   22       14.053783   1.000000
   23       17.799556   0.000000
   24       18.410172   0.000000
   25       22.689879   0.000000
   26       23.389683   0.000000
   27       25.753860   0.000000
 
  0.2666667E+00  0.6666667E-01  0.0000000E+00  0.5925926E-03
    1        3.021215   1.000000
    2        5.316409   1.000000
    3        5.601847   1.000000
    4        5.636366   1.000000
    5        5.829538   1.000000
    6        6.095255   1.000000
    7        6.145411   1.000000
    8        7.990658   1.000000
    9        9.249277   1.000000
   10        9.257869   1.000000
   11       10.411139   1.000000
   12       10.487839   1.000000
   13       10.504812   1.000000
   14       11.411935   1.000000
   15       11.501712   1.000000
   16       11.992851   1.000000
   17       12.070161   1.000000
   18       12.509131   1.000000
   19       12.642227   1.000000
   20       13.290505   1.000000
   21       13.687184   1.000000
   22       13.694584   1.000000
   23       18.835473   0.000000
   24       19.490925   0.000000
   25       22.228391   0.000000
   26       23.000220   0.000000
   27       25.438109   0.000000
 
  0.3333333E+00  0.6666667E-01 -0.1240771E-23  0.5925926E-03
    1        3.564194   1.000000
    2        5.430128   1.000000
    3        5.939293   1.000000
    4        5.981809   1.000000
    5        6.066567   1.000000
    6        6.497051   1.000000
    7        6.541504   1.000000
    8        7.673486   1.000000
    9        9.496522   1.000000
   10        9.578497   1.000000
   11        9.579248   1.000000
   12        9.676379   1.000000
   13       10.224955   1.000000
   14       10.622192   1.000000
   15       11.514202   1.000000
   16       11.581507   1.000000
   17       11.668924   1.000000
   18       11.970383   1.000000
   19       12.146091   1.000000
   20       12.840401   1.000000
   21       13.687825   1.000000
   22       13.694283   1.000000
   23       19.792898   0.000000
   24       20.575242   0.000000
   25       21.865382   0.000000
   26       22.783005   0.000000
   27       24.999197   0.000000
 
  0.4000000E+00  0.6666667E-01 -0.4135903E-24  0.5925926E-03
    1        4.159240   1.000000
    2        5.416549   1.000000
    3        6.266622   1.000000
    4        6.299353   1.000000
    5        6.344531   1.000000
    6        6.982464   1.000000
    7        6.998474   1.000000
    8        7.333865   1.000000
    9        8.812666   1.000000
   10        8.901153   1.000000
   11        9.588258   1.000000
   12        9.962078   1.000000
   13        9.964288   1.000000
   14       10.215222   1.000000
   15       11.094684   1.000000
   16       11.143548   1.000000
   17       11.424929   1.000000
   18       11.570238   1.000000
   19       11.863082   1.000000
   20       12.556388   1.000000
   21       13.689332   1.000000
   22       13.693599   1.000000
   23       20.572838   0.000000
   24       21.590536   0.000000
   25       21.631315   0.000000
   26       22.818039   0.000000
   27       24.342648   0.000000
 
  0.4666667E+00  0.6666667E-01 -0.8271806E-24  0.5925926E-03
    1        4.735578   1.000000
    2        5.186570   1.000000
    3        6.485496   1.000000
    4        6.496782   1.000000
    5        6.655553   1.000000
    6        6.989495   1.000000
    7        7.520727   1.000000
    8        7.547959   1.000000
    9        8.124165   1.000000
   10        8.189312   1.000000
   11        9.509334   1.000000
   12        9.584103   1.000000
   13       10.406767   1.000000
   14       10.554920   1.000000
   15       10.847815   1.000000
   16       10.866282   1.000000
   17       10.897821   1.000000
   18       11.028644   1.000000
   19       12.078477   1.000000
   20       12.309851   1.000000
   21       13.690999   1.000000
   22       13.692475   1.000000
   23       21.074611   0.000000
   24       21.360015   0.000000
   25       22.630079   0.000000
   26       23.175127   0.000000
   27       23.542828   0.000000
 
 -0.4666667E+00  0.6666667E-01  0.0000000E+00  0.5925926E-03
    1        4.735578   1.000000
    2        5.186570   1.000000
    3        6.485496   1.000000
    4        6.496782   1.000000
    5        6.655553   1.000000
    6        6.989495   1.000000
    7        7.520727   1.000000
    8        7.547959   1.000000
    9        8.124165   1.000000
   10        8.189312   1.000000
   11        9.509334   1.000000
   12        9.584103   1.000000
   13       10.406767   1.000000
   14       10.554920   1.000000
   15       10.847815   1.000000
   16       10.866282   1.000000
   17       10.897821   1.000000
   18       11.028644   1.000000
   19       12.078477   1.000000
   20       12.309851   1.000000
   21       13.690999   1.000000
   22       13.692475   1.000000
   23       21.074611   0.000000
   24       21.360015   0.000000
   25       22.630079   0.000000
   26       23.175127   0.000000
   27       23.542996   0.000000
 
 -0.4000000E+00  0.6666667E-01  0.0000000E+00  0.5925926E-03
    1        4.159240   1.000000
    2        5.416549   1.000000
    3        6.266622   1.000000
    4        6.299353   1.000000
    5        6.344531   1.000000
    6        6.982464   1.000000
    7        6.998474   1.000000
    8        7.333865   1.000000
    9        8.812666   1.000000
   10        8.901153   1.000000
   11        9.588258   1.000000
   12        9.962078   1.000000
   13        9.964288   1.000000
   14       10.215222   1.000000
   15       11.094684   1.000000
   16       11.143548   1.000000
   17       11.424929   1.000000
   18       11.570238   1.000000
   19       11.863082   1.000000
   20       12.556388   1.000000
   21       13.689332   1.000000
   22       13.693599   1.000000
   23       20.572838   0.000000
   24       21.590536   0.000000
   25       21.631315   0.000000
   26       22.818039   0.000000
   27       24.342608   0.000000
 
 -0.3333333E+00  0.6666667E-01 -0.1654361E-23  0.5925926E-03
    1        3.564194   1.000000
    2        5.430128   1.000000
    3        5.939293   1.000000
    4        5.981809   1.000000
    5        6.066567   1.000000
    6        6.497051   1.000000
    7        6.541504   1.000000
    8        7.673486   1.000000
    9        9.496522   1.000000
   10        9.578497   1.000000
   11        9.579248   1.000000
   12        9.676379   1.000000
   13       10.224955   1.000000
   14       10.622192   1.000000
   15       11.514202   1.000000
   16       11.581507   1.000000
   17       11.668924   1.000000
   18       11.970383   1.000000
   19       12.146091   1.000000
   20       12.840401   1.000000
   21       13.687825   1.000000
   22       13.694283   1.000000
   23       19.792898   0.000000
   24       20.575242   0.000000
   25       21.865382   0.000000
   26       22.783005   0.000000
   27       24.957062   0.000000
 
 -0.2666667E+00  0.6666667E-01 -0.8271806E-24  0.5925926E-03
    1        3.021215   1.000000
    2        5.316409   1.000000
    3        5.601847   1.000000
    4        5.636365   1.000000
    5        5.829538   1.000000
    6        6.095255   1.000000
    7        6.145411   1.000000
    8        7.990658   1.000000
    9        9.249277   1.000000
   10        9.257869   1.000000
   11       10.411139   1.000000
   12       10.487839   1.000000
   13       10.504812   1.000000
   14       11.411935   1.000000
   15       11.501712   1.000000
   16       11.992851   1.000000
   17       12.070161   1.000000
   18       12.509131   1.000000
   19       12.642227   1.000000
   20       13.290505   1.000000
   21       13.687184   1.000000
   22       13.694583   1.000000
   23       18.835474   0.000000
   24       19.490925   0.000000
   25       22.228391   0.000000
   26       23.000220   0.000000
   27       25.436180   0.000000
 
 -0.2000000E+00  0.6666667E-01  0.0000000E+00  0.5925926E-03
    1        2.571034   1.000000
    2        5.162457   1.000000
    3        5.308119   1.000000
    4        5.324519   1.000000
    5        5.639452   1.000000
    6        5.779857   1.000000
    7        5.821434   1.000000
    8        8.265869   1.000000
    9        9.004866   1.000000
   10        9.021744   1.000000
   11       10.774375   1.000000
   12       11.297841   1.000000
   13       11.366738   1.000000
   14       11.368919   1.000000
   15       12.145038   1.000000
   16       12.440718   1.000000
   17       12.524901   1.000000
   18       12.929523   1.000000
   19       13.006601   1.000000
   20       13.688868   1.000000
   21       13.694600   1.000000
   22       14.053783   1.000000
   23       17.799556   0.000000
   24       18.410172   0.000000
   25       22.689879   0.000000
   26       23.389683   0.000000
   27       25.776577   0.000000
 
 -0.1333333E+00  0.6666667E-01  0.8271806E-24  0.5925926E-03
    1        2.236901   1.000000
    2        5.023460   1.000000
    3        5.082310   1.000000
    4        5.084343   1.000000
    5        5.500711   1.000000
    6        5.552999   1.000000
    7        5.582587   1.000000
    8        8.478310   1.000000
    9        8.824359   1.000000
   10        8.851397   1.000000
   11       11.009107   1.000000
   12       11.269115   1.000000
   13       12.215081   1.000000
   14       12.230177   1.000000
   15       12.695536   1.000000
   16       12.796244   1.000000
   17       12.890667   1.000000
   18       13.102481   1.000000
   19       13.418338   1.000000
   20       13.694475   1.000000
   21       13.697434   1.000000
   22       14.969787   1.000000
   23       16.749484   0.000000
   24       17.378812   0.000000
   25       23.219976   0.000000
   26       23.881626   0.000000
   27       25.416815   0.000000
 
 -0.6666667E-01  0.6666667E-01 -0.4135903E-24  0.5925926E-03
    1        2.031949   1.000000
    2        4.930081   1.000000
    3        4.930081   1.000000
    4        4.944889   1.000000
    5        5.416296   1.000000
    6        5.416296   1.000000
    7        5.436854   1.000000
    8        8.603581   1.000000
    9        8.725659   1.000000
   10        8.747289   1.000000
   11       11.148404   1.000000
   12       11.222245   1.000000
   13       12.973259   1.000000
   14       13.011194   1.000000
   15       13.011194   1.000000
   16       13.021906   1.000000
   17       13.225182   1.000000
   18       13.225182   1.000000
   19       13.694330   1.000000
   20       13.694331   1.000000
   21       13.731141   1.000000
   22       15.764370   0.031988
   23       15.764371   0.031987
   24       16.501973   0.000000
   25       23.714978   0.000000
   26       24.362077   0.000000
   27       24.362080   0.000000
 
  0.1058621E-25  0.1333333E+00 -0.1654361E-23  0.5925926E-03
    1        2.169762   1.000000
    2        4.970940   1.000000
    3        5.048916   1.000000
    4        5.048916   1.000000
    5        5.456044   1.000000
    6        5.525732   1.000000
    7        5.525733   1.000000
    8        8.486851   1.000000
    9        8.822992   1.000000
   10        8.822993   1.000000
   11       11.007420   1.000000
   12       11.294075   1.000000
   13       12.389659   1.000000
   14       12.389660   1.000000
   15       12.862187   1.000000
   16       12.862187   1.000000
   17       13.083212   1.000000
   18       13.418662   1.000000
   19       13.418663   1.000000
   20       13.792662   1.000000
   21       13.792662   1.000000
   22       14.313620   1.000000
   23       17.088957   0.000000
   24       17.088959   0.000000
   25       23.495306   0.000000
   26       23.495307   0.000000
   27       25.903988   0.000000
 
  0.6666667E-01  0.1333333E+00 -0.8271806E-24  0.5925926E-03
    1        2.236901   1.000000
    2        5.023460   1.000000
    3        5.082310   1.000000
    4        5.084343   1.000000
    5        5.500711   1.000000
    6        5.552999   1.000000
    7        5.582587   1.000000
    8        8.478311   1.000000
    9        8.824358   1.000000
   10        8.851397   1.000000
   11       11.009108   1.000000
   12       11.269114   1.000000
   13       12.215080   1.000000
   14       12.230177   1.000000
   15       12.695536   1.000000
   16       12.796244   1.000000
   17       12.890667   1.000000
   18       13.102481   1.000000
   19       13.418339   1.000000
   20       13.694475   1.000000
   21       13.697433   1.000000
   22       14.969788   1.000000
   23       16.749482   0.000000
   24       17.378813   0.000000
   25       23.219976   0.000000
   26       23.881624   0.000000
   27       25.418070   0.000000
 
  0.1333333E+00  0.1333333E+00 -0.2067952E-23  0.5925926E-03
    1        2.436264   1.000000
    2        5.177920   1.000000
    3        5.177920   1.000000
    4        5.192451   1.000000
    5        5.634266   1.000000
    6        5.634266   1.000000
    7        5.747697   1.000000
    8        8.409699   1.000000
    9        8.875163   1.000000
   10        8.935149   1.000000
   11       10.955292   1.000000
   12       11.258346   1.000000
   13       11.765096   1.000000
   14       11.801668   1.000000
   15       11.801668   1.000000
   16       12.600996   1.000000
   17       12.876508   1.000000
   18       12.876508   1.000000
   19       13.417362   1.000000
   20       13.417363   1.000000
   21       13.551932   1.000000
   22       15.946262   0.000005
   23       15.946263   0.000005
   24       18.093334   0.000000
   25       22.626167   0.000000
   26       24.817180   0.000000
   27       24.817183   0.000000
 
  0.2000000E+00  0.1333333E+00 -0.1654361E-23  0.5925926E-03
    1        2.761196   1.000000
    2        5.320657   1.000000
    3        5.375506   1.000000
    4        5.424306   1.000000
    5        5.767758   1.000000
    6        5.855737   1.000000
    7        6.006750   1.000000
    8        8.241111   1.000000
    9        9.024954   1.000000
   10        9.067578   1.000000
   11       10.776810   1.000000
   12       10.903761   1.000000
   13       11.096106   1.000000
   14       11.244068   1.000000
   15       11.348533   1.000000
   16       12.287947   1.000000
   17       12.547489   1.000000
   18       12.753498   1.000000
   19       13.004268   1.000000
   20       13.415720   1.000000
   21       13.466264   1.000000
   22       15.010581   1.000000
   23       16.934283   0.000000
   24       19.015852   0.000000
   25       21.993437   0.000000
   26       24.245590   0.000000
   27       25.641790   0.000000
 
  0.2666667E+00  0.1333333E+00 -0.8271806E-24  0.5925926E-03
    1        3.199180   1.000000
    2        5.479279   1.000000
    3        5.631744   1.000000
    4        5.742805   1.000000
    5        5.950433   1.000000
    6        6.163243   1.000000
    7        6.338200   1.000000
    8        7.995792   1.000000
    9        9.227707   1.000000
   10        9.264299   1.000000
   11       10.051837   1.000000
   12       10.347472   1.000000
   13       10.542434   1.000000
   14       10.603101   1.000000
   15       11.511122   1.000000
   16       11.886121   1.000000
   17       12.127959   1.000000
   18       12.504545   1.000000
   19       12.505525   1.000000
   20       13.413382   1.000000
   21       13.426240   1.000000
   22       14.150356   1.000000
   23       17.874614   0.000000
   24       20.028407   0.000000
   25       21.439461   0.000000
   26       23.808843   0.000000
   27       25.360733   0.000000
 
  0.3333333E+00  0.1333333E+00 -0.4135903E-24  0.5925926E-03
    1        3.728501   1.000000
    2        5.596344   1.000000
    3        5.950011   1.000000
    4        6.097946   1.000000
    5        6.177842   1.000000
    6        6.554261   1.000000
    7        6.711850   1.000000
    8        7.702629   1.000000
    9        9.263431   1.000000
   10        9.349446   1.000000
   11        9.579240   1.000000
   12        9.591730   1.000000
   13        9.965417   1.000000
   14       10.371110   1.000000
   15       11.451745   1.000000
   16       11.664865   1.000000
   17       11.722929   1.000000
   18       11.965787   1.000000
   19       12.122160   1.000000
   20       13.408923   1.000000
   21       13.410466   1.000000
   22       13.469883   1.000000
   23       18.714854   0.000000
   24       20.992043   0.000000
   25       21.069676   0.000000
   26       23.568709   0.000000
   27       25.005923   0.000000
 
  0.4000000E+00  0.1333333E+00 -0.4135903E-24  0.5925926E-03
    1        4.311433   1.000000
    2        5.579912   1.000000
    3        6.296050   1.000000
    4        6.426590   1.000000
    5        6.443917   1.000000
    6        7.025308   1.000000
    7        7.092374   1.000000
    8        7.384000   1.000000
    9        8.555161   1.000000
   10        8.865287   1.000000
   11        9.320441   1.000000
   12        9.458627   1.000000
   13        9.961098   1.000000
   14       10.429144   1.000000
   15       11.075101   1.000000
   16       11.232342   1.000000
   17       11.419749   1.000000
   18       11.643954   1.000000
   19       11.974527   1.000000
   20       12.971721   1.000000
   21       13.402745   1.000000
   22       13.407211   1.000000
   23       19.403000   0.000000
   24       20.630009   0.000000
   25       22.099185   0.000000
   26       23.561099   0.000000
   27       24.595244   0.000000
 
  0.4666667E+00  0.1333333E+00 -0.2481542E-23  0.5925926E-03
    1        4.882726   1.000000
    2        5.339850   1.000000
    3        6.572936   1.000000
    4        6.623882   1.000000
    5        6.740747   1.000000
    6        7.058277   1.000000
    7        7.478784   1.000000
    8        7.571870   1.000000
    9        7.951682   1.000000
   10        8.187921   1.000000
   11        9.203818   1.000000
   12        9.204033   1.000000
   13       10.402042   1.000000
   14       10.726143   1.000000
   15       10.873412   1.000000
   16       10.892548   1.000000
   17       10.933648   1.000000
   18       11.154494   1.000000
   19       12.261589   1.000000
   20       12.587119   1.000000
   21       13.402098   1.000000
   22       13.404126   1.000000
   23       19.917340   0.000000
   24       20.298506   0.000000
   25       23.083407   0.000000
   26       23.779427   0.000000
   27       23.991019   0.000000
 
 -0.4666667E+00  0.1333333E+00 -0.3308722E-23  0.5925926E-03
    1        4.882726   1.000000
    2        5.339850   1.000000
    3        6.572936   1.000000
    4        6.623882   1.000000
    5        6.740747   1.000000