   2   2   0   0
  0.7989452E+02  0.2457738E-09  0.2479115E-09  0.3028239E-08  0.5000000E-15
  1.000000000000000E-004
  CAR 
 unknown system                          
     18.15430507    -24.57929929  301     -3.47958214      1.00000000
    -24.579  0.0000E+00  0.0000E+00
    -24.437  0.0000E+00  0.0000E+00
    -24.294  0.0000E+00  0.0000E+00
    -24.152  0.0000E+00  0.0000E+00
    -24.010  0.0000E+00  0.0000E+00
    -23.867  0.0000E+00  0.0000E+00
    -23.725  0.0000E+00  0.0000E+00
    -23.582  0.0000E+00  0.0000E+00
    -23.440  0.0000E+00  0.0000E+00
    -23.297  0.0000E+00  0.0000E+00
    -23.155  0.0000E+00  0.0000E+00
    -23.012  0.0000E+00  0.0000E+00
    -22.870  0.4207E-13  0.5993E-14
    -22.728  0.1009E-04  0.1438E-05
    -22.585  0.2187E-02  0.3129E-03
    -22.443  0.1996E-02  0.5973E-03
    -22.300  0.4777E-02  0.1278E-02
    -22.158  0.2271E-02  0.1601E-02
    -22.015  0.2412E-02  0.1945E-02
    -21.873  0.3443E-02  0.2435E-02
    -21.730  0.4376E-02  0.3059E-02
    -21.588  0.2675E-02  0.3440E-02
    -21.446  0.2074E-02  0.3735E-02
    -21.303  0.3027E-02  0.4166E-02
    -21.161  0.2713E-02  0.4553E-02
    -21.018  0.5093E-02  0.5278E-02
    -20.876  0.3634E-02  0.5796E-02
    -20.733  0.1120E-02  0.5956E-02
    -20.591  0.4982E-02  0.6665E-02
    -20.448  0.1516E-03  0.6687E-02
    -20.306  0.3683E-02  0.7212E-02
    -20.163  0.4848E-02  0.7902E-02
    -20.021  0.3600E-02  0.8415E-02
    -19.879  0.3320E-02  0.8888E-02
    -19.736  0.2323E-02  0.9219E-02
    -19.594  0.3575E-02  0.9728E-02
    -19.451  0.4260E-02  0.1033E-01
    -19.309  0.1549E-02  0.1056E-01
    -19.166  0.4083E-04  0.1056E-01
    -19.024  0.5778E-02  0.1138E-01
    -18.881  0.6443E-02  0.1230E-01
    -18.739  0.3057E-02  0.1274E-01
    -18.597  0.2157E-02  0.1304E-01
    -18.454  0.2069E-02  0.1334E-01
    -18.312  0.5412E-02  0.1411E-01
    -18.169  0.2439E-02  0.1446E-01
    -18.027  0.3269E-02  0.1492E-01
    -17.884  0.2438E-02  0.1527E-01
    -17.742  0.1540E-02  0.1549E-01
    -17.599  0.6913E-02  0.1647E-01
    -17.457  0.7689E-02  0.1757E-01
    -17.315  0.3727E-02  0.1810E-01
    -17.172  0.1632E-02  0.1833E-01
    -17.030  0.9962E-03  0.1848E-01
    -16.887  0.4287E-02  0.1909E-01
    -16.745  0.5673E-03  0.1917E-01
    -16.602  0.9545E-05  0.1917E-01
    -16.460  0.1979E-02  0.1945E-01
    -16.317  0.2608E-02  0.1982E-01
    -16.175  0.6025E-02  0.2068E-01
    -16.033  0.1776E-02  0.2093E-01
    -15.890  0.3362E-02  0.2141E-01
    -15.748  0.1793E-02  0.2167E-01
    -15.605  0.4492E-02  0.2231E-01
    -15.463  0.4113E-02  0.2289E-01
    -15.320  0.7579E-02  0.2397E-01
    -15.178  0.3452E-02  0.2446E-01
    -15.035  0.1809E-02  0.2472E-01
    -14.893  0.1538E-02  0.2494E-01
    -14.751  0.8000E-02  0.2608E-01
    -14.608  0.2152E-03  0.2611E-01
    -14.466  0.8586E-03  0.2623E-01
    -14.323  0.5206E-02  0.2697E-01
    -14.181  0.5070E-02  0.2770E-01
    -14.038  0.1916E-02  0.2797E-01
    -13.896  0.3159E-02  0.2842E-01
    -13.753  0.1370E-02  0.2862E-01
    -13.611  0.2264E-02  0.2894E-01
    -13.469  0.3315E-02  0.2941E-01
    -13.326  0.4513E-02  0.3005E-01
    -13.184  0.5613E-02  0.3085E-01
    -13.041  0.5713E-02  0.3167E-01
    -12.899  0.1224E-02  0.3184E-01
    -12.756  0.2716E-02  0.3223E-01
    -12.614  0.2913E-02  0.3264E-01
    -12.471  0.2981E-02  0.3307E-01
    -12.329  0.2639E-02  0.3344E-01
    -12.187  0.6159E-02  0.3432E-01
    -12.044  0.6530E-02  0.3525E-01
    -11.902  0.2698E-02  0.3563E-01
    -11.759  0.4570E-02  0.3629E-01
    -11.617  0.4617E-02  0.3694E-01
    -11.474  0.1014E-02  0.3709E-01
    -11.332  0.6082E-02  0.3795E-01
    -11.189  0.4261E-02  0.3856E-01
    -11.047  0.4547E-02  0.3921E-01
    -10.905  0.4240E-02  0.3981E-01
    -10.762  0.3081E-02  0.4025E-01
    -10.620  0.8226E-02  0.4142E-01
    -10.477  0.7326E-02  0.4247E-01
    -10.335  0.6720E-02  0.4342E-01
    -10.192  0.9310E-02  0.4475E-01
    -10.050  0.1147E-01  0.4638E-01
     -9.907  0.6611E-02  0.4733E-01
     -9.765  0.1055E-01  0.4883E-01
     -9.623  0.5768E-02  0.4965E-01
     -9.480  0.1378E-01  0.5161E-01
     -9.338  0.1031E-01  0.5308E-01
     -9.195  0.7613E-02  0.5417E-01
     -9.053  0.4732E-02  0.5484E-01
     -8.910  0.1071E-01  0.5637E-01
     -8.768  0.6981E-02  0.5736E-01
     -8.625  0.1300E-01  0.5921E-01
     -8.483  0.3609E-02  0.5973E-01
     -8.341  0.6405E-02  0.6064E-01
     -8.198  0.3234E-02  0.6110E-01
     -8.056  0.7030E-02  0.6210E-01
     -7.913  0.4326E-02  0.6272E-01
     -7.771  0.8729E-02  0.6396E-01
     -7.628  0.9740E-02  0.6535E-01
     -7.486  0.3544E-02  0.6585E-01
     -7.343  0.4629E-02  0.6651E-01
     -7.201  0.7439E-02  0.6757E-01
     -7.059  0.6467E-02  0.6849E-01
     -6.916  0.2467E-02  0.6884E-01
     -6.774  0.3779E-02  0.6938E-01
     -6.631  0.6704E-02  0.7034E-01
     -6.489  0.7940E-02  0.7147E-01
     -6.346  0.6725E-02  0.7243E-01
     -6.204  0.5372E-02  0.7319E-01
     -6.061  0.2045E-02  0.7348E-01
     -5.919  0.3180E-02  0.7394E-01
     -5.777  0.5400E-02  0.7471E-01
     -5.634  0.4473E-02  0.7534E-01
     -5.492  0.2546E-02  0.7571E-01
     -5.349  0.2869E-02  0.7611E-01
     -5.207  0.7645E-02  0.7720E-01
     -5.064  0.7858E-02  0.7832E-01
     -4.922  0.7801E-04  0.7833E-01
     -4.779  0.1023E-03  0.7835E-01
     -4.637  0.2664E-02  0.7873E-01
     -4.495  0.1631E-02  0.7896E-01
     -4.352  0.1451E-02  0.7917E-01
     -4.210  0.6392E-03  0.7926E-01
     -4.067  0.1311E-02  0.7944E-01
     -3.925  0.4624E-03  0.7951E-01
     -3.782  0.2646E-02  0.7989E-01
     -3.640  0.7916E-03  0.8000E-01
     -3.497  0.1922E-07  0.8000E-01
     -3.355  0.0000E+00  0.8000E-01
     -3.212  0.0000E+00  0.8000E-01
     -3.070  0.0000E+00  0.8000E-01
     -2.928  0.0000E+00  0.8000E-01
     -2.785  0.7683E-13  0.8000E-01
     -2.643  0.1303E-04  0.8000E-01
     -2.500  0.2220E-02  0.8032E-01
     -2.358  0.1666E-02  0.8056E-01
     -2.215  0.1124E-02  0.8072E-01
     -2.073  0.8276E-03  0.8083E-01
     -1.930  0.2263E-03  0.8087E-01
     -1.788  0.5242E-02  0.8161E-01
     -1.646  0.3838E-03  0.8167E-01
     -1.503  0.4304E-02  0.8228E-01
     -1.361  0.8612E-02  0.8351E-01
     -1.218  0.4801E-02  0.8419E-01
     -1.076  0.5593E-02  0.8499E-01
     -0.933  0.2503E-02  0.8534E-01
     -0.791  0.5008E-02  0.8606E-01
     -0.648  0.3771E-03  0.8611E-01
     -0.506  0.4289E-03  0.8617E-01
     -0.364  0.7273E-02  0.8721E-01
     -0.221  0.9875E-04  0.8722E-01
     -0.079  0.1182E-02  0.8739E-01
      0.064  0.4494E-02  0.8803E-01
      0.206  0.4353E-02  0.8865E-01
      0.349  0.5491E-02  0.8943E-01
      0.491  0.5665E-02  0.9024E-01
      0.634  0.5329E-02  0.9100E-01
      0.776  0.1244E-02  0.9118E-01
      0.918  0.5341E-02  0.9194E-01
      1.061  0.5711E-02  0.9275E-01
      1.203  0.9812E-02  0.9415E-01
      1.346  0.1115E-01  0.9574E-01
      1.488  0.7326E-02  0.9678E-01
      1.631  0.1385E-01  0.9875E-01
      1.773  0.7239E-02  0.9978E-01
      1.916  0.1353E-01  0.1017E+00
      2.058  0.1330E-01  0.1036E+00
      2.200  0.1558E-01  0.1058E+00
      2.343  0.2043E-01  0.1087E+00
      2.485  0.1138E-01  0.1104E+00
      2.628  0.1472E-01  0.1125E+00
      2.770  0.1434E-01  0.1145E+00
      2.913  0.1899E-01  0.1172E+00
      3.055  0.1828E-01  0.1198E+00
      3.198  0.1463E-01  0.1219E+00
      3.340  0.1757E-01  0.1244E+00
      3.482  0.1409E-01  0.1264E+00
      3.625  0.2374E-01  0.1298E+00
      3.767  0.1929E-01  0.1325E+00
      3.910  0.2430E-01  0.1360E+00
      4.052  0.1772E-01  0.1385E+00
      4.195  0.2276E-01  0.1418E+00
      4.337  0.2766E-01  0.1457E+00
      4.480  0.2271E-01  0.1489E+00
      4.622  0.2803E-01  0.1529E+00
      4.764  0.2995E-01  0.1572E+00
      4.907  0.1850E-01  0.1598E+00
      5.049  0.3858E-01  0.1653E+00
      5.192  0.3134E-01  0.1698E+00
      5.334  0.4200E-01  0.1758E+00
      5.477  0.2423E-01  0.1792E+00
      5.619  0.3177E-01  0.1837E+00
      5.762  0.2891E-01  0.1879E+00
      5.904  0.3368E-01  0.1927E+00
      6.046  0.3449E-01  0.1976E+00
      6.189  0.3095E-01  0.2020E+00
      6.331  0.3777E-01  0.2074E+00
      6.474  0.1834E-01  0.2100E+00
      6.616  0.2690E-01  0.2138E+00
      6.759  0.3753E-01  0.2192E+00
      6.901  0.2698E-01  0.2230E+00
      7.044  0.3086E-01  0.2274E+00
      7.186  0.2831E-01  0.2314E+00
      7.328  0.3351E-01  0.2362E+00
      7.471  0.3532E-01  0.2412E+00
      7.613  0.3706E-01  0.2465E+00
      7.756  0.4167E-01  0.2524E+00
      7.898  0.3370E-01  0.2572E+00
      8.041  0.3407E-01  0.2621E+00
      8.183  0.3004E-01  0.2664E+00
      8.326  0.3981E-01  0.2720E+00
      8.468  0.2821E-01  0.2761E+00
      8.610  0.2767E-01  0.2800E+00
      8.753  0.3222E-01  0.2846E+00
      8.895  0.3401E-01  0.2894E+00
      9.038  0.3726E-01  0.2947E+00
      9.180  0.4713E-01  0.3015E+00
      9.323  0.3577E-01  0.3066E+00
      9.465  0.3235E-01  0.3112E+00
      9.608  0.2879E-01  0.3153E+00
      9.750  0.4629E-01  0.3219E+00
      9.892  0.3530E-01  0.3269E+00
     10.035  0.4362E-01  0.3331E+00
     10.177  0.4558E-01  0.3396E+00
     10.320  0.3737E-01  0.3449E+00
     10.462  0.3694E-01  0.3502E+00
     10.605  0.2388E-01  0.3536E+00
     10.747  0.4326E-01  0.3597E+00
     10.890  0.3535E-01  0.3648E+00
     11.032  0.4761E-01  0.3716E+00
     11.174  0.4970E-01  0.3786E+00
     11.317  0.3407E-01  0.3835E+00
     11.459  0.3952E-01  0.3891E+00
     11.602  0.3368E-01  0.3939E+00
     11.744  0.3236E-01  0.3985E+00
     11.887  0.3170E-01  0.4030E+00
     12.029  0.3766E-01  0.4084E+00
     12.172  0.4506E-01  0.4148E+00
     12.314  0.2680E-01  0.4186E+00
     12.456  0.3706E-01  0.4239E+00
     12.599  0.4513E-01  0.4304E+00
     12.741  0.3968E-01  0.4360E+00
     12.884  0.2779E-01  0.4400E+00
     13.026  0.3563E-01  0.4450E+00
     13.169  0.2014E-01  0.4479E+00
     13.311  0.3102E-01  0.4523E+00
     13.454  0.2947E-01  0.4565E+00
     13.596  0.1612E-01  0.4588E+00
     13.738  0.2665E-01  0.4626E+00
     13.881  0.2131E-01  0.4657E+00
     14.023  0.3039E-01  0.4700E+00
     14.166  0.1613E-01  0.4723E+00
     14.308  0.1279E-01  0.4741E+00
     14.451  0.1399E-01  0.4761E+00
     14.593  0.3640E-02  0.4766E+00
     14.736  0.2928E-02  0.4770E+00
     14.878  0.7662E-02  0.4781E+00
     15.021  0.4442E-02  0.4788E+00
     15.163  0.9458E-03  0.4789E+00
     15.305  0.4566E-07  0.4789E+00
     15.448  0.2247E-03  0.4789E+00
     15.590  0.2365E-02  0.4793E+00
     15.733  0.3254E-02  0.4797E+00
     15.875  0.6534E-05  0.4797E+00
     16.018  0.3831E-10  0.4797E+00
     16.160  0.1393E-03  0.4797E+00
     16.303  0.1801E-02  0.4800E+00
     16.445  0.1009E-04  0.4800E+00
     16.587  0.4207E-13  0.4800E+00
     16.730  0.0000E+00  0.4800E+00
     16.872  0.0000E+00  0.4800E+00
     17.015  0.0000E+00  0.4800E+00
     17.157  0.0000E+00  0.4800E+00
     17.300  0.0000E+00  0.4800E+00
     17.442  0.0000E+00  0.4800E+00
     17.585  0.0000E+00  0.4800E+00
     17.727  0.0000E+00  0.4800E+00
     17.869  0.0000E+00  0.4800E+00
     18.012  0.0000E+00  0.4800E+00
     18.154  0.0000E+00  0.4800E+00
