Automatically generated mesh
      72
Reciprocal lattice
    0.04166666666667    0.04166666666667    0.00000000000000             2
    0.12500000000000    0.04166666666667    0.00000000000000             2
    0.20833333333333    0.04166666666667    0.00000000000000             2
    0.29166666666667    0.04166666666667    0.00000000000000             2
    0.37500000000000    0.04166666666667    0.00000000000000             2
    0.45833333333333    0.04166666666667    0.00000000000000             2
   -0.45833333333333    0.04166666666667    0.00000000000000             2
   -0.37500000000000    0.04166666666667    0.00000000000000             2
   -0.29166666666667    0.04166666666667    0.00000000000000             2
   -0.20833333333333    0.04166666666667    0.00000000000000             2
   -0.12500000000000    0.04166666666667    0.00000000000000             2
   -0.04166666666667    0.04166666666667    0.00000000000000             2
    0.04166666666667    0.12500000000000    0.00000000000000             2
    0.12500000000000    0.12500000000000    0.00000000000000             2
    0.20833333333333    0.12500000000000    0.00000000000000             2
    0.29166666666667    0.12500000000000    0.00000000000000             2
    0.37500000000000    0.12500000000000    0.00000000000000             2
    0.45833333333333    0.12500000000000    0.00000000000000             2
   -0.45833333333333    0.12500000000000    0.00000000000000             2
   -0.37500000000000    0.12500000000000    0.00000000000000             2
   -0.29166666666667    0.12500000000000    0.00000000000000             2
   -0.20833333333333    0.12500000000000    0.00000000000000             2
   -0.12500000000000    0.12500000000000    0.00000000000000             2
   -0.04166666666667    0.12500000000000    0.00000000000000             2
    0.04166666666667    0.20833333333333    0.00000000000000             2
    0.12500000000000    0.20833333333333    0.00000000000000             2
    0.20833333333333    0.20833333333333    0.00000000000000             2
    0.29166666666667    0.20833333333333    0.00000000000000             2
    0.37500000000000    0.20833333333333    0.00000000000000             2
    0.45833333333333    0.20833333333333    0.00000000000000             2
   -0.45833333333333    0.20833333333333    0.00000000000000             2
   -0.37500000000000    0.20833333333333    0.00000000000000             2
   -0.29166666666667    0.20833333333333    0.00000000000000             2
   -0.20833333333333    0.20833333333333    0.00000000000000             2
   -0.12500000000000    0.20833333333333    0.00000000000000             2
   -0.04166666666667    0.20833333333333    0.00000000000000             2
    0.04166666666667    0.29166666666667    0.00000000000000             2
    0.12500000000000    0.29166666666667    0.00000000000000             2
    0.20833333333333    0.29166666666667    0.00000000000000             2
    0.29166666666667    0.29166666666667    0.00000000000000             2
    0.37500000000000    0.29166666666667    0.00000000000000             2
    0.45833333333333    0.29166666666667    0.00000000000000             2
   -0.45833333333333    0.29166666666667    0.00000000000000             2
   -0.37500000000000    0.29166666666667    0.00000000000000             2
   -0.29166666666667    0.29166666666667    0.00000000000000             2
   -0.20833333333333    0.29166666666667    0.00000000000000             2
   -0.12500000000000    0.29166666666667    0.00000000000000             2
   -0.04166666666667    0.29166666666667    0.00000000000000             2
    0.04166666666667    0.37500000000000    0.00000000000000             2
    0.12500000000000    0.37500000000000    0.00000000000000             2
    0.20833333333333    0.37500000000000    0.00000000000000             2
    0.29166666666667    0.37500000000000    0.00000000000000             2
    0.37500000000000    0.37500000000000    0.00000000000000             2
    0.45833333333333    0.37500000000000    0.00000000000000             2
   -0.45833333333333    0.37500000000000    0.00000000000000             2
   -0.37500000000000    0.37500000000000    0.00000000000000             2
   -0.29166666666667    0.37500000000000    0.00000000000000             2
   -0.20833333333333    0.37500000000000    0.00000000000000             2
   -0.12500000000000    0.37500000000000    0.00000000000000             2
   -0.04166666666667    0.37500000000000    0.00000000000000             2
    0.04166666666667    0.45833333333333    0.00000000000000             2
    0.12500000000000    0.45833333333333    0.00000000000000             2
    0.20833333333333    0.45833333333333    0.00000000000000             2
    0.29166666666667    0.45833333333333    0.00000000000000             2
    0.37500000000000    0.45833333333333    0.00000000000000             2
    0.45833333333333    0.45833333333333    0.00000000000000             2
   -0.45833333333333    0.45833333333333    0.00000000000000             2
   -0.37500000000000    0.45833333333333    0.00000000000000             2
   -0.29166666666667    0.45833333333333    0.00000000000000             2
   -0.20833333333333    0.45833333333333    0.00000000000000             2
   -0.12500000000000    0.45833333333333    0.00000000000000             2
   -0.04166666666667    0.45833333333333    0.00000000000000             2
