       N       E                     dE             d eps       ncg     rms          rms(c)
RMM:   1     0.103218852785E+03    0.10322E+03   -0.15133E+03  1728   0.230E+02
RMM:   2     0.493626742289E+02   -0.53856E+02   -0.28337E+02  1728   0.443E+01
RMM:   3     0.975950174404E+01   -0.39603E+02   -0.21614E+02  1728   0.366E+01
RMM:   4    -0.137272155276E+02   -0.23487E+02   -0.13600E+02  1728   0.345E+01
RMM:   5    -0.183871927201E+02   -0.46600E+01   -0.36765E+01  1728   0.213E+01
RMM:   6    -0.193997069358E+02   -0.10125E+01   -0.83685E+00  1728   0.109E+01
RMM:   7    -0.196333314127E+02   -0.23362E+00   -0.19658E+00  1728   0.547E+00
RMM:   8    -0.196971395353E+02   -0.63808E-01   -0.52460E-01  1728   0.284E+00
RMM:   9    -0.197213152671E+02   -0.24176E-01   -0.20864E-01  3471   0.152E+00
RMM:  10    -0.197253288377E+02   -0.40136E-02   -0.33739E-02  3554   0.525E-01
RMM:  11    -0.197254875670E+02   -0.15873E-03   -0.12126E-03  3483   0.100E-01
RMM:  12    -0.197255144518E+02   -0.26885E-04   -0.21564E-04  3528   0.382E-02    0.911E+00
RMM:  13    -0.188398507022E+02    0.88566E+00   -0.43993E-01  3456   0.186E+00    0.594E+00
RMM:  14    -0.185066757439E+02    0.33317E+00   -0.92728E-01  3456   0.263E+00    0.117E+00
RMM:  15    -0.184860534119E+02    0.20622E-01   -0.25083E-02  3469   0.565E-01    0.124E-01
RMM:  16    -0.184844889090E+02    0.15645E-02   -0.42648E-04  3475   0.790E-02    0.825E-02
RMM:  17    -0.184831689284E+02    0.13200E-02   -0.56286E-04  3458   0.596E-02    0.609E-02
RMM:  18    -0.184831086502E+02    0.60278E-04   -0.16478E-04  3456   0.477E-02    0.569E-02
RMM:  19    -0.184835795842E+02   -0.47093E-03   -0.14653E-04  3456   0.311E-02    0.158E-02
RMM:  20    -0.184838727841E+02   -0.29320E-03   -0.61393E-06  3465   0.671E-03    0.193E-02
RMM:  21    -0.184844266108E+02   -0.55383E-03   -0.43664E-05  3456   0.138E-02    0.608E-03
RMM:  22    -0.184845242318E+02   -0.97621E-04   -0.29132E-06  3426   0.329E-03    0.227E-03
RMM:  23    -0.184845419226E+02   -0.17691E-04   -0.31813E-07  3456   0.152E-03    0.619E-04
RMM:  24    -0.184845576540E+02   -0.15731E-04   -0.17758E-07  3240   0.810E-04    0.552E-04
RMM:  25    -0.184845605744E+02   -0.29204E-05   -0.50486E-09  3125   0.223E-04    0.386E-04
RMM:  26    -0.184845622718E+02   -0.16974E-05   -0.66693E-09  3134   0.229E-04    0.286E-04
RMM:  27    -0.184845636648E+02   -0.13930E-05   -0.54397E-09  3127   0.212E-04    0.291E-04
RMM:  28    -0.184845637367E+02   -0.71883E-07   -0.18534E-10  2877   0.895E-05
   1 F= -.18592851E+02 E0= -.18592851E+02  d E =-.185929E+02
       N       E                     dE             d eps       ncg     rms          rms(c)
RMM:   1    -0.184822643759E+02    0.22993E-02   -0.31987E-01  3456   0.228E+00    0.134E-01
RMM:   2    -0.184822306648E+02    0.33711E-04   -0.12390E-03  3456   0.111E-01    0.963E-02
RMM:   3    -0.184821418178E+02    0.88847E-04   -0.16421E-04  3462   0.385E-02    0.318E-02
RMM:   4    -0.184821402603E+02    0.15575E-05   -0.15534E-05  3474   0.117E-02    0.826E-03
RMM:   5    -0.184821402435E+02    0.16795E-07   -0.76179E-07  3491   0.276E-03
   2 F= -.18590398E+02 E0= -.18590398E+02  d E =0.245264E-02
       N       E                     dE             d eps       ncg     rms          rms(c)
RMM:   1    -0.184847923929E+02   -0.26521E-02   -0.21023E-01  3456   0.185E+00    0.108E-01
RMM:   2    -0.184847693785E+02    0.23014E-04   -0.79554E-04  3457   0.895E-02    0.781E-02
RMM:   3    -0.184847107065E+02    0.58672E-04   -0.10843E-04  3461   0.311E-02    0.252E-02
RMM:   4    -0.184847098409E+02    0.86559E-06   -0.97053E-06  3474   0.925E-03    0.669E-03
RMM:   5    -0.184847098235E+02    0.17489E-07   -0.49788E-07  3455   0.222E-03
   3 F= -.18592992E+02 E0= -.18592992E+02  d E =-.141207E-03
