 vasp.5.4.4.18Apr17-6-g9f103f2a35 (build Jan 14 2019 14:48:31) complex          
  
 executed on             LinuxIFC date 2019.09.10  15:54:39
 running on   24 total cores
 distrk:  each k-point on   24 cores,    1 groups
 distr:  one band on NCORES_PER_BAND=   1 cores,   24 groups


--------------------------------------------------------------------------------------------------------


 INCAR:
 POTCAR:    PAW_PBE C_h 06Feb2004                 

 ----------------------------------------------------------------------------- 
|                                                                             |
|           W    W    AA    RRRRR   N    N  II  N    N   GGGG   !!!           |
|           W    W   A  A   R    R  NN   N  II  NN   N  G    G  !!!           |
|           W    W  A    A  R    R  N N  N  II  N N  N  G       !!!           |
|           W WW W  AAAAAA  RRRRR   N  N N  II  N  N N  G  GGG   !            |
|           WW  WW  A    A  R   R   N   NN  II  N   NN  G    G                |
|           W    W  A    A  R    R  N    N  II  N    N   GGGG   !!!           |
|                                                                             |
|      For optimal performance we recommend to set                            |
|        NCORE= 4 - approx SQRT( number of cores)                             |
|      NCORE specifies how many cores store one orbital (NPAR=cpu/NCORE).     |
|      This setting can  greatly improve the performance of VASP for DFT.     |
|      The default,   NCORE=1            might be grossly inefficient         |
|      on modern multi-core architectures or massively parallel machines.     |
|      Do your own testing !!!!                                               |
|      Unfortunately you need to use the default for GW and RPA calculations. |
|      (for HF NCORE is supported but not extensively tested yet)             |
|                                                                             |
 ----------------------------------------------------------------------------- 

 POTCAR:    PAW_PBE C_h 06Feb2004                 
   VRHFIN =C: s2p2                                                              
   LEXCH  = PE                                                                  
   EATOM  =   147.1560 eV,   10.8157 Ry                                         
                                                                                
   TITEL  = PAW_PBE C_h 06Feb2004                                               
   LULTRA =        F    use ultrasoft PP ?                                      
   IUNSCR =        1    unscreen: 0-lin 1-nonlin 2-no                           
   RPACOR =    0.800    partial core radius                                     
   POMASS =   12.011; ZVAL   =    4.000    mass and valenz                      
   RCORE  =    1.100    outmost cutoff radius                                   
   RWIGS  =    1.630; RWIGS  =    0.863    wigner-seitz radius (au A)           
   ENMAX  =  700.000; ENMIN  =  500.000 eV                                      
   ICORE  =        2    local potential                                         
   LCOR   =        T    correct aug charges                                     
   LPAW   =        T    paw PP                                                  
   EAUG   =  946.768                                                            
   DEXC   =    0.000                                                            
   RMAX   =    1.128    core radius for proj-oper                               
   RAUG   =    1.300    factor for augmentation sphere                          
   RDEP   =    1.162    radius for radial grids                                 
   RDEPT  =    1.088    core radius for aug-charge                              
                                                                                
   Atomic configuration                                                         
    4 entries                                                                   
     n  l   j            E        occ.                                          
     1  0  0.50      -273.3789   2.0000                                         
     2  0  0.50       -13.7508   2.0000                                         
     2  1  0.50        -5.2854   2.0000                                         
     3  2  1.50        -5.4423   0.0000                                         
   Description                                                                  
     l       E           TYP  RCUT    TYP  RCUT                                 
     0    -13.7508458     23  1.100                                             
     0     -8.2022199     23  1.100                                             
     1     -5.2854383     23  1.100                                             
     1      1.1560700     23  1.100                                             
     2     -5.4423304      7  1.100                                             
  local pseudopotential read in
  partial core-charges read in
  partial kinetic energy density read in
  atomic valenz-charges read in
  non local Contribution for L=           0  read in
    real space projection operators read in
  non local Contribution for L=           0  read in
    real space projection operators read in
  non local Contribution for L=           1  read in
    real space projection operators read in
  non local Contribution for L=           1  read in
    real space projection operators read in
    PAW grid and wavefunctions read in
 
   number of l-projection  operators is LMAX  =           4
   number of lm-projection operators is LMMAX =           8
 
  PAW_PBE C_h 06Feb2004                 :
 energy of atom  1       EATOM= -147.1560
 kinetic energy error for atom=    0.0044 (will be added to EATOM!!)
 
 
 POSCAR: graphene                                
  positions in direct lattice
  velocities in cartesian coordinates
 exchange correlation table for  LEXCH =        8
   RHO(1)=    0.500       N(1)  =     2000
   RHO(2)=  100.500       N(2)  =     4000

 VTST: version 3.1, (03/28/14)

 CHAIN: initializing optimizer
 
 OPT: Using VASP Conjugate-Gradient optimizer
 CHAIN: Read ICHAIN            0
 
 POSCAR: graphene                                
  positions in direct lattice
  velocities in cartesian coordinates
 


--------------------------------------------------------------------------------------------------------


 ion  position               nearest neighbor table
   1  0.000  1.000  0.500-   2 1.42   2 1.43   2 1.43
   2  0.667  0.333  0.500-   1 1.42   1 1.43   1 1.43
 
  LATTYP: Found a simple monoclinic cell.
 ALAT       =     4.2569211259
 B/A-ratio  =     7.1136844792
 C/A-ratio  =     1.5265724838
 COS(beta)  =    -0.9816400468
  
  Lattice vectors:
  
 A1 = (  -3.6919321631,   2.1192013533,   0.0000000000)
 A2 = (   0.0000000000,   0.0000000000, -30.2823937426)
 A3 = (   4.9154505025,  -4.2507447757,   0.0000000000)


Analysis of symmetry for initial positions (statically):
=====================================================================
 Subroutine PRICEL returns:
 Original cell was already a primitive cell.
 

 Routine SETGRP: Setting up the symmetry group for a 
 simple monoclinic supercell.


 Subroutine GETGRP returns: Found  4 space group operations
 (whereof  2 operations were pure point group operations)
 out of a pool of  4 trial point group operations.


The static configuration has the point symmetry C_1h.
 The point group associated with its full space group is C_2h.


Analysis of symmetry for dynamics (positions and initial velocities):
=====================================================================
 Subroutine PRICEL returns:
 Original cell was already a primitive cell.
 

 Routine SETGRP: Setting up the symmetry group for a 
 simple monoclinic supercell.


 Subroutine GETGRP returns: Found  4 space group operations
 (whereof  2 operations were pure point group operations)
 out of a pool of  4 trial point group operations.


The dynamic configuration has the point symmetry C_1h.
 The point group associated with its full space group is C_2h.


 Subroutine INISYM returns: Found  4 space group operations
 (whereof  2 operations are pure point group operations),
 and found     1 'primitive' translations

 
 
 KPOINTS: K-Mesh Generated with KP-Resolved Value 

Automatic generation of k-mesh.
Space group operators:
 irot       det(A)        alpha          n_x          n_y          n_z        tau_x        tau_y        tau_z
    1     1.000000     0.000000     1.000000     0.000000     0.000000     0.000000     0.000000     0.000000
    2    -1.000000   180.000000     0.000000     0.000000     1.000000     0.000000     0.000000     0.000000
    3    -1.000000     0.000000     1.000000     0.000000     0.000000    -1.333330    -0.666670     0.000000
    4     1.000000   180.000000     0.000000     0.000000     1.000000    -1.333330    -0.666670     0.000000
 
 Subroutine IBZKPT returns following result:
 ===========================================
 
 Found     72 irreducible k-points:
 
 Following reciprocal coordinates:
            Coordinates               Weight
  0.041667  0.041667  0.000000      2.000000
  0.125000  0.041667  0.000000      2.000000
  0.208333  0.041667  0.000000      2.000000
  0.291667  0.041667  0.000000      2.000000
  0.375000  0.041667  0.000000      2.000000
  0.458333  0.041667  0.000000      2.000000
 -0.458333  0.041667  0.000000      2.000000
 -0.375000  0.041667  0.000000      2.000000
 -0.291667  0.041667  0.000000      2.000000
 -0.208333  0.041667  0.000000      2.000000
 -0.125000  0.041667  0.000000      2.000000
 -0.041667  0.041667  0.000000      2.000000
  0.041667  0.125000  0.000000      2.000000
  0.125000  0.125000  0.000000      2.000000
  0.208333  0.125000  0.000000      2.000000
  0.291667  0.125000  0.000000      2.000000
  0.375000  0.125000  0.000000      2.000000
  0.458333  0.125000  0.000000      2.000000
 -0.458333  0.125000  0.000000      2.000000
 -0.375000  0.125000  0.000000      2.000000
 -0.291667  0.125000  0.000000      2.000000
 -0.208333  0.125000  0.000000      2.000000
 -0.125000  0.125000  0.000000      2.000000
 -0.041667  0.125000  0.000000      2.000000
  0.041667  0.208333  0.000000      2.000000
  0.125000  0.208333  0.000000      2.000000
  0.208333  0.208333  0.000000      2.000000
  0.291667  0.208333  0.000000      2.000000
  0.375000  0.208333  0.000000      2.000000
  0.458333  0.208333  0.000000      2.000000
 -0.458333  0.208333  0.000000      2.000000
 -0.375000  0.208333  0.000000      2.000000
 -0.291667  0.208333  0.000000      2.000000
 -0.208333  0.208333  0.000000      2.000000
 -0.125000  0.208333  0.000000      2.000000
 -0.041667  0.208333  0.000000      2.000000
  0.041667  0.291667  0.000000      2.000000
  0.125000  0.291667  0.000000      2.000000
  0.208333  0.291667  0.000000      2.000000
  0.291667  0.291667  0.000000      2.000000
  0.375000  0.291667  0.000000      2.000000
  0.458333  0.291667  0.000000      2.000000
 -0.458333  0.291667  0.000000      2.000000
 -0.375000  0.291667  0.000000      2.000000
 -0.291667  0.291667  0.000000      2.000000
 -0.208333  0.291667  0.000000      2.000000
 -0.125000  0.291667  0.000000      2.000000
 -0.041667  0.291667  0.000000      2.000000
  0.041667  0.375000  0.000000      2.000000
  0.125000  0.375000  0.000000      2.000000
  0.208333  0.375000  0.000000      2.000000
  0.291667  0.375000  0.000000      2.000000
  0.375000  0.375000  0.000000      2.000000
  0.458333  0.375000  0.000000      2.000000
 -0.458333  0.375000  0.000000      2.000000
 -0.375000  0.375000  0.000000      2.000000
 -0.291667  0.375000  0.000000      2.000000
 -0.208333  0.375000  0.000000      2.000000
 -0.125000  0.375000  0.000000      2.000000
 -0.041667  0.375000  0.000000      2.000000
  0.041667  0.458333  0.000000      2.000000
  0.125000  0.458333  0.000000      2.000000
  0.208333  0.458333  0.000000      2.000000
  0.291667  0.458333  0.000000      2.000000
  0.375000  0.458333  0.000000      2.000000
  0.458333  0.458333  0.000000      2.000000
 -0.458333  0.458333  0.000000      2.000000
 -0.375000  0.458333  0.000000      2.000000
 -0.291667  0.458333  0.000000      2.000000
 -0.208333  0.458333  0.000000      2.000000
 -0.125000  0.458333  0.000000      2.000000
 -0.041667  0.458333  0.000000      2.000000
 
 Following cartesian coordinates:
            Coordinates               Weight
  0.083051 -0.000415  0.000000      2.000000
  0.166342 -0.048780  0.000000      2.000000
  0.249634 -0.097145  0.000000      2.000000
  0.332925 -0.145510  0.000000      2.000000
  0.416216 -0.193875  0.000000      2.000000
  0.499507 -0.242240  0.000000      2.000000
 -0.416695  0.289774  0.000000      2.000000
 -0.333404  0.241409  0.000000      2.000000
 -0.250113  0.193044  0.000000      2.000000
 -0.166822  0.144679  0.000000      2.000000
 -0.083531  0.096314  0.000000      2.000000
 -0.000240  0.047950  0.000000      2.000000
  0.165863  0.047119  0.000000      2.000000
  0.249154 -0.001246  0.000000      2.000000
  0.332445 -0.049611  0.000000      2.000000
  0.415736 -0.097975  0.000000      2.000000
  0.499027 -0.146340  0.000000      2.000000
  0.582319 -0.194705  0.000000      2.000000
 -0.333884  0.337308  0.000000      2.000000
 -0.250593  0.288943  0.000000      2.000000
 -0.167301  0.240579  0.000000      2.000000
 -0.084010  0.192214  0.000000      2.000000
 -0.000719  0.143849  0.000000      2.000000
  0.082572  0.095484  0.000000      2.000000
  0.248675  0.094653  0.000000      2.000000
  0.331966  0.046289  0.000000      2.000000
  0.415257 -0.002076  0.000000      2.000000
  0.498548 -0.050441  0.000000      2.000000
  0.581839 -0.098806  0.000000      2.000000
  0.665130 -0.147171  0.000000      2.000000
 -0.251072  0.384843  0.000000      2.000000
 -0.167781  0.336478  0.000000      2.000000
 -0.084490  0.288113  0.000000      2.000000
 -0.001199  0.239748  0.000000      2.000000
  0.082092  0.191383  0.000000      2.000000
  0.165383  0.143018  0.000000      2.000000
  0.331486  0.142188  0.000000      2.000000
  0.414777  0.093823  0.000000      2.000000
  0.498068  0.045458  0.000000      2.000000
  0.581360 -0.002907  0.000000      2.000000
  0.664651 -0.051272  0.000000      2.000000
  0.747942 -0.099637  0.000000      2.000000
 -0.168260  0.432377  0.000000      2.000000
 -0.084969  0.384012  0.000000      2.000000
 -0.001678  0.335647  0.000000      2.000000
  0.081613  0.287282  0.000000      2.000000
  0.164904  0.238918  0.000000      2.000000
  0.248195  0.190553  0.000000      2.000000
  0.414298  0.189722  0.000000      2.000000
  0.497589  0.141357  0.000000      2.000000
  0.580880  0.092992  0.000000      2.000000
  0.664171  0.044628  0.000000      2.000000
  0.747462 -0.003737  0.000000      2.000000
  0.830753 -0.052102  0.000000      2.000000
 -0.085449  0.479911  0.000000      2.000000
 -0.002158  0.431546  0.000000      2.000000
  0.081133  0.383182  0.000000      2.000000
  0.164424  0.334817  0.000000      2.000000
  0.247716  0.286452  0.000000      2.000000
  0.331007  0.238087  0.000000      2.000000
  0.497109  0.237256  0.000000      2.000000
  0.580401  0.188892  0.000000      2.000000
  0.663692  0.140527  0.000000      2.000000
  0.746983  0.092162  0.000000      2.000000
  0.830274  0.043797  0.000000      2.000000
  0.913565 -0.004568  0.000000      2.000000
 -0.002637  0.527446  0.000000      2.000000
  0.080654  0.479081  0.000000      2.000000
  0.163945  0.430716  0.000000      2.000000
  0.247236  0.382351  0.000000      2.000000
  0.330527  0.333986  0.000000      2.000000
  0.413818  0.285621  0.000000      2.000000
 


--------------------------------------------------------------------------------------------------------




 Dimension of arrays:
   k-points           NKPTS =     72   k-points in BZ     NKDIM =     72   number of bands    NBANDS=     24
   number of dos      NEDOS =    301   number of ions     NIONS =      2
   non local maximal  LDIM  =      4   non local SUM 2l+1 LMDIM =      8
   total plane-waves  NPLWV = 169344
   max r-space proj   IRMAX =      1   max aug-charges    IRDMAX=   2710
   dimension x,y,z NGX =    24 NGY =   24 NGZ =  294
   dimension x,y,z NGXF=    32 NGYF=   36 NGZF=  420
   support grid    NGXF=    32 NGYF=   36 NGZF=  420
   ions per type =               2
   NGX,Y,Z   is equivalent  to a cutoff of  16.23, 16.09, 16.14 a.u.
   NGXF,Y,Z  is equivalent  to a cutoff of  21.65, 24.14, 23.06 a.u.

 SYSTEM =  unknown system                          
 POSCAR =  graphene                                

 Startparameter for this run:
   NWRITE =      2    write-flag & timer
   PREC   = high      normal or accurate (medium, high low for compatibility)
   ISTART =      0    job   : 0-new  1-cont  2-samecut
   ICHARG =      2    charge: 1-file 2-atom 10-const
   ISPIN  =      1    spin polarized calculation?
   LNONCOLLINEAR =      F non collinear calculations
   LSORBIT =      F    spin-orbit coupling
   INIWAV =      1    electr: 0-lowe 1-rand  2-diag
   LASPH  =      F    aspherical Exc in radial PAW
   METAGGA=      F    non-selfconsistent MetaGGA calc.

 Electronic Relaxation 1
   ENCUT  =  875.0 eV  64.31 Ry    8.02 a.u.   5.93  5.98 73.04*2*pi/ulx,y,z
   ENINI  =  875.0     initial cutoff
   ENAUG  =  946.8 eV  augmentation charge cutoff
   NELM   =     40;   NELMIN=  2; NELMDL=  0     # of ELM steps 
   EDIFF  = 0.1E-06   stopping-criterion for ELM
   LREAL  =      F    real-space projection
   NLSPLINE    = F    spline interpolate recip. space projectors
   LCOMPAT=      F    compatible to vasp.4.4
   GGA_COMPAT  = T    GGA compatible to vasp.4.4-vasp.4.6
   LMAXPAW     = -100 max onsite density
   LMAXMIX     =    2 max onsite mixed and CHGCAR
   VOSKOWN=      0    Vosko Wilk Nusair interpolation
   ROPT   =    0.00000
 Ionic relaxation
   EDIFFG = -.1E-01   stopping-criterion for IOM
   NSW    =    100    number of steps for IOM
   NBLOCK =      1;   KBLOCK =    100    inner block; outer block 
   IBRION =      2    ionic relax: 0-MD 1-quasi-New 2-CG
   NFREE  =      1    steps in history (QN), initial steepest desc. (CG)
   ISIF   =      2    stress and relaxation
   IWAVPR =     11    prediction:  0-non 1-charg 2-wave 3-comb
   ISYM   =      2    0-nonsym 1-usesym 2-fastsym
   LCORR  =      T    Harris-Foulkes like correction to forces

   POTIM  = 0.5000    time-step for ionic-motion
   TEIN   =    0.0    initial temperature
   TEBEG  =    0.0;   TEEND  =   0.0 temperature during run
   SMASS  =  -3.00    Nose mass-parameter (am)
   estimated Nose-frequenzy (Omega)   =  0.10E-29 period in steps =****** mass=  -0.138E-27a.u.
   SCALEE = 1.0000    scale energy and forces
   NPACO  =    256;   APACO  = 16.0  distance and # of slots for P.C.
   PSTRESS=    0.0 pullay stress

  Mass of Ions in am
   POMASS =  12.01
  Ionic Valenz
   ZVAL   =   4.00
  Atomic Wigner-Seitz radii
   RWIGS  =  -1.00
  virtual crystal weights 
   VCA    =   1.00
   NELECT =       8.0000    total number of electrons
   NUPDOWN=      -1.0000    fix difference up-down

 DOS related values:
   EMIN   =  10.00;   EMAX   =-10.00  energy-range for DOS
   EFERMI =   0.00
   ISMEAR =     0;   SIGMA  =   0.05  broadening in eV -4-tet -1-fermi 0-gaus

 Electronic relaxation 2 (details)
   IALGO  =     48    algorithm
   LDIAG  =      T    sub-space diagonalisation (order eigenvalues)
   LSUBROT=      F    optimize rotation matrix (better conditioning)
   TURBO    =      0    0=normal 1=particle mesh
   IRESTART =      0    0=no restart 2=restart with 2 vectors
   NREBOOT  =      0    no. of reboots
   NMIN     =      0    reboot dimension
   EREF     =   0.00    reference energy to select bands
   IMIX   =      4    mixing-type and parameters
     AMIX     =   0.40;   BMIX     =  1.00
     AMIX_MAG =   1.60;   BMIX_MAG =  1.00
     AMIN     =   0.10
     WC   =   100.;   INIMIX=   1;  MIXPRE=   1;  MAXMIX= -45

 Intra band minimization:
   WEIMIN = 0.0010     energy-eigenvalue tresh-hold
   EBREAK =  0.10E-08  absolut break condition
   DEPER  =   0.30     relativ break condition  

   TIME   =   0.40     timestep for ELM

  volume/ion in A,a.u.               =      79.89       539.15
  Fermi-wavevector in a.u.,A,eV,Ry     =   0.603378  1.140218  4.953398  0.364064
  Thomas-Fermi vector in A             =   1.656336
 
 Write flags
   LWAVE        =      F    write WAVECAR
   LDOWNSAMPLE  =      F    k-point downsampling of WAVECAR
   LCHARG       =      F    write CHGCAR
   LVTOT        =      F    write LOCPOT, total local potential
   LVHAR        =      F    write LOCPOT, Hartree potential only
   LELF         =      F    write electronic localiz. function (ELF)
   LORBIT       =      0    0 simple, 1 ext, 2 COOP (PROOUT), +10 PAW based schemes


 Dipole corrections
   LMONO  =      F    monopole corrections only (constant potential shift)
   LDIPOL =      F    correct potential (dipole corrections)
   IDIPOL =      0    1-x, 2-y, 3-z, 4-all directions 
   EPSILON=  1.0000000 bulk dielectric constant

 Exchange correlation treatment:
   GGA     =    --    GGA type
   LEXCH   =     8    internal setting for exchange type
   VOSKOWN=      0    Vosko Wilk Nusair interpolation
   LHFCALC =     F    Hartree Fock is set to
   LHFONE  =     F    Hartree Fock one center treatment
   AEXX    =    0.0000 exact exchange contribution

 Linear response parameters
   LEPSILON=     F    determine dielectric tensor
   LRPA    =     F    only Hartree local field effects (RPA)
   LNABLA  =     F    use nabla operator in PAW spheres
   LVEL    =     F    velocity operator in full k-point grid
   LINTERFAST=   F  fast interpolation
   KINTER  =     0    interpolate to denser k-point grid
   CSHIFT  =0.1000    complex shift for real part using Kramers Kronig
   OMEGAMAX=  -1.0    maximum frequency
   DEG_THRESHOLD= 0.2000000E-02 threshold for treating states as degnerate
   RTIME   =   -0.100 relaxation time in fs
  (WPLASMAI=    0.000 imaginary part of plasma frequency in eV, 0.658/RTIME)
   DFIELD  = 0.0000000 0.0000000 0.0000000 field for delta impulse in time
 
 Orbital magnetization related:
   ORBITALMAG=     F  switch on orbital magnetization
   LCHIMAG   =     F  perturbation theory with respect to B field
   DQ        =  0.001000  dq finite difference perturbation B field
   LLRAUG    =     F  two centre corrections for induced B field



--------------------------------------------------------------------------------------------------------


 conjugate gradient relaxation of ions
 charge density and potential will be updated during run
 non-spin polarized calculation
 RMM-DIIS sequential band-by-band
 perform sub-space diagonalisation
    before iterative eigenvector-optimisation
 modified Broyden-mixing scheme, WC =      100.0
 initial mixing is a Kerker type mixing with AMIX =  0.4000 and BMIX =      1.0000
 Hartree-type preconditioning will be used
 using additional bands           20
 reciprocal scheme for non local part
 use partial core corrections
 calculate Harris-corrections to forces 
   (improved forces if not selfconsistent)
 use gradient corrections 
 use of overlap-Matrix (Vanderbilt PP)
 Gauss-broadening in eV      SIGMA  =   0.05


--------------------------------------------------------------------------------------------------------


  energy-cutoff  :      875.00
  volume of cell :      159.79
      direct lattice vectors                 reciprocal lattice vectors
     1.223518339 -2.131543422  0.000000000     0.406298088 -0.235926152  0.000000000
     1.244895484  2.143885492  0.000000000     0.403959083  0.231874866  0.000000000
     0.000000000  0.000000000 30.282393743     0.000000000  0.000000000  0.033022489

  length of vectors
     2.457737677  2.479114714 30.282393743     0.469828996  0.465777731  0.033022489


 
 k-points in units of 2pi/SCALE and weight: K-Mesh Generated with KP-Resolved Value 
   0.08305136 -0.00041526  0.00000000       0.014
   0.16634247 -0.04878012  0.00000000       0.014
   0.24963358 -0.09714498  0.00000000       0.014
   0.33292468 -0.14550984  0.00000000       0.014
   0.41621579 -0.19387470  0.00000000       0.014
   0.49950690 -0.24223956  0.00000000       0.014
  -0.41669529  0.28977391  0.00000000       0.014
  -0.33340418  0.24140905  0.00000000       0.014
  -0.25011307  0.19304419  0.00000000       0.014
  -0.16682196  0.14467933  0.00000000       0.014
  -0.08353086  0.09631447  0.00000000       0.014
  -0.00023975  0.04794960  0.00000000       0.014
   0.16586297  0.04711909  0.00000000       0.014
   0.24915408 -0.00124577  0.00000000       0.014
   0.33244519 -0.04961063  0.00000000       0.014
   0.41573630 -0.09797549  0.00000000       0.014
   0.49902740 -0.14634035  0.00000000       0.014
   0.58231851 -0.19470522  0.00000000       0.014
  -0.33388368  0.33730826  0.00000000       0.014
  -0.25059257  0.28894340  0.00000000       0.014
  -0.16730146  0.24057854  0.00000000       0.014
  -0.08401035  0.19221367  0.00000000       0.014
  -0.00071924  0.14384881  0.00000000       0.014
   0.08257186  0.09548395  0.00000000       0.014
   0.24867458  0.09465344  0.00000000       0.014
   0.33196569  0.04628858  0.00000000       0.014
   0.41525680 -0.00207628  0.00000000       0.014
   0.49854791 -0.05044115  0.00000000       0.014
   0.58183902 -0.09880601  0.00000000       0.014
   0.66513012 -0.14717087  0.00000000       0.014
  -0.25107206  0.38484261  0.00000000       0.014
  -0.16778096  0.33647774  0.00000000       0.014
  -0.08448985  0.28811288  0.00000000       0.014
  -0.00119874  0.23974802  0.00000000       0.014
   0.08209237  0.19138316  0.00000000       0.014
   0.16538348  0.14301830  0.00000000       0.014
   0.33148620  0.14218779  0.00000000       0.014
   0.41477730  0.09382292  0.00000000       0.014
   0.49806841  0.04545806  0.00000000       0.014
   0.58135952 -0.00290680  0.00000000       0.014
   0.66465063 -0.05127166  0.00000000       0.014
   0.74794174 -0.09963652  0.00000000       0.014
  -0.16826045  0.43237695  0.00000000       0.014
  -0.08496934  0.38401209  0.00000000       0.014
  -0.00167824  0.33564723  0.00000000       0.014
   0.08161287  0.28728237  0.00000000       0.014
   0.16490398  0.23891751  0.00000000       0.014
   0.24819509  0.19055265  0.00000000       0.014
   0.41429781  0.18972213  0.00000000       0.014
   0.49758892  0.14135727  0.00000000       0.014
   0.58088002  0.09299241  0.00000000       0.014
   0.66417113  0.04462755  0.00000000       0.014
   0.74746224 -0.00373731  0.00000000       0.014
   0.83075335 -0.05210217  0.00000000       0.014
  -0.08544884  0.47991130  0.00000000       0.014
  -0.00215773  0.43154644  0.00000000       0.014
   0.08113338  0.38318158  0.00000000       0.014
   0.16442448  0.33481672  0.00000000       0.014
   0.24771559  0.28645186  0.00000000       0.014
   0.33100670  0.23808699  0.00000000       0.014
   0.49710942  0.23725648  0.00000000       0.014
   0.58040053  0.18889162  0.00000000       0.014
   0.66369164  0.14052676  0.00000000       0.014
   0.74698274  0.09216190  0.00000000       0.014
   0.83027385  0.04379704  0.00000000       0.014
   0.91356496 -0.00456782  0.00000000       0.014
  -0.00263723  0.52744565  0.00000000       0.014
   0.08065388  0.47908079  0.00000000       0.014
   0.16394499  0.43071593  0.00000000       0.014
   0.24723610  0.38235106  0.00000000       0.014
   0.33052720  0.33398620  0.00000000       0.014
   0.41381831  0.28562134  0.00000000       0.014
 
 k-points in reciprocal lattice and weights: K-Mesh Generated with KP-Resolved Value 
   0.04166667  0.04166667  0.00000000       0.014
   0.12500000  0.04166667  0.00000000       0.014
   0.20833333  0.04166667  0.00000000       0.014
   0.29166667  0.04166667  0.00000000       0.014
   0.37500000  0.04166667  0.00000000       0.014
   0.45833333  0.04166667  0.00000000       0.014
  -0.45833333  0.04166667  0.00000000       0.014
  -0.37500000  0.04166667  0.00000000       0.014
  -0.29166667  0.04166667  0.00000000       0.014
  -0.20833333  0.04166667  0.00000000       0.014
  -0.12500000  0.04166667  0.00000000       0.014
  -0.04166667  0.04166667  0.00000000       0.014
   0.04166667  0.12500000  0.00000000       0.014
   0.12500000  0.12500000  0.00000000       0.014
   0.20833333  0.12500000  0.00000000       0.014
   0.29166667  0.12500000  0.00000000       0.014
   0.37500000  0.12500000  0.00000000       0.014
   0.45833333  0.12500000  0.00000000       0.014
  -0.45833333  0.12500000  0.00000000       0.014
  -0.37500000  0.12500000  0.00000000       0.014
  -0.29166667  0.12500000  0.00000000       0.014
  -0.20833333  0.12500000  0.00000000       0.014
  -0.12500000  0.12500000  0.00000000       0.014
  -0.04166667  0.12500000  0.00000000       0.014
   0.04166667  0.20833333  0.00000000       0.014
   0.12500000  0.20833333  0.00000000       0.014
   0.20833333  0.20833333  0.00000000       0.014
   0.29166667  0.20833333  0.00000000       0.014
   0.37500000  0.20833333  0.00000000       0.014
   0.45833333  0.20833333  0.00000000       0.014
  -0.45833333  0.20833333  0.00000000       0.014
  -0.37500000  0.20833333  0.00000000       0.014
  -0.29166667  0.20833333  0.00000000       0.014
  -0.20833333  0.20833333  0.00000000       0.014
  -0.12500000  0.20833333  0.00000000       0.014
  -0.04166667  0.20833333  0.00000000       0.014
   0.04166667  0.29166667  0.00000000       0.014
   0.12500000  0.29166667  0.00000000       0.014
   0.20833333  0.29166667  0.00000000       0.014
   0.29166667  0.29166667  0.00000000       0.014
   0.37500000  0.29166667  0.00000000       0.014
   0.45833333  0.29166667  0.00000000       0.014
  -0.45833333  0.29166667  0.00000000       0.014
  -0.37500000  0.29166667  0.00000000       0.014
  -0.29166667  0.29166667  0.00000000       0.014
  -0.20833333  0.29166667  0.00000000       0.014
  -0.12500000  0.29166667  0.00000000       0.014
  -0.04166667  0.29166667  0.00000000       0.014
   0.04166667  0.37500000  0.00000000       0.014
   0.12500000  0.37500000  0.00000000       0.014
   0.20833333  0.37500000  0.00000000       0.014
   0.29166667  0.37500000  0.00000000       0.014
   0.37500000  0.37500000  0.00000000       0.014
   0.45833333  0.37500000  0.00000000       0.014
  -0.45833333  0.37500000  0.00000000       0.014
  -0.37500000  0.37500000  0.00000000       0.014
  -0.29166667  0.37500000  0.00000000       0.014
  -0.20833333  0.37500000  0.00000000       0.014
  -0.12500000  0.37500000  0.00000000       0.014
  -0.04166667  0.37500000  0.00000000       0.014
   0.04166667  0.45833333  0.00000000       0.014
   0.12500000  0.45833333  0.00000000       0.014
   0.20833333  0.45833333  0.00000000       0.014
   0.29166667  0.45833333  0.00000000       0.014
   0.37500000  0.45833333  0.00000000       0.014
   0.45833333  0.45833333  0.00000000       0.014
  -0.45833333  0.45833333  0.00000000       0.014
  -0.37500000  0.45833333  0.00000000       0.014
  -0.29166667  0.45833333  0.00000000       0.014
  -0.20833333  0.45833333  0.00000000       0.014
  -0.12500000  0.45833333  0.00000000       0.014
  -0.04166667  0.45833333  0.00000000       0.014
 
 position of ions in fractional coordinates (direct lattice) 
   0.00000262  0.99999738  0.50000000
   0.66666738  0.33333262  0.50000000
 
 position of ions in cartesian coordinates  (Angst):
   1.24489543  2.14387428 15.14119687
   1.23064404 -0.70640349 15.14119687
 


--------------------------------------------------------------------------------------------------------


 k-point  1 :   0.0417 0.0417 0.0000  plane waves:    9289
 k-point  2 :   0.1250 0.0417 0.0000  plane waves:    9307
 k-point  3 :   0.2083 0.0417 0.0000  plane waves:    9340
 k-point  4 :   0.2917 0.0417 0.0000  plane waves:    9372
 k-point  5 :   0.3750 0.0417 0.0000  plane waves:    9369
 k-point  6 :   0.4583 0.0417 0.0000  plane waves:    9386
 k-point  7 :  -0.4583 0.0417 0.0000  plane waves:    9372
 k-point  8 :  -0.3750 0.0417 0.0000  plane waves:    9382
 k-point  9 :  -0.2917 0.0417 0.0000  plane waves:    9364
 k-point 10 :  -0.2083 0.0417 0.0000  plane waves:    9326
 k-point 11 :  -0.1250 0.0417 0.0000  plane waves:    9288
 k-point 12 :  -0.0417 0.0417 0.0000  plane waves:    9280
 k-point 13 :   0.0417 0.1250 0.0000  plane waves:    9313
 k-point 14 :   0.1250 0.1250 0.0000  plane waves:    9355
 k-point 15 :   0.2083 0.1250 0.0000  plane waves:    9390
 k-point 16 :   0.2917 0.1250 0.0000  plane waves:    9421
 k-point 17 :   0.3750 0.1250 0.0000  plane waves:    9426
 k-point 18 :   0.4583 0.1250 0.0000  plane waves:    9435
 k-point 19 :  -0.4583 0.1250 0.0000  plane waves:    9431
 k-point 20 :  -0.3750 0.1250 0.0000  plane waves:    9415
 k-point 21 :  -0.2917 0.1250 0.0000  plane waves:    9376
 k-point 22 :  -0.2083 0.1250 0.0000  plane waves:    9319
 k-point 23 :  -0.1250 0.1250 0.0000  plane waves:    9279
 k-point 24 :  -0.0417 0.1250 0.0000  plane waves:    9288
 k-point 25 :   0.0417 0.2083 0.0000  plane waves:    9349
 k-point 26 :   0.1250 0.2083 0.0000  plane waves:    9380
 k-point 27 :   0.2083 0.2083 0.0000  plane waves:    9412
 k-point 28 :   0.2917 0.2083 0.0000  plane waves:    9423
 k-point 29 :   0.3750 0.2083 0.0000  plane waves:    9458
 k-point 30 :   0.4583 0.2083 0.0000  plane waves:    9444
 k-point 31 :  -0.4583 0.2083 0.0000  plane waves:    9417
 k-point 32 :  -0.3750 0.2083 0.0000  plane waves:    9407
 k-point 33 :  -0.2917 0.2083 0.0000  plane waves:    9368
 k-point 34 :  -0.2083 0.2083 0.0000  plane waves:    9335
 k-point 35 :  -0.1250 0.2083 0.0000  plane waves:    9337
 k-point 36 :  -0.0417 0.2083 0.0000  plane waves:    9333
 k-point 37 :   0.0417 0.2917 0.0000  plane waves:    9391
 k-point 38 :   0.1250 0.2917 0.0000  plane waves:    9415
 k-point 39 :   0.2083 0.2917 0.0000  plane waves:    9444
 k-point 40 :   0.2917 0.2917 0.0000  plane waves:    9451
 k-point 41 :   0.3750 0.2917 0.0000  plane waves:    9460
 k-point 42 :   0.4583 0.2917 0.0000  plane waves:    9442
 k-point 43 :  -0.4583 0.2917 0.0000  plane waves:    9425
 k-point 44 :  -0.3750 0.2917 0.0000  plane waves:    9398
 k-point 45 :  -0.2917 0.2917 0.0000  plane waves:    9363
 k-point 46 :  -0.2083 0.2917 0.0000  plane waves:    9349
 k-point 47 :  -0.1250 0.2917 0.0000  plane waves:    9361
 k-point 48 :  -0.0417 0.2917 0.0000  plane waves:    9363
 k-point 49 :   0.0417 0.3750 0.0000  plane waves:    9389
 k-point 50 :   0.1250 0.3750 0.0000  plane waves:    9435
 k-point 51 :   0.2083 0.3750 0.0000  plane waves:    9458
 k-point 52 :   0.2917 0.3750 0.0000  plane waves:    9468
 k-point 53 :   0.3750 0.3750 0.0000  plane waves:    9476
 k-point 54 :   0.4583 0.3750 0.0000  plane waves:    9459
 k-point 55 :  -0.4583 0.3750 0.0000  plane waves:    9407
 k-point 56 :  -0.3750 0.3750 0.0000  plane waves:    9364
 k-point 57 :  -0.2917 0.3750 0.0000  plane waves:    9384
 k-point 58 :  -0.2083 0.3750 0.0000  plane waves:    9404
 k-point 59 :  -0.1250 0.3750 0.0000  plane waves:    9393
 k-point 60 :  -0.0417 0.3750 0.0000  plane waves:    9386
 k-point 61 :   0.0417 0.4583 0.0000  plane waves:    9422
 k-point 62 :   0.1250 0.4583 0.0000  plane waves:    9430
 k-point 63 :   0.2083 0.4583 0.0000  plane waves:    9456
 k-point 64 :   0.2917 0.4583 0.0000  plane waves:    9446
 k-point 65 :   0.3750 0.4583 0.0000  plane waves:    9444
 k-point 66 :   0.4583 0.4583 0.0000  plane waves:    9416
 k-point 67 :  -0.4583 0.4583 0.0000  plane waves:    9400
 k-point 68 :  -0.3750 0.4583 0.0000  plane waves:    9399
 k-point 69 :  -0.2917 0.4583 0.0000  plane waves:    9417
 k-point 70 :  -0.2083 0.4583 0.0000  plane waves:    9408
 k-point 71 :  -0.1250 0.4583 0.0000  plane waves:    9416
 k-point 72 :  -0.0417 0.4583 0.0000  plane waves:    9414

 maximum and minimum number of plane-waves per node :      9476     9279

 maximum number of plane-waves:      9476
 maximum index in each direction: 
   IXMAX=    6   IYMAX=    5   IZMAX=   73
   IXMIN=   -6   IYMIN=   -6   IZMIN=  -73


 serial   3D FFT for wavefunctions
 parallel 3D FFT for charge:
    minimum data exchange during FFTs selected (reduces bandwidth)


 total amount of memory used by VASP MPI-rank0    94843. kBytes
=======================================================================

   base      :      30000. kBytes
   nonl-proj :      43987. kBytes
   fftplans  :       1663. kBytes
   grid      :       8239. kBytes
   one-center:          6. kBytes
   wavefun   :      10948. kBytes
 
     INWAV:  cpu time    0.0000: real time    0.0000
 Broyden mixing: mesh for mixing (old mesh)
   NGX = 11   NGY = 11   NGZ =147
  (NGX  = 32   NGY  = 36   NGZ  =420)
  gives a total of  17787 points

 initial charge density was supplied:
 charge density of overlapping atoms calculated
 number of electron       8.0000000 magnetization 
 keeping initial charge density in first step


--------------------------------------------------------------------------------------------------------


 Maximum index for augmentation-charges          245 (set IRDMAX)


--------------------------------------------------------------------------------------------------------


 First call to EWALD:  gamma=   0.327
 Maximum number of real-space cells 6x 6x 1
 Maximum number of reciprocal cells 2x 2x13

    FEWALD:  cpu time    0.0020: real time    0.0063


--------------------------------------- Iteration      1(   1)  ---------------------------------------


    POTLOK:  cpu time    0.0340: real time    0.0689
    SETDIJ:  cpu time    0.0130: real time    0.0199
    EDDIAG:  cpu time    1.0838: real time    1.1834
  RMM-DIIS:  cpu time    2.0737: real time    2.1042
    ORTHCH:  cpu time    0.0530: real time    0.0523
       DOS:  cpu time    0.0030: real time    0.0271
    --------------------------------------------
      LOOP:  cpu time    3.2605: real time    3.4567

 eigenvalue-minimisations  :  1728
 total energy-change (2. order) : 0.1032189E+03  (-0.1513275E+03)
 number of electron       8.0000000 magnetization 
 augmentation part        8.0000000 magnetization 

 Free energy of the ion-electron system (eV)
  ---------------------------------------------------
  alpha Z        PSCENC =         1.37232795
  Ewald energy   TEWEN  =      2232.06528869
  -Hartree energ DENC   =     -2438.28345917
  -exchange      EXHF   =         0.00000000
  -V(xc)+E(xc)   XCENC  =        14.48597431
  PAW double counting   =       228.69403340     -218.18290438
  entropy T*S    EENTRO =        -0.00207387
  eigenvalues    EBANDS =       -11.23352731
  atomic energy  EATOM  =       294.30319316
  Solvation  Ediel_sol  =         0.00000000
  ---------------------------------------------------
  free energy    TOTEN  =       103.21885278 eV

  energy without entropy =      103.22092665  energy(sigma->0) =      103.21988972


--------------------------------------------------------------------------------------------------------




--------------------------------------- Iteration      1(   2)  ---------------------------------------


    EDDIAG:  cpu time    1.0638: real time    1.0797
  RMM-DIIS:  cpu time    2.0247: real time    2.0284
    ORTHCH:  cpu time    0.0520: real time    0.0524
       DOS:  cpu time    0.0010: real time    0.0008
    --------------------------------------------
      LOOP:  cpu time    3.1415: real time    3.1602

 eigenvalue-minimisations  :  1728
 total energy-change (2. order) :-0.5385618E+02  (-0.2833656E+02)
 number of electron       8.0000000 magnetization 
 augmentation part        8.0000000 magnetization 

 Free energy of the ion-electron system (eV)
  ---------------------------------------------------
  alpha Z        PSCENC =         1.37232795
  Ewald energy   TEWEN  =      2232.06528869
  -Hartree energ DENC   =     -2438.28345917
  -exchange      EXHF   =         0.00000000
  -V(xc)+E(xc)   XCENC  =        14.48597431
  PAW double counting   =       228.69403340     -218.18290438
  entropy T*S    EENTRO =        -0.00229219
  eigenvalues    EBANDS =       -65.08948754
  atomic energy  EATOM  =       294.30319316
  Solvation  Ediel_sol  =         0.00000000
  ---------------------------------------------------
  free energy    TOTEN  =        49.36267423 eV

  energy without entropy =       49.36496642  energy(sigma->0) =       49.36382032


--------------------------------------------------------------------------------------------------------




--------------------------------------- Iteration      1(   3)  ---------------------------------------


    EDDIAG:  cpu time    1.0588: real time    1.0745
  RMM-DIIS:  cpu time    2.0657: real time    2.0695
    ORTHCH:  cpu time    0.0520: real time    0.0525
       DOS:  cpu time    0.0010: real time    0.0009
    --------------------------------------------
      LOOP:  cpu time    3.1775: real time    3.1974

 eigenvalue-minimisations  :  1728
 total energy-change (2. order) :-0.3960317E+02  (-0.2161413E+02)
 number of electron       8.0000000 magnetization 
 augmentation part        8.0000000 magnetization 

 Free energy of the ion-electron system (eV)
  ---------------------------------------------------
  alpha Z        PSCENC =         1.37232795
  Ewald energy   TEWEN  =      2232.06528869
  -Hartree energ DENC   =     -2438.28345917
  -exchange      EXHF   =         0.00000000
  -V(xc)+E(xc)   XCENC  =        14.48597431
  PAW double counting   =       228.69403340     -218.18290438
  entropy T*S    EENTRO =        -0.00080610
  eigenvalues    EBANDS =      -104.69414612
  atomic energy  EATOM  =       294.30319316
  Solvation  Ediel_sol  =         0.00000000
  ---------------------------------------------------
  free energy    TOTEN  =         9.75950174 eV

  energy without entropy =        9.76030785  energy(sigma->0) =        9.75990480


--------------------------------------------------------------------------------------------------------




--------------------------------------- Iteration      1(   4)  ---------------------------------------


    EDDIAG:  cpu time    1.0608: real time    1.0740
  RMM-DIIS:  cpu time    2.0477: real time    2.0521
    ORTHCH:  cpu time    0.0520: real time    0.0524
       DOS:  cpu time    0.0000: real time    0.0008
    --------------------------------------------
      LOOP:  cpu time    3.1605: real time    3.1792

 eigenvalue-minimisations  :  1728
 total energy-change (2. order) :-0.2348672E+02  (-0.1360032E+02)
 number of electron       8.0000000 magnetization 
 augmentation part        8.0000000 magnetization 

 Free energy of the ion-electron system (eV)
  ---------------------------------------------------
  alpha Z        PSCENC =         1.37232795
  Ewald energy   TEWEN  =      2232.06528869
  -Hartree energ DENC   =     -2438.28345917
  -exchange      EXHF   =         0.00000000
  -V(xc)+E(xc)   XCENC  =        14.48597431
  PAW double counting   =       228.69403340     -218.18290438
  entropy T*S    EENTRO =        -0.00065789
  eigenvalues    EBANDS =      -128.18101160
  atomic energy  EATOM  =       294.30319316
  Solvation  Ediel_sol  =         0.00000000
  ---------------------------------------------------
  free energy    TOTEN  =       -13.72721553 eV

  energy without entropy =      -13.72655764  energy(sigma->0) =      -13.72688658


--------------------------------------------------------------------------------------------------------




--------------------------------------- Iteration      1(   5)  ---------------------------------------


    EDDIAG:  cpu time    1.0618: real time    1.0726
  RMM-DIIS:  cpu time    2.0557: real time    2.0610
    ORTHCH:  cpu time    0.0520: real time    0.0524
       DOS:  cpu time    0.0010: real time    0.0005
    --------------------------------------------
      LOOP:  cpu time    3.1705: real time    3.1865

 eigenvalue-minimisations  :  1728
 total energy-change (2. order) :-0.4659977E+01  (-0.3676500E+01)
 number of electron       8.0000000 magnetization 
 augmentation part        8.0000000 magnetization 

 Free energy of the ion-electron system (eV)
  ---------------------------------------------------
  alpha Z        PSCENC =         1.37232795
  Ewald energy   TEWEN  =      2232.06528869
  -Hartree energ DENC   =     -2438.28345917
  -exchange      EXHF   =         0.00000000
  -V(xc)+E(xc)   XCENC  =        14.48597431
  PAW double counting   =       228.69403340     -218.18290438
  entropy T*S    EENTRO =        -0.00000000
  eigenvalues    EBANDS =      -132.84164668
  atomic energy  EATOM  =       294.30319316
  Solvation  Ediel_sol  =         0.00000000
  ---------------------------------------------------
  free energy    TOTEN  =       -18.38719272 eV

  energy without entropy =      -18.38719272  energy(sigma->0) =      -18.38719272


--------------------------------------------------------------------------------------------------------




--------------------------------------- Iteration      1(   6)  ---------------------------------------


    EDDIAG:  cpu time    1.0648: real time    1.0762
  RMM-DIIS:  cpu time    2.0707: real time    2.0757
    ORTHCH:  cpu time    0.0520: real time    0.0523
       DOS:  cpu time    0.0010: real time    0.0005
    --------------------------------------------
      LOOP:  cpu time    3.1885: real time    3.2047

 eigenvalue-minimisations  :  1728
 total energy-change (2. order) :-0.1012514E+01  (-0.8368471E+00)
 number of electron       8.0000000 magnetization 
 augmentation part        8.0000000 magnetization 

 Free energy of the ion-electron system (eV)
  ---------------------------------------------------
  alpha Z        PSCENC =         1.37232795
  Ewald energy   TEWEN  =      2232.06528869
  -Hartree energ DENC   =     -2438.28345917
  -exchange      EXHF   =         0.00000000
  -V(xc)+E(xc)   XCENC  =        14.48597431
  PAW double counting   =       228.69403340     -218.18290438
  entropy T*S    EENTRO =        -0.00000000
  eigenvalues    EBANDS =      -133.85416090
  atomic energy  EATOM  =       294.30319316
  Solvation  Ediel_sol  =         0.00000000
  ---------------------------------------------------
  free energy    TOTEN  =       -19.39970694 eV

  energy without entropy =      -19.39970694  energy(sigma->0) =      -19.39970694


--------------------------------------------------------------------------------------------------------




--------------------------------------- Iteration      1(   7)  ---------------------------------------


    EDDIAG:  cpu time    1.0608: real time    1.0725
  RMM-DIIS:  cpu time    2.0687: real time    2.0741
    ORTHCH:  cpu time    0.0530: real time    0.0524
       DOS:  cpu time    0.0000: real time    0.0006
    --------------------------------------------
      LOOP:  cpu time    3.1825: real time    3.1996

 eigenvalue-minimisations  :  1728
 total energy-change (2. order) :-0.2336245E+00  (-0.1965771E+00)
 number of electron       8.0000000 magnetization 
 augmentation part        8.0000000 magnetization 

 Free energy of the ion-electron system (eV)
  ---------------------------------------------------
  alpha Z        PSCENC =         1.37232795
  Ewald energy   TEWEN  =      2232.06528869
  -Hartree energ DENC   =     -2438.28345917
  -exchange      EXHF   =         0.00000000
  -V(xc)+E(xc)   XCENC  =        14.48597431
  PAW double counting   =       228.69403340     -218.18290438
  entropy T*S    EENTRO =        -0.00000000
  eigenvalues    EBANDS =      -134.08778537
  atomic energy  EATOM  =       294.30319316
  Solvation  Ediel_sol  =         0.00000000
  ---------------------------------------------------
  free energy    TOTEN  =       -19.63333141 eV

  energy without entropy =      -19.63333141  energy(sigma->0) =      -19.63333141


--------------------------------------------------------------------------------------------------------




--------------------------------------- Iteration      1(   8)  ---------------------------------------


    EDDIAG:  cpu time    1.0748: real time    1.0765
  RMM-DIIS:  cpu time    2.0237: real time    2.0292
    ORTHCH:  cpu time    0.0520: real time    0.0524
       DOS:  cpu time    0.0010: real time    0.0006
    --------------------------------------------
      LOOP:  cpu time    3.1515: real time    3.1587

 eigenvalue-minimisations  :  1728
 total energy-change (2. order) :-0.6380812E-01  (-0.5246001E-01)
 number of electron       8.0000000 magnetization 
 augmentation part        8.0000000 magnetization 

 Free energy of the ion-electron system (eV)
  ---------------------------------------------------
  alpha Z        PSCENC =         1.37232795
  Ewald energy   TEWEN  =      2232.06528869
  -Hartree energ DENC   =     -2438.28345917
  -exchange      EXHF   =         0.00000000
  -V(xc)+E(xc)   XCENC  =        14.48597431
  PAW double counting   =       228.69403340     -218.18290438
  entropy T*S    EENTRO =        -0.00000000
  eigenvalues    EBANDS =      -134.15159350
  atomic energy  EATOM  =       294.30319316
  Solvation  Ediel_sol  =         0.00000000
  ---------------------------------------------------
  free energy    TOTEN  =       -19.69713954 eV

  energy without entropy =      -19.69713954  energy(sigma->0) =      -19.69713954


--------------------------------------------------------------------------------------------------------




--------------------------------------- Iteration      1(   9)  ---------------------------------------


    EDDIAG:  cpu time    1.0588: real time    1.0681
  RMM-DIIS:  cpu time    3.9184: real time    3.9775
    ORTHCH:  cpu time    0.0530: real time    0.0525
       DOS:  cpu time    0.0010: real time    0.0005
    --------------------------------------------
      LOOP:  cpu time    5.0312: real time    5.0987

 eigenvalue-minimisations  :  3471
 total energy-change (2. order) :-0.2417573E-01  (-0.2086434E-01)
 number of electron       8.0000000 magnetization 
 augmentation part        8.0000000 magnetization 

 Free energy of the ion-electron system (eV)
  ---------------------------------------------------
  alpha Z        PSCENC =         1.37232795
  Ewald energy   TEWEN  =      2232.06528869
  -Hartree energ DENC   =     -2438.28345917
  -exchange      EXHF   =         0.00000000
  -V(xc)+E(xc)   XCENC  =        14.48597431
  PAW double counting   =       228.69403340     -218.18290438
  entropy T*S    EENTRO =        -0.00000000
  eigenvalues    EBANDS =      -134.17576923
  atomic energy  EATOM  =       294.30319316
  Solvation  Ediel_sol  =         0.00000000
  ---------------------------------------------------
  free energy    TOTEN  =       -19.72131527 eV

  energy without entropy =      -19.72131527  energy(sigma->0) =      -19.72131527


--------------------------------------------------------------------------------------------------------




--------------------------------------- Iteration      1(  10)  ---------------------------------------


    EDDIAG:  cpu time    1.0628: real time    1.0724
  RMM-DIIS:  cpu time    4.4383: real time    4.4491
    ORTHCH:  cpu time    0.0520: real time    0.0524
       DOS:  cpu time    0.0010: real time    0.0006
    --------------------------------------------
      LOOP:  cpu time    5.5542: real time    5.5745

 eigenvalue-minimisations  :  3554
 total energy-change (2. order) :-0.4013571E-02  (-0.3373916E-02)
 number of electron       8.0000000 magnetization 
 augmentation part        8.0000000 magnetization 

 Free energy of the ion-electron system (eV)
  ---------------------------------------------------
  alpha Z        PSCENC =         1.37232795
  Ewald energy   TEWEN  =      2232.06528869
  -Hartree energ DENC   =     -2438.28345917
  -exchange      EXHF   =         0.00000000
  -V(xc)+E(xc)   XCENC  =        14.48597431
  PAW double counting   =       228.69403340     -218.18290438
  entropy T*S    EENTRO =        -0.00000000
  eigenvalues    EBANDS =      -134.17978280
  atomic energy  EATOM  =       294.30319316
  Solvation  Ediel_sol  =         0.00000000
  ---------------------------------------------------
  free energy    TOTEN  =       -19.72532884 eV

  energy without entropy =      -19.72532884  energy(sigma->0) =      -19.72532884


--------------------------------------------------------------------------------------------------------




--------------------------------------- Iteration      1(  11)  ---------------------------------------


    EDDIAG:  cpu time    1.0648: real time    1.0797
  RMM-DIIS:  cpu time    3.8694: real time    3.8792
    ORTHCH:  cpu time    0.0520: real time    0.0524
       DOS:  cpu time    0.0010: real time    0.0006
    --------------------------------------------
      LOOP:  cpu time    4.9872: real time    5.0120

 eigenvalue-minimisations  :  3483
 total energy-change (2. order) :-0.1587293E-03  (-0.1212648E-03)
 number of electron       8.0000000 magnetization 
 augmentation part        8.0000000 magnetization 

 Free energy of the ion-electron system (eV)
  ---------------------------------------------------
  alpha Z        PSCENC =         1.37232795
  Ewald energy   TEWEN  =      2232.06528869
  -Hartree energ DENC   =     -2438.28345917
  -exchange      EXHF   =         0.00000000
  -V(xc)+E(xc)   XCENC  =        14.48597431
  PAW double counting   =       228.69403340     -218.18290438
  entropy T*S    EENTRO =        -0.00000000
  eigenvalues    EBANDS =      -134.17994153
  atomic energy  EATOM  =       294.30319316
  Solvation  Ediel_sol  =         0.00000000
  ---------------------------------------------------
  free energy    TOTEN  =       -19.72548757 eV

  energy without entropy =      -19.72548757  energy(sigma->0) =      -19.72548757


--------------------------------------------------------------------------------------------------------




--------------------------------------- Iteration      1(  12)  ---------------------------------------


    EDDIAG:  cpu time    1.0608: real time    1.0757
  RMM-DIIS:  cpu time    4.3703: real time    4.3814
    ORTHCH:  cpu time    0.0530: real time    0.0524
       DOS:  cpu time    0.0000: real time    0.0006
    CHARGE:  cpu time    0.2650: real time    0.2855
    MIXING:  cpu time    0.0030: real time    0.0117
    --------------------------------------------
      LOOP:  cpu time    5.7521: real time    5.8073

 eigenvalue-minimisations  :  3528
 total energy-change (2. order) :-0.2688483E-04  (-0.2156368E-04)
 number of electron       8.0000000 magnetization 
 augmentation part       -0.0156755 magnetization 

 Broyden mixing:
  rms(total) = 0.91125E+00    rms(broyden)= 0.91118E+00
  rms(prec ) = 0.92471E+00
  weight for this iteration     100.00

 Free energy of the ion-electron system (eV)
  ---------------------------------------------------
  alpha Z        PSCENC =         1.37232795
  Ewald energy   TEWEN  =      2232.06528869
  -Hartree energ DENC   =     -2438.28345917
  -exchange      EXHF   =         0.00000000
  -V(xc)+E(xc)   XCENC  =        14.48597431
  PAW double counting   =       228.69403340     -218.18290438
  entropy T*S    EENTRO =        -0.00000000
  eigenvalues    EBANDS =      -134.17996841
  atomic energy  EATOM  =       294.30319316
  Solvation  Ediel_sol  =         0.00000000
  ---------------------------------------------------
  free energy    TOTEN  =       -19.72551445 eV

  energy without entropy =      -19.72551445  energy(sigma->0) =      -19.72551445


--------------------------------------------------------------------------------------------------------




--------------------------------------- Iteration      1(  13)  ---------------------------------------


    POTLOK:  cpu time    0.0210: real time    0.0272
    SETDIJ:  cpu time    0.0010: real time    0.0017
    EDDIAG:  cpu time    1.0488: real time    1.0520
  RMM-DIIS:  cpu time    3.8084: real time    3.8164
    ORTHCH:  cpu time    0.0520: real time    0.0528
       DOS:  cpu time    0.0010: real time    0.0006
    CHARGE:  cpu time    0.2560: real time    0.2575
    MIXING:  cpu time    0.0040: real time    0.0186
    --------------------------------------------
      LOOP:  cpu time    5.1922: real time    5.2268

 eigenvalue-minimisations  :  3456
 total energy-change (2. order) : 0.8856637E+00  (-0.4399310E-01)
 number of electron       8.0000000 magnetization 
 augmentation part       -0.0180817 magnetization 

 Broyden mixing:
  rms(total) = 0.59398E+00    rms(broyden)= 0.59398E+00
  rms(prec ) = 0.60027E+00
  weight for this iteration     100.00

 eigenvalues of (default mixing * dielectric matrix)
  average eigenvalue GAMMA=   2.6436
  2.6436

 Free energy of the ion-electron system (eV)
  ---------------------------------------------------
  alpha Z        PSCENC =         1.37232795
  Ewald energy   TEWEN  =      2232.06528869
  -Hartree energ DENC   =     -2449.58363318
  -exchange      EXHF   =         0.00000000
  -V(xc)+E(xc)   XCENC  =        14.93184858
  PAW double counting   =       998.08954214     -987.70214675
  entropy T*S    EENTRO =        -0.00000000
  eigenvalues    EBANDS =      -122.31627130
  atomic energy  EATOM  =       294.30319316
  Solvation  Ediel_sol  =         0.00000000
  ---------------------------------------------------
  free energy    TOTEN  =       -18.83985070 eV

  energy without entropy =      -18.83985070  energy(sigma->0) =      -18.83985070


--------------------------------------------------------------------------------------------------------




--------------------------------------- Iteration      1(  14)  ---------------------------------------


    POTLOK:  cpu time    0.0200: real time    0.0265
    SETDIJ:  cpu time    0.0010: real time    0.0016
    EDDIAG:  cpu time    1.0468: real time    1.0508
  RMM-DIIS:  cpu time    3.7534: real time    3.7687
    ORTHCH:  cpu time    0.0530: real time    0.0529
       DOS:  cpu time    0.0000: real time    0.0006
    CHARGE:  cpu time    0.2580: real time    0.2573
    MIXING:  cpu time    0.0010: real time    0.0070
    --------------------------------------------
      LOOP:  cpu time    5.1332: real time    5.1655

 eigenvalue-minimisations  :  3456
 total energy-change (2. order) : 0.3331750E+00  (-0.9272751E-01)
 number of electron       8.0000000 magnetization 
 augmentation part       -0.0211220 magnetization 

 Broyden mixing:
  rms(total) = 0.11697E+00    rms(broyden)= 0.11696E+00
  rms(prec ) = 0.11952E+00
  weight for this iteration     100.00

 eigenvalues of (default mixing * dielectric matrix)
  average eigenvalue GAMMA=   2.2339
  2.2339  2.2339

 Free energy of the ion-electron system (eV)
  ---------------------------------------------------
  alpha Z        PSCENC =         1.37232795
  Ewald energy   TEWEN  =      2232.06528869
  -Hartree energ DENC   =     -2468.13850116
  -exchange      EXHF   =         0.00000000
  -V(xc)+E(xc)   XCENC  =        15.67822031
  PAW double counting   =      3854.57006441    -3844.29270494
  entropy T*S    EENTRO =        -0.00000000
  eigenvalues    EBANDS =      -104.06456416
  atomic energy  EATOM  =       294.30319316
  Solvation  Ediel_sol  =         0.00000000
  ---------------------------------------------------
  free energy    TOTEN  =       -18.50667574 eV

  energy without entropy =      -18.50667574  energy(sigma->0) =      -18.50667574


--------------------------------------------------------------------------------------------------------




--------------------------------------- Iteration      1(  15)  ---------------------------------------


    POTLOK:  cpu time    0.0200: real time    0.0275
    SETDIJ:  cpu time    0.0020: real time    0.0017
    EDDIAG:  cpu time    1.0478: real time    1.0501
  RMM-DIIS:  cpu time    3.9034: real time    3.9127
    ORTHCH:  cpu time    0.0520: real time    0.0529
       DOS:  cpu time    0.0010: real time    0.0007
    CHARGE:  cpu time    0.2570: real time    0.2572
    MIXING:  cpu time    0.0020: real time    0.0043
    --------------------------------------------
      LOOP:  cpu time    5.2852: real time    5.3070

 eigenvalue-minimisations  :  3469
 total energy-change (2. order) : 0.2062233E-01  (-0.2508273E-02)
 number of electron       8.0000000 magnetization 
 augmentation part       -0.0205811 magnetization 

 Broyden mixing:
  rms(total) = 0.12426E-01    rms(broyden)= 0.12424E-01
  rms(prec ) = 0.15964E-01
  weight for this iteration     100.00

 eigenvalues of (default mixing * dielectric matrix)
  average eigenvalue GAMMA=   2.0000
  1.3459  2.3271  2.3271

 Free energy of the ion-electron system (eV)
  ---------------------------------------------------
  alpha Z        PSCENC =         1.37232795
  Ewald energy   TEWEN  =      2232.06528869
  -Hartree energ DENC   =     -2467.24402269
  -exchange      EXHF   =         0.00000000
  -V(xc)+E(xc)   XCENC  =        15.56472726
  PAW double counting   =      4088.14089970    -4077.80337385
  entropy T*S    EENTRO =        -0.00000000
  eigenvalues    EBANDS =      -104.88509364
  atomic energy  EATOM  =       294.30319316
  Solvation  Ediel_sol  =         0.00000000
  ---------------------------------------------------
  free energy    TOTEN  =       -18.48605341 eV

  energy without entropy =      -18.48605341  energy(sigma->0) =      -18.48605341


--------------------------------------------------------------------------------------------------------




--------------------------------------- Iteration      1(  16)  ---------------------------------------


    POTLOK:  cpu time    0.0200: real time    0.0312
    SETDIJ:  cpu time    0.0020: real time    0.0017
    EDDIAG:  cpu time    1.0478: real time    1.0503
  RMM-DIIS:  cpu time    4.0554: real time    4.0658
    ORTHCH:  cpu time    0.0520: real time    0.0527
       DOS:  cpu time    0.0010: real time    0.0006
    CHARGE:  cpu time    0.2570: real time    0.2574
    MIXING:  cpu time    0.0000: real time    0.0008
    --------------------------------------------
      LOOP:  cpu time    5.4352: real time    5.4606

 eigenvalue-minimisations  :  3475
 total energy-change (2. order) : 0.1564503E-02  (-0.4264840E-04)
 number of electron       8.0000000 magnetization 
 augmentation part       -0.0205253 magnetization 

 Broyden mixing:
  rms(total) = 0.82456E-02    rms(broyden)= 0.82454E-02
  rms(prec ) = 0.11461E-01
  weight for this iteration     100.00

 eigenvalues of (default mixing * dielectric matrix)
  average eigenvalue GAMMA=   2.0850
  0.9944  2.5300  2.5300  2.2857

 Free energy of the ion-electron system (eV)
  ---------------------------------------------------
  alpha Z        PSCENC =         1.37232795
  Ewald energy   TEWEN  =      2232.06528869
  -Hartree energ DENC   =     -2468.44213057
  -exchange      EXHF   =         0.00000000
  -V(xc)+E(xc)   XCENC  =        15.57965205
  PAW double counting   =      4140.81550581    -4130.47537340
  entropy T*S    EENTRO =        -0.00000000
  eigenvalues    EBANDS =      -103.70295261
  atomic energy  EATOM  =       294.30319316
  Solvation  Ediel_sol  =         0.00000000
  ---------------------------------------------------
  free energy    TOTEN  =       -18.48448891 eV

  energy without entropy =      -18.48448891  energy(sigma->0) =      -18.48448891


--------------------------------------------------------------------------------------------------------




--------------------------------------- Iteration      1(  17)  ---------------------------------------


    POTLOK:  cpu time    0.0310: real time    0.0307
    SETDIJ:  cpu time    0.0020: real time    0.0017
    EDDIAG:  cpu time    1.0468: real time    1.0500
  RMM-DIIS:  cpu time    3.8824: real time    3.8994
    ORTHCH:  cpu time    0.0530: real time    0.0530
       DOS:  cpu time    0.0010: real time    0.0006
    CHARGE:  cpu time    0.2570: real time    0.2575
    MIXING:  cpu time    0.0010: real time    0.0009
    --------------------------------------------
      LOOP:  cpu time    5.2742: real time    5.2937

 eigenvalue-minimisations  :  3458
 total energy-change (2. order) : 0.1319981E-02  (-0.5628640E-04)
 number of electron       8.0000000 magnetization 
 augmentation part       -0.0205752 magnetization 

 Broyden mixing:
  rms(total) = 0.60901E-02    rms(broyden)= 0.60899E-02
  rms(prec ) = 0.75265E-02
  weight for this iteration     100.00

 eigenvalues of (default mixing * dielectric matrix)
  average eigenvalue GAMMA=   2.1108
  3.7582  2.3602  1.0358  1.8702  1.5293

 Free energy of the ion-electron system (eV)
  ---------------------------------------------------
  alpha Z        PSCENC =         1.37232795
  Ewald energy   TEWEN  =      2232.06528869
  -Hartree energ DENC   =     -2470.76702117
  -exchange      EXHF   =         0.00000000
  -V(xc)+E(xc)   XCENC  =        15.60655313
  PAW double counting   =      4082.84771015    -4072.50921384
  entropy T*S    EENTRO =        -0.00000000
  eigenvalues    EBANDS =      -101.40200700
  atomic energy  EATOM  =       294.30319316
  Solvation  Ediel_sol  =         0.00000000
  ---------------------------------------------------
  free energy    TOTEN  =       -18.48316893 eV

  energy without entropy =      -18.48316893  energy(sigma->0) =      -18.48316893


--------------------------------------------------------------------------------------------------------




--------------------------------------- Iteration      1(  18)  ---------------------------------------


    POTLOK:  cpu time    0.0210: real time    0.0327
    SETDIJ:  cpu time    0.0010: real time    0.0017
    EDDIAG:  cpu time    1.0458: real time    1.0498
  RMM-DIIS:  cpu time    3.8744: real time    3.8898
    ORTHCH:  cpu time    0.0530: real time    0.0527
       DOS:  cpu time    0.0000: real time    0.0006
    CHARGE:  cpu time    0.2590: real time    0.2591
    MIXING:  cpu time    0.0010: real time    0.0022
    --------------------------------------------
      LOOP:  cpu time    5.2552: real time    5.2885

 eigenvalue-minimisations  :  3456
 total energy-change (2. order) : 0.6027820E-04  (-0.1647760E-04)
 number of electron       8.0000000 magnetization 
 augmentation part       -0.0205606 magnetization 

 Broyden mixing:
  rms(total) = 0.56892E-02    rms(broyden)= 0.56891E-02
  rms(prec ) = 0.62676E-02
  weight for this iteration     100.00

 eigenvalues of (default mixing * dielectric matrix)
  average eigenvalue GAMMA=   2.5691
  5.9387  2.9127  2.3950  2.1897  0.9891  0.9891

 Free energy of the ion-electron system (eV)
  ---------------------------------------------------
  alpha Z        PSCENC =         1.37232795
  Ewald energy   TEWEN  =      2232.06528869
  -Hartree energ DENC   =     -2472.01157923
  -exchange      EXHF   =         0.00000000
  -V(xc)+E(xc)   XCENC  =        15.61188201
  PAW double counting   =      4124.65233704    -4114.30931131
  entropy T*S    EENTRO =        -0.00000000
  eigenvalues    EBANDS =      -100.16724696
  atomic energy  EATOM  =       294.30319316
  Solvation  Ediel_sol  =         0.00000000
  ---------------------------------------------------
  free energy    TOTEN  =       -18.48310865 eV

  energy without entropy =      -18.48310865  energy(sigma->0) =      -18.48310865


--------------------------------------------------------------------------------------------------------




--------------------------------------- Iteration      1(  19)  ---------------------------------------


    POTLOK:  cpu time    0.0190: real time    0.0280
    SETDIJ:  cpu time    0.0020: real time    0.0017
    EDDIAG:  cpu time    1.0478: real time    1.0511
  RMM-DIIS:  cpu time    3.8274: real time    3.8357
    ORTHCH:  cpu time    0.0510: real time    0.0522
       DOS:  cpu time    0.0010: real time    0.0006
    CHARGE:  cpu time    0.2590: real time    0.2592
    MIXING:  cpu time    0.0010: real time    0.0009
    --------------------------------------------
      LOOP:  cpu time    5.2082: real time    5.2294

 eigenvalue-minimisations  :  3456
 total energy-change (2. order) :-0.4709340E-03  (-0.1465302E-04)
 number of electron       8.0000000 magnetization 
 augmentation part       -0.0205993 magnetization 

 Broyden mixing:
  rms(total) = 0.15842E-02    rms(broyden)= 0.15840E-02
  rms(prec ) = 0.18575E-02
  weight for this iteration     100.00

 eigenvalues of (default mixing * dielectric matrix)
  average eigenvalue GAMMA=   2.3931
  6.0769  2.9583  2.2947  2.1481  1.4089  0.9971  0.8676

 Free energy of the ion-electron system (eV)
  ---------------------------------------------------
  alpha Z        PSCENC =         1.37232795
  Ewald energy   TEWEN  =      2232.06528869
  -Hartree energ DENC   =     -2473.26710114
  -exchange      EXHF   =         0.00000000
  -V(xc)+E(xc)   XCENC  =        15.61928323
  PAW double counting   =      4095.78397958    -4085.44321422
  entropy T*S    EENTRO =        -0.00000000
  eigenvalues    EBANDS =       -98.91733684
  atomic energy  EATOM  =       294.30319316
  Solvation  Ediel_sol  =         0.00000000
  ---------------------------------------------------
  free energy    TOTEN  =       -18.48357958 eV

  energy without entropy =      -18.48357958  energy(sigma->0) =      -18.48357958


--------------------------------------------------------------------------------------------------------




--------------------------------------- Iteration      1(  20)  ---------------------------------------


    POTLOK:  cpu time    0.0200: real time    0.0289
    SETDIJ:  cpu time    0.0010: real time    0.0017
    EDDIAG:  cpu time    1.0588: real time    1.0618
  RMM-DIIS:  cpu time    3.9154: real time    3.9249
    ORTHCH:  cpu time    0.0510: real time    0.0522
       DOS:  cpu time    0.0010: real time    0.0006
    CHARGE:  cpu time    0.2590: real time    0.2592
    MIXING:  cpu time    0.0010: real time    0.0010
    --------------------------------------------
      LOOP:  cpu time    5.3072: real time    5.3302

 eigenvalue-minimisations  :  3465
 total energy-change (2. order) :-0.2931999E-03  (-0.6139256E-06)
 number of electron       8.0000000 magnetization 
 augmentation part       -0.0205994 magnetization 

 Broyden mixing:
  rms(total) = 0.19266E-02    rms(broyden)= 0.19265E-02
  rms(prec ) = 0.20588E-02
  weight for this iteration     100.00

 eigenvalues of (default mixing * dielectric matrix)
  average eigenvalue GAMMA=   2.7463
  7.6254  4.1159  2.6931  2.2986  2.2986  0.9892  0.9892  0.9604

 Free energy of the ion-electron system (eV)
  ---------------------------------------------------
  alpha Z        PSCENC =         1.37232795
  Ewald energy   TEWEN  =      2232.06528869
  -Hartree energ DENC   =     -2473.38303928
  -exchange      EXHF   =         0.00000000
  -V(xc)+E(xc)   XCENC  =        15.61878124
  PAW double counting   =      4091.06267743    -4080.72195104
  entropy T*S    EENTRO =        -0.00000000
  eigenvalues    EBANDS =       -98.80115095
  atomic energy  EATOM  =       294.30319316
  Solvation  Ediel_sol  =         0.00000000
  ---------------------------------------------------
  free energy    TOTEN  =       -18.48387278 eV

  energy without entropy =      -18.48387278  energy(sigma->0) =      -18.48387278


--------------------------------------------------------------------------------------------------------




--------------------------------------- Iteration      1(  21)  ---------------------------------------


    POTLOK:  cpu time    0.0200: real time    0.0300
    SETDIJ:  cpu time    0.0020: real time    0.0017
    EDDIAG:  cpu time    1.0458: real time    1.0495
  RMM-DIIS:  cpu time    3.8454: real time    3.8537
    ORTHCH:  cpu time    0.0520: real time    0.0522
       DOS:  cpu time    0.0010: real time    0.0006
    CHARGE:  cpu time    0.2580: real time    0.2592
    MIXING:  cpu time    0.0010: real time    0.0010
    --------------------------------------------
      LOOP:  cpu time    5.2252: real time    5.2478

 eigenvalue-minimisations  :  3456
 total energy-change (2. order) :-0.5538267E-03  (-0.4366394E-05)
 number of electron       8.0000000 magnetization 
 augmentation part       -0.0205924 magnetization 

 Broyden mixing:
  rms(total) = 0.60802E-03    rms(broyden)= 0.60800E-03
  rms(prec ) = 0.64651E-03
  weight for this iteration     100.00

 eigenvalues of (default mixing * dielectric matrix)
  average eigenvalue GAMMA=   2.9226
  8.2383  4.9249  3.1205  2.6008  2.2387  2.2387  1.0016  0.9701  0.9701

 Free energy of the ion-electron system (eV)
  ---------------------------------------------------
  alpha Z        PSCENC =         1.37232795
  Ewald energy   TEWEN  =      2232.06528869
  -Hartree energ DENC   =     -2473.57244740
  -exchange      EXHF   =         0.00000000
  -V(xc)+E(xc)   XCENC  =        15.61703207
  PAW double counting   =      4103.65293079    -4093.31158726
  entropy T*S    EENTRO =        -0.00000000
  eigenvalues    EBANDS =       -98.61116461
  atomic energy  EATOM  =       294.30319316
  Solvation  Ediel_sol  =         0.00000000
  ---------------------------------------------------
  free energy    TOTEN  =       -18.48442661 eV

  energy without entropy =      -18.48442661  energy(sigma->0) =      -18.48442661


--------------------------------------------------------------------------------------------------------




--------------------------------------- Iteration      1(  22)  ---------------------------------------


    POTLOK:  cpu time    0.0310: real time    0.0308
    SETDIJ:  cpu time    0.0010: real time    0.0017
    EDDIAG:  cpu time    1.0478: real time    1.0496
  RMM-DIIS:  cpu time    3.7414: real time    3.7502
    ORTHCH:  cpu time    0.0510: real time    0.0522
       DOS:  cpu time    0.0010: real time    0.0006
    CHARGE:  cpu time    0.2590: real time    0.2592
    MIXING:  cpu time    0.0010: real time    0.0011
    --------------------------------------------
      LOOP:  cpu time    5.1332: real time    5.1453

 eigenvalue-minimisations  :  3426
 total energy-change (2. order) :-0.9762098E-04  (-0.2913168E-06)
 number of electron       8.0000000 magnetization 
 augmentation part       -0.0205915 magnetization 

 Broyden mixing:
  rms(total) = 0.22664E-03    rms(broyden)= 0.22663E-03
  rms(prec ) = 0.25114E-03
  weight for this iteration     100.00

 eigenvalues of (default mixing * dielectric matrix)
  average eigenvalue GAMMA=   2.7707
  8.3708  5.1406  3.0721  2.5765  2.3054  2.3054  1.0054  0.9630  0.9840  0.9840

 Free energy of the ion-electron system (eV)
  ---------------------------------------------------
  alpha Z        PSCENC =         1.37232795
  Ewald energy   TEWEN  =      2232.06528869
  -Hartree energ DENC   =     -2473.60476656
  -exchange      EXHF   =         0.00000000
  -V(xc)+E(xc)   XCENC  =        15.61691175
  PAW double counting   =      4100.55929142    -4090.21795682
  entropy T*S    EENTRO =        -0.00000000
  eigenvalues    EBANDS =       -98.57881383
  atomic energy  EATOM  =       294.30319316
  Solvation  Ediel_sol  =         0.00000000
  ---------------------------------------------------
  free energy    TOTEN  =       -18.48452423 eV

  energy without entropy =      -18.48452423  energy(sigma->0) =      -18.48452423


--------------------------------------------------------------------------------------------------------




--------------------------------------- Iteration      1(  23)  ---------------------------------------


    POTLOK:  cpu time    0.0190: real time    0.0282
    SETDIJ:  cpu time    0.0020: real time    0.0017
    EDDIAG:  cpu time    1.0468: real time    1.0499
  RMM-DIIS:  cpu time    3.8164: real time    3.8272
    ORTHCH:  cpu time    0.0520: real time    0.0523
       DOS:  cpu time    0.0010: real time    0.0006
    CHARGE:  cpu time    0.2570: real time    0.2573
    MIXING:  cpu time    0.0030: real time    0.0173
    --------------------------------------------
      LOOP:  cpu time    5.1972: real time    5.2345

 eigenvalue-minimisations  :  3456
 total energy-change (2. order) :-0.1769082E-04  (-0.3181274E-07)
 number of electron       8.0000000 magnetization 
 augmentation part       -0.0205928 magnetization 

 Broyden mixing:
  rms(total) = 0.61940E-04    rms(broyden)= 0.61937E-04
  rms(prec ) = 0.89326E-04
  weight for this iteration     100.00

 eigenvalues of (default mixing * dielectric matrix)
  average eigenvalue GAMMA=   2.9102
  8.7020  5.7515  3.8672  2.7822  2.4165  2.2719  2.2719  1.0051  0.9884  0.9779
  0.9779

 Free energy of the ion-electron system (eV)
  ---------------------------------------------------
  alpha Z        PSCENC =         1.37232795
  Ewald energy   TEWEN  =      2232.06528869
  -Hartree energ DENC   =     -2473.63306839
  -exchange      EXHF   =         0.00000000
  -V(xc)+E(xc)   XCENC  =        15.61723505
  PAW double counting   =      4099.88470776    -4089.54346726
  entropy T*S    EENTRO =        -0.00000000
  eigenvalues    EBANDS =       -98.55075889
  atomic energy  EATOM  =       294.30319316
  Solvation  Ediel_sol  =         0.00000000
  ---------------------------------------------------
  free energy    TOTEN  =       -18.48454192 eV

  energy without entropy =      -18.48454192  energy(sigma->0) =      -18.48454192


--------------------------------------------------------------------------------------------------------




--------------------------------------- Iteration      1(  24)  ---------------------------------------


    POTLOK:  cpu time    0.0200: real time    0.0270
    SETDIJ:  cpu time    0.0010: real time    0.0017
    EDDIAG:  cpu time    1.0488: real time    1.0505
  RMM-DIIS:  cpu time    3.7454: real time    3.7554
    ORTHCH:  cpu time    0.0520: real time    0.0523
       DOS:  cpu time    0.0010: real time    0.0006
    CHARGE:  cpu time    0.2580: real time    0.2575
    MIXING:  cpu time    0.0010: real time    0.0012
    --------------------------------------------
      LOOP:  cpu time    5.1272: real time    5.1461

 eigenvalue-minimisations  :  3240
 total energy-change (2. order) :-0.1573143E-04  (-0.1775762E-07)
 number of electron       8.0000000 magnetization 
 augmentation part       -0.0205931 magnetization 

 Broyden mixing:
  rms(total) = 0.55213E-04    rms(broyden)= 0.55212E-04
  rms(prec ) = 0.62421E-04
  weight for this iteration     100.00

 eigenvalues of (default mixing * dielectric matrix)
  average eigenvalue GAMMA=   2.9653
  8.7993  5.9777  3.8438  2.9829  2.9829  2.6024  2.2271  2.2271  0.9724  0.9724
  0.9919  1.0031

 Free energy of the ion-electron system (eV)
  ---------------------------------------------------
  alpha Z        PSCENC =         1.37232795
  Ewald energy   TEWEN  =      2232.06528869
  -Hartree energ DENC   =     -2473.65076312
  -exchange      EXHF   =         0.00000000
  -V(xc)+E(xc)   XCENC  =        15.61729854
  PAW double counting   =      4099.84081109    -4089.49959483
  entropy T*S    EENTRO =        -0.00000000
  eigenvalues    EBANDS =       -98.53311914
  atomic energy  EATOM  =       294.30319316
  Solvation  Ediel_sol  =         0.00000000
  ---------------------------------------------------
  free energy    TOTEN  =       -18.48455765 eV

  energy without entropy =      -18.48455765  energy(sigma->0) =      -18.48455765


--------------------------------------------------------------------------------------------------------




--------------------------------------- Iteration      1(  25)  ---------------------------------------


    POTLOK:  cpu time    0.0260: real time    0.0273
    SETDIJ:  cpu time    0.0020: real time    0.0017
    EDDIAG:  cpu time    1.0478: real time    1.0501
  RMM-DIIS:  cpu time    3.7404: real time    3.7478
    ORTHCH:  cpu time    0.0520: real time    0.0522
[...]
     12       6.0607      0.00000
     13       6.3150      0.00000
     14       7.0013      0.00000
     15       7.3883      0.00000
     16       8.5520      0.00000
     17       9.0325      0.00000
     18      10.1019      0.00000
     19      10.3950      0.00000
     20      11.0456      0.00000
     21      12.3282      0.00000
     22      13.3873      0.00000
     23      13.7598      0.00000
     24      14.5002      0.00000

 k-point    60 :      -0.0417    0.3750    0.0000
  band No.  band energies     occupation 
      1     -19.7772      2.00000
      2     -13.3827      2.00000
      3      -9.1532      2.00000
      4      -7.4336      2.00000
      5       1.1082      0.00000
      6       4.0844      0.00000
      7       4.8290      0.00000
      8       4.9366      0.00000
      9       5.2164      0.00000
     10       5.5146      0.00000
     11       5.7278      0.00000
     12       6.3567      0.00000
     13       6.6517      0.00000
     14       7.5724      0.00000
     15       7.9427      0.00000
     16       9.1259      0.00000
     17       9.5899      0.00000
     18      10.9783      0.00000
     19      11.5815      0.00000
     20      12.0632      0.00000
     21      12.8796      0.00000
     22      13.6978      0.00000
     23      13.8189      0.00000
     24      13.9382      0.00000

 k-point    61 :       0.0417    0.4583    0.0000
  band No.  band energies     occupation 
      1     -17.6585      2.00000
      2     -16.2127      2.00000
      3      -9.6203      2.00000
      4      -5.6149      2.00000
      5      -1.4378      0.00000
      6       4.5695      0.00000
      7       7.3553      0.00000
      8       8.2106      0.00000
      9       8.6053      0.00000
     10       8.6262      0.00000
     11       8.8856      0.00000
     12       9.1151      0.00000
     13       9.4509      0.00000
     14       9.7269      0.00000
     15       9.9678      0.00000
     16      10.0156      0.00000
     17      10.2198      0.00000
     18      10.4491      0.00000
     19      10.8211      0.00000
     20      11.0555      0.00000
     21      11.2776      0.00000
     22      11.3352      0.00000
     23      12.0454      0.00000
     24      12.5425      0.00000

 k-point    62 :       0.1250    0.4583    0.0000
  band No.  band energies     occupation 
      1     -17.4541      2.00000
      2     -15.9968      2.00000
      3     -10.6042      2.00000
      4      -5.3214      2.00000
      5      -1.5190      0.00000
      6       5.9277      0.00000
      7       7.6387      0.00000
      8       8.3271      0.00000
      9       8.9124      0.00000
     10       8.9473      0.00000
     11       9.1460      0.00000
     12       9.4329      0.00000
     13       9.5542      0.00000
     14      10.0509      0.00000
     15      10.3236      0.00000
     16      10.3384      0.00000
     17      10.5396      0.00000
     18      10.8094      0.00000
     19      10.9707      0.00000
     20      11.3959      0.00000
     21      11.5712      0.00000
     22      11.6803      0.00000
     23      12.0445      0.00000
     24      12.9718      0.00000

 k-point    63 :       0.2083    0.4583    0.0000
  band No.  band energies     occupation 
      1     -17.7006      2.00000
      2     -14.8670      2.00000
      3     -11.9923      2.00000
      4      -5.2405      2.00000
      5      -1.2434      0.00000
      6       7.0885      0.00000
      7       7.5617      0.00000
      8       8.1391      0.00000
      9       8.3819      0.00000
     10       8.5617      0.00000
     11       8.8726      0.00000
     12       9.1316      0.00000
     13       9.7621      0.00000
     14       9.8744      0.00000
     15      10.2906      0.00000
     16      10.9530      0.00000
     17      11.0369      0.00000
     18      12.2379      0.00000
     19      12.4660      0.00000
     20      12.5847      0.00000
     21      12.6374      0.00000
     22      12.7684      0.00000
     23      12.9744      0.00000
     24      13.2870      0.00000

 k-point    64 :       0.2917    0.4583    0.0000
  band No.  band energies     occupation 
      1     -17.7530      2.00000
      2     -14.3250      2.00000
      3     -12.6031      2.00000
      4      -5.2234      2.00000
      5      -1.1364      0.00000
      6       6.9948      0.00000
      7       7.3655      0.00000
      8       8.2780      0.00000
      9       8.4455      0.00000
     10       8.7590      0.00000
     11       8.9934      0.00000
     12       9.0722      0.00000
     13       9.6678      0.00000
     14       9.7592      0.00000
     15      10.2342      0.00000
     16      10.8826      0.00000
     17      10.9487      0.00000
     18      12.3769      0.00000
     19      12.5354      0.00000
     20      13.4259      0.00000
     21      13.6928      0.00000
     22      13.9511      0.00000
     23      14.2029      0.00000
     24      14.3174      0.00000

 k-point    65 :       0.3750    0.4583    0.0000
  band No.  band energies     occupation 
      1     -17.5492      2.00000
      2     -15.4305      2.00000
      3     -11.3740      2.00000
      4      -5.2220      2.00000
      5      -1.3860      0.00000
      6       6.7283      0.00000
      7       7.3598      0.00000
      8       7.9050      0.00000
      9       8.6370      0.00000
     10       8.8302      0.00000
     11       9.1251      0.00000
     12       9.4060      0.00000
     13       9.8325      0.00000
     14      10.0316      0.00000
     15      10.0760      0.00000
     16      11.0246      0.00000
     17      11.2753      0.00000
     18      11.4686      0.00000
     19      11.5763      0.00000
     20      11.9070      0.00000
     21      11.9446      0.00000
     22      12.5859      0.00000
     23      12.6921      0.00000
     24      12.9513      0.00000

 k-point    66 :       0.4583    0.4583    0.0000
  band No.  band energies     occupation 
      1     -17.3479      2.00000
      2     -16.2991      2.00000
      3     -10.1249      2.00000
      4      -5.3779      2.00000
      5      -1.5334      0.00000
      6       4.8818      0.00000
      7       8.0684      0.00000
      8       8.2400      0.00000
      9       8.7563      0.00000
     10       9.1328      0.00000
     11       9.4541      0.00000
     12       9.5061      0.00000
     13       9.6950      0.00000
     14       9.7669      0.00000
     15       9.9368      0.00000
     16       9.9937      0.00000
     17      10.4099      0.00000
     18      10.6001      0.00000
     19      10.8226      0.00000
     20      10.8868      0.00000
     21      11.4237      0.00000
     22      11.8209      0.00000
     23      12.0649      0.00000
     24      12.1428      0.00000

 k-point    67 :      -0.4583    0.4583    0.0000
  band No.  band energies     occupation 
      1     -17.9534      2.00000
      2     -15.8412      2.00000
      3      -9.5595      2.00000
      4      -5.7782      2.00000
      5      -1.1787      0.00000
      6       4.1852      0.00000
      7       6.7720      0.00000
      8       7.6254      0.00000
      9       7.9960      0.00000
     10       8.2717      0.00000
     11       8.4925      0.00000
     12       9.0851      0.00000
     13       9.3078      0.00000
     14       9.4080      0.00000
     15      10.0969      0.00000
     16      10.3612      0.00000
     17      10.6732      0.00000
     18      10.7358      0.00000
     19      10.9800      0.00000
     20      11.2100      0.00000
     21      11.6384      0.00000
     22      11.8924      0.00000
     23      12.0822      0.00000
     24      12.2990      0.00000

 k-point    68 :      -0.3750    0.4583    0.0000
  band No.  band energies     occupation 
      1     -18.6097      2.00000
      2     -14.7962      2.00000
      3      -9.9717      2.00000
      4      -6.2405      2.00000
      5      -0.4359      0.00000
      6       4.9671      0.00000
      7       5.7831      0.00000
      8       6.5955      0.00000
      9       6.9485      0.00000
     10       7.2279      0.00000
     11       7.4507      0.00000
     12       8.0486      0.00000
     13       8.3644      0.00000
     14       9.2210      0.00000
     15       9.6437      0.00000
     16      10.6137      0.00000
     17      10.7440      0.00000
     18      11.2823      0.00000
     19      11.5092      0.00000
     20      12.4714      0.00000
     21      12.5076      0.00000
     22      12.7780      0.00000
     23      12.8945      0.00000
     24      13.2667      0.00000

 k-point    69 :      -0.2917    0.4583    0.0000
  band No.  band energies     occupation 
      1     -19.0007      2.00000
      2     -13.5823      2.00000
      3     -11.0173      2.00000
      4      -6.5592      2.00000
      5       0.2859      0.00000
      6       5.1958      0.00000
      7       5.9801      0.00000
      8       6.3610      0.00000
      9       6.6336      0.00000
     10       6.8404      0.00000
     11       6.9514      0.00000
     12       7.4451      0.00000
     13       7.7873      0.00000
     14       8.5969      0.00000
     15       9.0669      0.00000
     16       9.9498      0.00000
     17      10.6415      0.00000
     18      10.8347      0.00000
     19      11.1839      0.00000
     20      12.6132      0.00000
     21      12.6973      0.00000
     22      13.9805      0.00000
     23      14.4055      0.00000
     24      14.8097      0.00000

 k-point    70 :      -0.2083    0.4583    0.0000
  band No.  band energies     occupation 
      1     -19.0872      2.00000
      2     -13.1434      2.00000
      3     -11.4298      2.00000
      4      -6.6362      2.00000
      5       0.4614      0.00000
      6       5.0767      0.00000
      7       5.8434      0.00000
      8       6.2352      0.00000
      9       6.5050      0.00000
     10       6.7379      0.00000
     11       7.3133      0.00000
     12       7.6453      0.00000
     13       8.2670      0.00000
     14       8.4577      0.00000
     15       8.9547      0.00000
     16       9.5656      0.00000
     17       9.7904      0.00000
     18      10.5942      0.00000
     19      11.0272      0.00000
     20      12.5163      0.00000
     21      12.5763      0.00000
     22      14.5662      0.00000
     23      14.7633      0.00000
     24      14.9185      0.00000

 k-point    71 :      -0.1250    0.4583    0.0000
  band No.  band energies     occupation 
      1     -18.8651      2.00000
      2     -14.2490      2.00000
      3     -10.3611      2.00000
      4      -6.4539      2.00000
      5      -0.0686      0.00000
      6       5.3852      0.00000
      7       6.0758      0.00000
      8       6.2113      0.00000
      9       6.5707      0.00000
     10       6.8478      0.00000
     11       7.0753      0.00000
     12       7.6664      0.00000
     13       7.9907      0.00000
     14       8.8340      0.00000
     15       9.2716      0.00000
     16      10.2317      0.00000
     17      10.8760      0.00000
     18      11.0676      0.00000
     19      11.4342      0.00000
     20      12.6342      0.00000
     21      12.8828      0.00000
     22      13.3203      0.00000
     23      13.4891      0.00000
     24      13.4997      0.00000

 k-point    72 :      -0.0417    0.4583    0.0000
  band No.  band energies     occupation 
      1     -18.3529      2.00000
      2     -15.3961      2.00000
      3      -9.5432      2.00000
      4      -6.0648      2.00000
      5      -0.8617      0.00000
      6       4.6094      0.00000
      7       6.1745      0.00000
      8       7.0194      0.00000
      9       7.3657      0.00000
     10       7.6472      0.00000
     11       7.8657      0.00000
     12       8.4702      0.00000
     13       8.7764      0.00000
     14       9.6452      0.00000
     15       9.9247      0.00000
     16      10.0642      0.00000
     17      10.7399      0.00000
     18      11.2421      0.00000
     19      11.4508      0.00000
     20      11.6855      0.00000
     21      11.6939      0.00000
     22      11.9129      0.00000
     23      12.3987      0.00000
     24      12.8689      0.00000


--------------------------------------------------------------------------------------------------------


 soft charge-density along one line, spin component           1
         0         1         2         3         4         5         6         7         8         9
 total charge-density along one line
 
 pseudopotential strength for first ion, spin component:           1
 12.715  21.397   0.000  -0.000  -0.000   0.000  -0.000  -0.000
 21.397  36.006   0.000  -0.000  -0.000   0.000  -0.000  -0.001
  0.000   0.000  -3.175   0.000  -0.000  -5.691   0.000  -0.000
 -0.000  -0.000   0.000  -3.176  -0.000   0.000  -5.693  -0.000
 -0.000  -0.000  -0.000  -0.000  -3.175  -0.000  -0.000  -5.691
  0.000   0.000  -5.691   0.000  -0.000 -10.179   0.000  -0.000
 -0.000  -0.000   0.000  -5.693  -0.000   0.000 -10.182  -0.000
 -0.000  -0.001  -0.000  -0.000  -5.691  -0.000  -0.000 -10.179
 total augmentation occupancy for first ion, spin component:           1
  7.801  -2.729  -0.002   0.000   0.063   0.001   0.000  -0.027
 -2.729   0.992   0.001   0.000  -0.027  -0.000   0.000   0.011
 -0.002   0.001   7.373   0.000  -0.007  -2.513   0.000   0.000
  0.000   0.000   0.000   3.307   0.000   0.000  -0.893   0.000
  0.063  -0.027  -0.007   0.000   7.376   0.000   0.000  -2.514
  0.001  -0.000  -2.513   0.000   0.000   0.870   0.000   0.001
  0.000   0.000   0.000  -0.893   0.000   0.000   0.247   0.000
 -0.027   0.011   0.000   0.000  -2.514   0.001   0.000   0.871


------------------------ aborting loop because EDIFF is reached ----------------------------------------


    CHARGE:  cpu time    0.2570: real time    0.2576
    FORLOC:  cpu time    0.0010: real time    0.0006
    FORNL :  cpu time    0.1440: real time    0.1442
    STRESS:  cpu time    2.0077: real time    2.0108
    FORCOR:  cpu time    0.0150: real time    0.0144
    FORHAR:  cpu time    0.0030: real time    0.0035
    MIXING:  cpu time    0.0010: real time    0.0007
    OFIELD:  cpu time    0.0000: real time    0.0001

  Number of pair interactions contributing to vdW energy:   10138
  Edisp (eV):   -0.10828
    FORVDW:  cpu time    0.0010: real time    0.0014

  FORCE on cell =-STRESS in cart. coord.  units (eV):
  Direction    XX          YY          ZZ          XY          YZ          ZX
  --------------------------------------------------------------------------------------
  Alpha Z     1.37233     1.37233     1.37233
  Ewald    2500.71805  2500.63023 -2769.28758    -0.17608     0.00000     0.00000
  Hartree  2462.34670  2462.33494 -2451.02443    -0.07692     0.00000    -0.00000
  E(xc)     -32.39929   -32.39950   -33.35850     0.00748    -0.00000     0.00000
  Local   -5078.61734 -5078.52818  5090.61817     0.25776     0.00000    -0.00000
  n-local     8.25965     8.25699     6.82966     0.06891     0.00000     0.00000
  augment     0.14274     0.14272     0.11790    -0.00093     0.00000    -0.00000
  Kinetic   137.99788   138.04376   154.68574    -0.56518    -0.00000    -0.00000
  Fock        0.00000     0.00000     0.00000     0.00000     0.00000     0.00000
  vdW        -0.00421    -0.00391    -0.00007     0.00246     0.00000     0.00000
  -------------------------------------------------------------------------------------
  Total      -0.18349    -0.15063    -0.04679    -0.48250     0.00000     0.00000
  in kB      -1.83981    -1.51038    -0.46913    -4.83795     0.00000     0.00000
  external pressure =       -1.27 kB  Pullay stress =        0.00 kB


 VOLUME and BASIS-vectors are now :
 -----------------------------------------------------------------------------
  energy-cutoff  :      875.00
  volume of cell :      159.79
      direct lattice vectors                 reciprocal lattice vectors
     1.223518339 -2.131543422  0.000000000     0.406298088 -0.235926152  0.000000000
     1.244895484  2.143885492  0.000000000     0.403959083  0.231874866  0.000000000
     0.000000000  0.000000000 30.282393743     0.000000000  0.000000000  0.033022489

  length of vectors
     2.457737677  2.479114714 30.282393743     0.469828996  0.465777731  0.033022489


 FORCES acting on ions
    electron-ion (+dipol)            ewald-force                    non-local-force                 convergence-correction
 -----------------------------------------------------------------------------------------------
   0.198E+01 -.420E-01 0.972E-07   -.179E+01 0.332E-01 0.000E+00   -.193E+00 0.709E-02 0.000E+00   -.384E-03 -.477E-04 -.159E-11
   -.198E+01 0.420E-01 -.237E-06   0.179E+01 -.332E-01 0.000E+00   0.193E+00 -.709E-02 0.000E+00   0.384E-03 0.477E-04 -.159E-11
 -----------------------------------------------------------------------------------------------
   0.115E-05 0.164E-04 -.140E-06   0.755E-14 -.186E-14 0.000E+00   -.278E-16 0.000E+00 0.000E+00   -.348E-09 0.102E-09 -.317E-11
 
 
 POSITION                                       TOTAL-FORCE (eV/Angst)
 -----------------------------------------------------------------------------------
      1.24376      2.14379     15.14120         0.000096     -0.001722      0.000000
      1.23178     -0.70632     15.14120        -0.000096      0.001722      0.000000
 -----------------------------------------------------------------------------------
    total drift:                                0.000001      0.000016     -0.000000


--------------------------------------------------------------------------------------------------------



  FREE ENERGIE OF THE ION-ELECTRON SYSTEM (eV)
  ---------------------------------------------------
  free  energy   TOTEN  =       -18.59299225 eV

  energy  without entropy=      -18.59299225  energy(sigma->0) =      -18.59299225
 
 d Force = 0.2595477E-02[-0.314E-06, 0.519E-02]  d Energy = 0.2593849E-02 0.163E-05
 d Force =-0.8895273E-02[-0.173E-01,-0.479E-03]  d Ewald  =-0.8905339E-02 0.101E-04


--------------------------------------------------------------------------------------------------------


    POTLOK:  cpu time    0.0230: real time    0.0224


--------------------------------------------------------------------------------------------------------


 stress matrix after NEB project (eV)
     -0.18349     -0.48250      0.00000
     -0.48250     -0.15063      0.00000
      0.00000      0.00000     -0.04679
  FORCES: max atom, RMS     0.001724    0.001724
  FORCE total and by dimension    0.002438    0.001722
  Stress total and by dimension    0.723989    0.482500


--------------------------------------------------------------------------------------------------------


  
 reached required accuracy - stopping structural energy minimisation
     LOOP+:  cpu time   28.6097: real time   28.7478
    4ORBIT:  cpu time    0.0000: real time    0.0000

 total amount of memory used by VASP MPI-rank0    94843. kBytes
=======================================================================

   base      :      30000. kBytes
   nonl-proj :      43987. kBytes
   fftplans  :       1663. kBytes
   grid      :       8239. kBytes
   one-center:          6. kBytes
   wavefun   :      10948. kBytes
 
  
  
 General timing and accounting informations for this job:
 ========================================================
  
                  Total CPU time used (sec):      192.356
                            User time (sec):      190.926
                          System time (sec):        1.430
                         Elapsed time (sec):      194.589
  
                   Maximum memory used (kb):      210108.
                   Average memory used (kb):           0.
  
                          Minor page faults:       156563
                          Major page faults:          265
                 Voluntary context switches:         9580
