<?xml version="1.0" encoding="ISO-8859-1"?>
<modeling>
 <generator>
  <i name="program" type="string">vasp </i>
  <i name="version" type="string">5.4.4.18Apr17-6-g9f103f2a35  </i>
  <i name="subversion" type="string">(build Jan 14 2019 14:48:31) complex            parallel </i>
  <i name="platform" type="string">LinuxIFC </i>
  <i name="date" type="string">2019 09 10 </i>
  <i name="time" type="string">15:54:39 </i>
 </generator>
 <incar>
  <i type="int" name="ISTART">     1</i>
  <i type="string" name="PREC">high</i>
  <i type="string" name="ALGO">very</i>
  <i type="int" name="NELM">    40</i>
  <i type="int" name="IBRION">     2</i>
  <i name="EDIFF">      0.00000010</i>
  <i name="EDIFFG">     -0.01000000</i>
  <i type="int" name="NSW">   100</i>
  <i type="logical" name="LREAL"> F  </i>
  <i type="int" name="ISMEAR">     0</i>
  <i name="SIGMA">      0.05000000</i>
  <i type="logical" name="LWAVE"> F  </i>
  <i type="logical" name="LCHARG"> F  </i>
  <v type="int" name="KPOINT_BSE">    -1     0     0     0</v>
  <i type="int" name="NELM">    40</i>
 </incar>
 <structure name="primitive_cell" >
  <crystal>
   <varray name="basis" >
    <v>       1.22351834      -2.13154342       0.00000000 </v>
    <v>       1.24489548       2.14388549       0.00000000 </v>
    <v>       0.00000000       0.00000000      30.28239374 </v>
   </varray>
   <i name="volume">    159.78904778 </i>
   <varray name="rec_basis" >
    <v>       0.40629809      -0.23592615       0.00000000 </v>
    <v>       0.40395908       0.23187487       0.00000000 </v>
    <v>       0.00000000       0.00000000       0.03302249 </v>
   </varray>
  </crystal>
  <varray name="positions" >
   <v>       0.00000262      -0.00000262      -0.50000000 </v>
   <v>      -0.33333262       0.33333262      -0.50000000 </v>
  </varray>
 </structure>
 <varray name="primitive_index" >
  <v type="int" >        1 </v>
  <v type="int" >        2 </v>
 </varray>
 <kpoints>
  <generation param="Monkhorst-Pack">
   <v type="int" name="divisions">      12       12        1 </v>
   <v name="usershift">      0.00000000       0.00000000       0.00000000 </v>
   <v name="genvec1">      0.08333333       0.00000000       0.00000000 </v>
   <v name="genvec2">     -0.00000000       0.08333333       0.00000000 </v>
   <v name="genvec3">      0.00000000       0.00000000       1.00000000 </v>
   <v name="shift">      0.50000000       0.50000000       0.00000000 </v>
  </generation>
  <varray name="kpointlist" >
   <v>       0.04166667       0.04166667       0.00000000 </v>
   <v>       0.12500000       0.04166667       0.00000000 </v>
   <v>       0.20833333       0.04166667       0.00000000 </v>
   <v>       0.29166667       0.04166667       0.00000000 </v>
   <v>       0.37500000       0.04166667       0.00000000 </v>
   <v>       0.45833333       0.04166667       0.00000000 </v>
   <v>      -0.45833333       0.04166667       0.00000000 </v>
   <v>      -0.37500000       0.04166667       0.00000000 </v>
   <v>      -0.29166667       0.04166667       0.00000000 </v>
   <v>      -0.20833333       0.04166667       0.00000000 </v>
   <v>      -0.12500000       0.04166667       0.00000000 </v>
   <v>      -0.04166667       0.04166667       0.00000000 </v>
   <v>       0.04166667       0.12500000       0.00000000 </v>
   <v>       0.12500000       0.12500000       0.00000000 </v>
   <v>       0.20833333       0.12500000       0.00000000 </v>
   <v>       0.29166667       0.12500000       0.00000000 </v>
   <v>       0.37500000       0.12500000       0.00000000 </v>
   <v>       0.45833333       0.12500000       0.00000000 </v>
   <v>      -0.45833333       0.12500000       0.00000000 </v>
   <v>      -0.37500000       0.12500000       0.00000000 </v>
   <v>      -0.29166667       0.12500000       0.00000000 </v>
   <v>      -0.20833333       0.12500000       0.00000000 </v>
   <v>      -0.12500000       0.12500000       0.00000000 </v>
   <v>      -0.04166667       0.12500000       0.00000000 </v>
   <v>       0.04166667       0.20833333       0.00000000 </v>
   <v>       0.12500000       0.20833333       0.00000000 </v>
   <v>       0.20833333       0.20833333       0.00000000 </v>
   <v>       0.29166667       0.20833333       0.00000000 </v>
   <v>       0.37500000       0.20833333       0.00000000 </v>
   <v>       0.45833333       0.20833333       0.00000000 </v>
   <v>      -0.45833333       0.20833333       0.00000000 </v>
   <v>      -0.37500000       0.20833333       0.00000000 </v>
   <v>      -0.29166667       0.20833333       0.00000000 </v>
   <v>      -0.20833333       0.20833333       0.00000000 </v>
   <v>      -0.12500000       0.20833333       0.00000000 </v>
   <v>      -0.04166667       0.20833333       0.00000000 </v>
   <v>       0.04166667       0.29166667       0.00000000 </v>
   <v>       0.12500000       0.29166667       0.00000000 </v>
   <v>       0.20833333       0.29166667       0.00000000 </v>
   <v>       0.29166667       0.29166667       0.00000000 </v>
   <v>       0.37500000       0.29166667       0.00000000 </v>
   <v>       0.45833333       0.29166667       0.00000000 </v>
   <v>      -0.45833333       0.29166667       0.00000000 </v>
   <v>      -0.37500000       0.29166667       0.00000000 </v>
   <v>      -0.29166667       0.29166667       0.00000000 </v>
   <v>      -0.20833333       0.29166667       0.00000000 </v>
   <v>      -0.12500000       0.29166667       0.00000000 </v>
   <v>      -0.04166667       0.29166667       0.00000000 </v>
   <v>       0.04166667       0.37500000       0.00000000 </v>
   <v>       0.12500000       0.37500000       0.00000000 </v>
   <v>       0.20833333       0.37500000       0.00000000 </v>
   <v>       0.29166667       0.37500000       0.00000000 </v>
   <v>       0.37500000       0.37500000       0.00000000 </v>
   <v>       0.45833333       0.37500000       0.00000000 </v>
   <v>      -0.45833333       0.37500000       0.00000000 </v>
   <v>      -0.37500000       0.37500000       0.00000000 </v>
   <v>      -0.29166667       0.37500000       0.00000000 </v>
   <v>      -0.20833333       0.37500000       0.00000000 </v>
   <v>      -0.12500000       0.37500000       0.00000000 </v>
   <v>      -0.04166667       0.37500000       0.00000000 </v>
   <v>       0.04166667       0.45833333       0.00000000 </v>
   <v>       0.12500000       0.45833333       0.00000000 </v>
   <v>       0.20833333       0.45833333       0.00000000 </v>
   <v>       0.29166667       0.45833333       0.00000000 </v>
   <v>       0.37500000       0.45833333       0.00000000 </v>
   <v>       0.45833333       0.45833333       0.00000000 </v>
   <v>      -0.45833333       0.45833333       0.00000000 </v>
   <v>      -0.37500000       0.45833333       0.00000000 </v>
   <v>      -0.29166667       0.45833333       0.00000000 </v>
   <v>      -0.20833333       0.45833333       0.00000000 </v>
   <v>      -0.12500000       0.45833333       0.00000000 </v>
   <v>      -0.04166667       0.45833333       0.00000000 </v>
  </varray>
  <varray name="weights" >
   <v>       0.01388889 </v>
   <v>       0.01388889 </v>
   <v>       0.01388889 </v>
   <v>       0.01388889 </v>
   <v>       0.01388889 </v>
   <v>       0.01388889 </v>
   <v>       0.01388889 </v>
   <v>       0.01388889 </v>
   <v>       0.01388889 </v>
   <v>       0.01388889 </v>
   <v>       0.01388889 </v>
   <v>       0.01388889 </v>
   <v>       0.01388889 </v>
   <v>       0.01388889 </v>
   <v>       0.01388889 </v>
   <v>       0.01388889 </v>
   <v>       0.01388889 </v>
   <v>       0.01388889 </v>
   <v>       0.01388889 </v>
   <v>       0.01388889 </v>
   <v>       0.01388889 </v>
   <v>       0.01388889 </v>
   <v>       0.01388889 </v>
   <v>       0.01388889 </v>
   <v>       0.01388889 </v>
   <v>       0.01388889 </v>
   <v>       0.01388889 </v>
   <v>       0.01388889 </v>
   <v>       0.01388889 </v>
   <v>       0.01388889 </v>
   <v>       0.01388889 </v>
   <v>       0.01388889 </v>
   <v>       0.01388889 </v>
   <v>       0.01388889 </v>
   <v>       0.01388889 </v>
   <v>       0.01388889 </v>
   <v>       0.01388889 </v>
   <v>       0.01388889 </v>
   <v>       0.01388889 </v>
   <v>       0.01388889 </v>
   <v>       0.01388889 </v>
   <v>       0.01388889 </v>
   <v>       0.01388889 </v>
   <v>       0.01388889 </v>
   <v>       0.01388889 </v>
   <v>       0.01388889 </v>
   <v>       0.01388889 </v>
   <v>       0.01388889 </v>
   <v>       0.01388889 </v>
   <v>       0.01388889 </v>
   <v>       0.01388889 </v>
   <v>       0.01388889 </v>
   <v>       0.01388889 </v>
   <v>       0.01388889 </v>
   <v>       0.01388889 </v>
   <v>       0.01388889 </v>
   <v>       0.01388889 </v>
   <v>       0.01388889 </v>
   <v>       0.01388889 </v>
   <v>       0.01388889 </v>
   <v>       0.01388889 </v>
   <v>       0.01388889 </v>
   <v>       0.01388889 </v>
   <v>       0.01388889 </v>
   <v>       0.01388889 </v>
   <v>       0.01388889 </v>
   <v>       0.01388889 </v>
   <v>       0.01388889 </v>
   <v>       0.01388889 </v>
   <v>       0.01388889 </v>
   <v>       0.01388889 </v>
   <v>       0.01388889 </v>
  </varray>
 </kpoints>
 <parameters>
  <separator name="general" >
   <i type="string" name="SYSTEM">unknown system</i>
   <i type="logical" name="LCOMPAT"> F  </i>
  </separator>
  <separator name="electronic" >
   <i type="string" name="PREC">high</i>
   <i name="ENMAX">    875.00000000</i>
   <i name="ENAUG">    946.76800000</i>
   <i name="EDIFF">      0.00000010</i>
   <i type="int" name="IALGO">    48</i>
   <i type="int" name="IWAVPR">    11</i>
   <i type="int" name="NBANDS">    24</i>
   <i name="NELECT">      8.00000000</i>
   <i type="int" name="TURBO">     0</i>
   <i type="int" name="IRESTART">     0</i>
   <i type="int" name="NREBOOT">     0</i>
   <i type="int" name="NMIN">     0</i>
   <i name="EREF">      0.00000000</i>
   <separator name="electronic smearing" >
    <i type="int" name="ISMEAR">     0</i>
    <i name="SIGMA">      0.05000000</i>
    <i name="KSPACING">      0.50000000</i>
    <i type="logical" name="KGAMMA"> T  </i>
   </separator>
   <separator name="electronic projectors" >
    <i type="logical" name="LREAL"> F  </i>
    <v name="ROPT">      0.00000000</v>
    <i type="int" name="LMAXPAW">  -100</i>
    <i type="int" name="LMAXMIX">     2</i>
    <i type="logical" name="NLSPLINE"> F  </i>
   </separator>
   <separator name="electronic startup" >
    <i type="int" name="ISTART">     0</i>
    <i type="int" name="ICHARG">     2</i>
    <i type="int" name="INIWAV">     1</i>
   </separator>
   <separator name="electronic spin" >
    <i type="int" name="ISPIN">     1</i>
    <i type="logical" name="LNONCOLLINEAR"> F  </i>
    <v name="MAGMOM">      1.00000000      1.00000000</v>
    <i name="NUPDOWN">     -1.00000000</i>
    <i type="logical" name="LSORBIT"> F  </i>
    <v name="SAXIS">      0.00000000      0.00000000      1.00000000</v>
    <i type="logical" name="LSPIRAL"> F  </i>
    <v name="QSPIRAL">      0.00000000      0.00000000      0.00000000</v>
    <i type="logical" name="LZEROZ"> F  </i>
   </separator>
   <separator name="electronic exchange-correlation" >
    <i type="logical" name="LASPH"> F  </i>
    <i type="logical" name="LMETAGGA"> F  </i>
   </separator>
   <separator name="electronic convergence" >
    <i type="int" name="NELM">    40</i>
    <i type="int" name="NELMDL">     0</i>
    <i type="int" name="NELMIN">     2</i>
    <i name="ENINI">    875.00000000</i>
    <separator name="electronic convergence detail" >
     <i type="logical" name="LDIAG"> T  </i>
     <i type="logical" name="LSUBROT"> F  </i>
     <i name="WEIMIN">      0.00100000</i>
     <i name="EBREAK">      0.00000000</i>
     <i name="DEPER">      0.30000000</i>
     <i type="int" name="NRMM">     4</i>
     <i name="TIME">      0.40000000</i>
    </separator>
   </separator>
   <separator name="electronic mixer" >
    <i name="AMIX">      0.40000000</i>
    <i name="BMIX">      1.00000000</i>
    <i name="AMIN">      0.10000000</i>
    <i name="AMIX_MAG">      1.60000000</i>
    <i name="BMIX_MAG">      1.00000000</i>
    <separator name="electronic mixer details" >
     <i type="int" name="IMIX">     4</i>
     <i type="logical" name="MIXFIRST"> F  </i>
     <i type="int" name="MAXMIX">   -45</i>
     <i name="WC">    100.00000000</i>
     <i type="int" name="INIMIX">     1</i>
     <i type="int" name="MIXPRE">     1</i>
     <i type="int" name="MREMOVE">     5</i>
    </separator>
   </separator>
   <separator name="electronic dipolcorrection" >
    <i type="logical" name="LDIPOL"> F  </i>
    <i type="logical" name="LMONO"> F  </i>
    <i type="int" name="IDIPOL">     0</i>
    <i name="EPSILON">      1.00000000</i>
    <v name="DIPOL">   -100.00000000   -100.00000000   -100.00000000</v>
    <i name="EFIELD">      0.00000000</i>
   </separator>
  </separator>
  <separator name="grids" >
   <i type="int" name="NGX">    24</i>
   <i type="int" name="NGY">    24</i>
   <i type="int" name="NGZ">   294</i>
   <i type="int" name="NGXF">    32</i>
   <i type="int" name="NGYF">    36</i>
   <i type="int" name="NGZF">   420</i>
   <i type="logical" name="ADDGRID"> F  </i>
  </separator>
  <separator name="ionic" >
   <i type="int" name="NSW">   100</i>
   <i type="int" name="IBRION">     2</i>
   <i type="int" name="MDALGO">     0</i>
   <i type="int" name="ISIF">     2</i>
   <i name="PSTRESS">      0.00000000</i>
   <i name="EDIFFG">     -0.01000000</i>
   <i type="int" name="NFREE">     1</i>
   <i name="POTIM">      0.50000000</i>
   <i name="SMASS">     -3.00000000</i>
   <i name="SCALEE">      1.00000000</i>
  </separator>
  <separator name="ionic md" >
   <i name="TEBEG">      0.00010000</i>
   <i name="TEEND">      0.00010000</i>
   <i type="int" name="NBLOCK">     1</i>
   <i type="int" name="KBLOCK">   100</i>
   <i type="int" name="NPACO">   256</i>
   <i name="APACO">     16.00000000</i>
  </separator>
  <separator name="symmetry" >
   <i type="int" name="ISYM">     2</i>
   <i name="SYMPREC">      0.00001000</i>
  </separator>
  <separator name="dos" >
   <i type="int" name="LORBIT">     0</i>
   <v name="RWIGS">     -1.00000000</v>
   <i type="int" name="NEDOS">   301</i>
   <i name="EMIN">     10.00000000</i>
   <i name="EMAX">    -10.00000000</i>
   <i name="EFERMI">      0.00000000</i>
  </separator>
  <separator name="writing" >
   <i type="int" name="NWRITE">     2</i>
   <i type="logical" name="LWAVE"> F  </i>
   <i type="logical" name="LDOWNSAMPLE"> F  </i>
   <i type="logical" name="LCHARG"> F  </i>
   <i type="logical" name="LPARD"> F  </i>
   <i type="logical" name="LVTOT"> F  </i>
   <i type="logical" name="LVHAR"> F  </i>
   <i type="logical" name="LELF"> F  </i>
   <i type="logical" name="LOPTICS"> F  </i>
   <v name="STM">      0.00000000      0.00000000      0.00000000      0.00000000      0.00000000      0.00000000      0.00000000</v>
  </separator>
  <separator name="performance" >
   <i type="int" name="NPAR">    24</i>
   <i type="int" name="NSIM">     4</i>
   <i type="int" name="NBLK">    -1</i>
   <i type="logical" name="LPLANE"> T  </i>
   <i type="logical" name="LSCALAPACK"> T  </i>
   <i type="logical" name="LSCAAWARE"> F  </i>
   <i type="logical" name="LSCALU"> F  </i>
   <i type="logical" name="LASYNC"> F  </i>
   <i type="logical" name="LORBITALREAL"> F  </i>
  </separator>
  <separator name="miscellaneous" >
   <i type="int" name="IDIOT">     3</i>
   <i type="int" name="ISPECIAL">     0</i>
   <i type="logical" name="LMUSIC"> F  </i>
   <v name="POMASS">     12.01100000</v>
   <v name="DARWINR">      0.00000000</v>
   <v name="DARWINV">      1.00000000</v>
   <i type="logical" name="LCORR"> T  </i>
  </separator>
  <i type="logical" name="GGA_COMPAT"> T  </i>
  <i type="logical" name="LBERRY"> F  </i>
  <i type="int" name="ICORELEVEL">     0</i>
  <i type="logical" name="LDAU"> F  </i>
  <i type="int" name="I_CONSTRAINED_M">     0</i>
  <separator name="electronic exchange-correlation" >
   <i type="string" name="GGA">--</i>
   <i type="int" name="VOSKOWN">     0</i>
   <i type="logical" name="LHFCALC"> F  </i>
   <i type="string" name="PRECFOCK"></i>
   <i type="logical" name="LSYMGRAD"> F  </i>
   <i type="logical" name="LHFONE"> F  </i>
   <i type="logical" name="LRHFCALC"> F  </i>
   <i type="logical" name="LTHOMAS"> F  </i>
   <i type="logical" name="LMODELHF"> F  </i>
   <i name="ENCUT4O">     -1.00000000</i>
   <i type="int" name="EXXOEP">     0</i>
   <i type="int" name="FOURORBIT">     0</i>
   <i name="AEXX">      0.00000000</i>
   <i name="HFALPHA">      0.00000000</i>
   <i name="MCALPHA">      0.00000000</i>
   <i name="ALDAX">      1.00000000</i>
   <i name="AGGAX">      1.00000000</i>
   <i name="ALDAC">      1.00000000</i>
   <i name="AGGAC">      1.00000000</i>
   <i type="int" name="NKREDX">     1</i>
   <i type="int" name="NKREDY">     1</i>
   <i type="int" name="NKREDZ">     1</i>
   <i type="logical" name="SHIFTRED"> F  </i>
   <i type="logical" name="ODDONLY"> F  </i>
   <i type="logical" name="EVENONLY"> F  </i>
   <i type="int" name="LMAXFOCK">     0</i>
   <i type="int" name="NMAXFOCKAE">     0</i>
   <i type="logical" name="LFOCKAEDFT"> F  </i>
   <i name="HFSCREEN">      0.00000000</i>
   <i name="HFSCREENC">      0.00000000</i>
   <i type="int" name="NBANDSGWLOW">     0</i>
  </separator>
  <separator name="vdW DFT" >
   <i type="logical" name="LUSE_VDW"> F  </i>
   <i name="Zab_VDW">     -0.84910000</i>
   <i name="PARAM1">      0.12340000</i>
   <i name="PARAM2">      1.00000000</i>
   <i name="PARAM3">      0.00000000</i>
  </separator>
  <separator name="model GW" >
   <i type="int" name="MODEL_GW">     0</i>
   <i name="MODEL_EPS0">     47.93671433</i>
   <i name="MODEL_ALPHA">      1.00000000</i>
  </separator>
  <separator name="linear response parameters" >
   <i type="logical" name="LEPSILON"> F  </i>
   <i type="logical" name="LRPA"> F  </i>
   <i type="logical" name="LNABLA"> F  </i>
   <i type="logical" name="LVEL"> F  </i>
   <i type="int" name="KINTER">     0</i>
   <i name="CSHIFT">      0.10000000</i>
   <i name="OMEGAMAX">     -1.00000000</i>
   <i name="DEG_THRESHOLD">      0.00200000</i>
   <i name="RTIME">     -0.10000000</i>
   <i name="WPLASMAI">      0.00000000</i>
   <v name="DFIELD">      0.00000000      0.00000000      0.00000000</v>
   <v name="WPLASMA">      0.00000000      0.00000000      0.00000000      0.00000000      0.00000000      0.00000000      0.00000000      0.00000000      0.00000000</v>
  </separator>
  <separator name="orbital magnetization" >
   <i type="logical" name="NUCIND"> F  </i>
   <v name="MAGPOS">      0.00000000      0.00000000      0.00000000</v>
   <i type="logical" name="LNICSALL"> T  </i>
   <i type="logical" name="ORBITALMAG"> F  </i>
   <i type="logical" name="LMAGBLOCH"> F  </i>
   <i type="logical" name="LCHIMAG"> F  </i>
   <i type="logical" name="LGAUGE"> T  </i>
   <i type="int" name="MAGATOM">     0</i>
   <v name="MAGDIPOL">      0.00000000      0.00000000      0.00000000</v>
   <v name="AVECCONST">      0.00000000      0.00000000      0.00000000</v>
  </separator>
  <separator name="response functions" >
   <i type="logical" name="LADDER"> F  </i>
   <i type="logical" name="LRPAFORCE"> F  </i>
   <i type="logical" name="LFXC"> F  </i>
   <i type="logical" name="LHARTREE"> T  </i>
   <i type="int" name="IBSE">     0</i>
   <v type="int" name="KPOINT">    -1     0     0     0</v>
   <i type="logical" name="LTCTE"> F  </i>
   <i type="logical" name="LTETE"> F  </i>
   <i type="logical" name="LTRIPLET"> F  </i>
   <i type="logical" name="LFXCEPS"> F  </i>
   <i type="logical" name="LFXHEG"> F  </i>
   <i type="int" name="NATURALO">     2</i>
   <i type="logical" name="L2ORDER"> F  </i>
   <i type="logical" name="LMP2LT"> F  </i>
   <i type="logical" name="LUSEW"> F  </i>
   <i name="ENCUTGW">     -2.00000000</i>
   <i name="ENCUTGWSOFT">     -2.00000000</i>
   <i name="ENCUTLF">     -1.00000000</i>
   <i type="int" name="LMAXMP2">    -1</i>
   <i name="SCISSOR">      0.00000000</i>
   <i type="int" name="NOMEGA">     0</i>
   <i type="int" name="NOMEGAR">     0</i>
   <i type="int" name="NBANDSGW">    -1</i>
   <i type="int" name="NBANDSO">    -1</i>
   <i type="int" name="NBANDSV">    -1</i>
   <i type="int" name="NELM">    40</i>
   <i type="int" name="NELMHF">     1</i>
   <i type="int" name="DIM">     3</i>
   <i type="int" name="ANTIRES">     0</i>
   <i name="OMEGAMAX">    -30.00000000</i>
   <i name="OMEGAMIN">    -30.00000000</i>
   <i name="OMEGATL">   -200.00000000</i>
   <i type="int" name="OMEGAGRID">   140</i>
   <i name="CSHIFT">     -0.10000000</i>
   <i type="logical" name="SELFENERGY"> F  </i>
   <i type="logical" name="LSPECTRAL"> F  </i>
   <i type="logical" name="LSPECTRALGW"> F  </i>
   <i type="logical" name="LSINGLES"> F  </i>
   <i type="logical" name="LFERMIGW"> F  </i>
   <i type="logical" name="ODDONLYGW"> F  </i>
   <i type="logical" name="EVENONLYGW"> F  </i>
   <i type="int" name="NKREDLFX">     1</i>
   <i type="int" name="NKREDLFY">     1</i>
   <i type="int" name="NKREDLFZ">     1</i>
   <i type="int" name="MAXMEM">  2800</i>
   <i type="int" name="TELESCOPE">     0</i>
   <i type="int" name="TAUPAR">     1</i>
   <i type="int" name="OMEGAPAR">    -1</i>
   <i name="LAMBDA">      1.00000000</i>
  </separator>
  <separator name="External order field" >
   <i name="OFIELD_KAPPA">      0.00000000</i>
   <v name="OFIELD_K">      0.00000000      0.00000000      0.00000000</v>
   <i name="OFIELD_Q6_NEAR">      0.00000000</i>
   <i name="OFIELD_Q6_FAR">      0.00000000</i>
   <i name="OFIELD_A">      0.00000000</i>
  </separator>
 </parameters>
 <atominfo>
  <atoms>       2 </atoms>
  <types>       1 </types>
  <array name="atoms" >
   <dimension dim="1">ion</dimension>
   <field type="string">element</field>
   <field type="int">atomtype</field>
   <set>
    <rc><c>C </c><c>   1</c></rc>
    <rc><c>C </c><c>   1</c></rc>
   </set>
  </array>
  <array name="atomtypes" >
   <dimension dim="1">type</dimension>
   <field type="int">atomspertype</field>
   <field type="string">element</field>
   <field>mass</field>
   <field>valence</field>
   <field type="string">pseudopotential</field>
   <set>
    <rc><c>   2</c><c>C </c><c>     12.01100000</c><c>      4.00000000</c><c>  PAW_PBE C_h 06Feb2004                 </c></rc>
   </set>
  </array>
 </atominfo>
 <structure name="initialpos" >
  <crystal>
   <varray name="basis" >
    <v>       1.22351834      -2.13154342       0.00000000 </v>
    <v>       1.24489548       2.14388549       0.00000000 </v>
    <v>       0.00000000       0.00000000      30.28239374 </v>
   </varray>
   <i name="volume">    159.78904778 </i>
   <varray name="rec_basis" >
    <v>       0.40629809      -0.23592615       0.00000000 </v>
    <v>       0.40395908       0.23187487       0.00000000 </v>
    <v>       0.00000000       0.00000000       0.03302249 </v>
   </varray>
  </crystal>
  <varray name="positions" >
   <v>       0.00000262       0.99999738       0.50000000 </v>
   <v>       0.66666738       0.33333262       0.50000000 </v>
  </varray>
 </structure>
 <calculation>
  <scstep>
   <time name="diag">    1.08    1.18</time>
   <time name="diis">    2.07    2.10</time>
   <time name="orth">    0.05    0.05</time>
   <time name="total">    3.26    3.46</time>
   <energy>
    <i name="alphaZ">      1.37232795 </i>
    <i name="ewald">   2232.06528869 </i>
    <i name="hartreedc">  -2438.28345917 </i>
    <i name="XCdc">     14.48597431 </i>
    <i name="pawpsdc">    228.69403340 </i>
    <i name="pawaedc">   -218.18290438 </i>
    <i name="eentropy">     -0.00207387 </i>
    <i name="bandstr">    -11.23352731 </i>
    <i name="atom">    294.30319316 </i>
    <i name="e_fr_energy">    103.21885278 </i>
    <i name="e_wo_entrp">    103.22092665 </i>
    <i name="e_0_energy">    103.21988972 </i>
   </energy>
  </scstep>
  <scstep>
   <time name="diag">    1.06    1.08</time>
   <time name="diis">    2.02    2.03</time>
   <time name="orth">    0.05    0.05</time>
   <time name="total">    3.14    3.16</time>
   <energy>
    <i name="e_fr_energy">     49.36267423 </i>
    <i name="e_wo_entrp">     49.36496642 </i>
    <i name="e_0_energy">     49.36382032 </i>
   </energy>
  </scstep>
  <scstep>
   <time name="diag">    1.06    1.07</time>
   <time name="diis">    2.07    2.07</time>
   <time name="orth">    0.05    0.05</time>
   <time name="total">    3.18    3.20</time>
   <energy>
    <i name="e_fr_energy">      9.75950174 </i>
    <i name="e_wo_entrp">      9.76030785 </i>
    <i name="e_0_energy">      9.75990480 </i>
   </energy>
  </scstep>
  <scstep>
   <time name="diag">    1.06    1.07</time>
   <time name="diis">    2.05    2.05</time>
   <time name="orth">    0.05    0.05</time>
   <time name="total">    3.16    3.18</time>
   <energy>
    <i name="e_fr_energy">    -13.72721553 </i>
    <i name="e_wo_entrp">    -13.72655764 </i>
    <i name="e_0_energy">    -13.72688658 </i>
   </energy>
  </scstep>
  <scstep>
   <time name="diag">    1.06    1.07</time>
   <time name="diis">    2.06    2.06</time>
   <time name="orth">    0.05    0.05</time>
   <time name="total">    3.17    3.19</time>
   <energy>
    <i name="e_fr_energy">    -18.38719272 </i>
    <i name="e_wo_entrp">    -18.38719272 </i>
    <i name="e_0_energy">    -18.38719272 </i>
   </energy>
  </scstep>
  <scstep>
   <time name="diag">    1.06    1.08</time>
   <time name="diis">    2.07    2.08</time>
   <time name="orth">    0.05    0.05</time>
   <time name="total">    3.19    3.20</time>
   <energy>
    <i name="e_fr_energy">    -19.39970694 </i>
    <i name="e_wo_entrp">    -19.39970694 </i>
    <i name="e_0_energy">    -19.39970694 </i>
   </energy>
  </scstep>
  <scstep>
   <time name="diag">    1.06    1.07</time>
   <time name="diis">    2.07    2.07</time>
   <time name="orth">    0.05    0.05</time>
   <time name="total">    3.18    3.20</time>
   <energy>
    <i name="e_fr_energy">    -19.63333141 </i>
    <i name="e_wo_entrp">    -19.63333141 </i>
    <i name="e_0_energy">    -19.63333141 </i>
   </energy>
  </scstep>
  <scstep>
   <time name="diag">    1.07    1.08</time>
   <time name="diis">    2.02    2.03</time>
   <time name="orth">    0.05    0.05</time>
   <time name="total">    3.15    3.16</time>
   <energy>
    <i name="e_fr_energy">    -19.69713954 </i>
    <i name="e_wo_entrp">    -19.69713954 </i>
    <i name="e_0_energy">    -19.69713954 </i>
   </energy>
  </scstep>
  <scstep>
   <time name="diag">    1.06    1.07</time>
   <time name="diis">    3.92    3.98</time>
   <time name="orth">    0.05    0.05</time>
   <time name="total">    5.03    5.10</time>
   <energy>
    <i name="e_fr_energy">    -19.72131527 </i>
    <i name="e_wo_entrp">    -19.72131527 </i>
    <i name="e_0_energy">    -19.72131527 </i>
   </energy>
  </scstep>
  <scstep>
   <time name="diag">    1.06    1.07</time>
   <time name="diis">    4.44    4.45</time>
   <time name="orth">    0.05    0.05</time>
   <time name="total">    5.55    5.57</time>
   <energy>
    <i name="e_fr_energy">    -19.72532884 </i>
    <i name="e_wo_entrp">    -19.72532884 </i>
    <i name="e_0_energy">    -19.72532884 </i>
   </energy>
  </scstep>
  <scstep>
   <time name="diag">    1.06    1.08</time>
   <time name="diis">    3.87    3.88</time>
   <time name="orth">    0.05    0.05</time>
   <time name="total">    4.99    5.01</time>
   <energy>
    <i name="e_fr_energy">    -19.72548757 </i>
    <i name="e_wo_entrp">    -19.72548757 </i>
    <i name="e_0_energy">    -19.72548757 </i>
   </energy>
  </scstep>
  <scstep>
   <time name="diag">    1.06    1.08</time>
   <time name="diis">    4.37    4.38</time>
   <time name="orth">    0.05    0.05</time>
   <time name="total">    5.75    5.81</time>
   <energy>
    <i name="e_fr_energy">    -19.72551445 </i>
    <i name="e_wo_entrp">    -19.72551445 </i>
    <i name="e_0_energy">    -19.72551445 </i>
   </energy>
  </scstep>
  <scstep>
   <time name="diag">    1.05    1.05</time>
   <time name="diis">    3.81    3.82</time>
   <time name="orth">    0.05    0.05</time>
   <time name="total">    5.19    5.23</time>
   <energy>
    <i name="e_fr_energy">    -18.83985070 </i>
    <i name="e_wo_entrp">    -18.83985070 </i>
    <i name="e_0_energy">    -18.83985070 </i>
   </energy>
  </scstep>
  <scstep>
   <time name="diag">    1.05    1.05</time>
   <time name="diis">    3.75    3.77</time>
   <time name="orth">    0.05    0.05</time>
   <time name="total">    5.13    5.17</time>
   <energy>
    <i name="e_fr_energy">    -18.50667574 </i>
    <i name="e_wo_entrp">    -18.50667574 </i>
    <i name="e_0_energy">    -18.50667574 </i>
   </energy>
  </scstep>
  <scstep>
   <time name="diag">    1.05    1.05</time>
   <time name="diis">    3.90    3.91</time>
   <time name="orth">    0.05    0.05</time>
   <time name="total">    5.29    5.31</time>
   <energy>
    <i name="e_fr_energy">    -18.48605341 </i>
    <i name="e_wo_entrp">    -18.48605341 </i>
    <i name="e_0_energy">    -18.48605341 </i>
   </energy>
  </scstep>
  <scstep>
   <time name="diag">    1.05    1.05</time>
   <time name="diis">    4.06    4.07</time>
   <time name="orth">    0.05    0.05</time>
   <time name="total">    5.44    5.46</time>
   <energy>
    <i name="e_fr_energy">    -18.48448891 </i>
    <i name="e_wo_entrp">    -18.48448891 </i>
    <i name="e_0_energy">    -18.48448891 </i>
   </energy>
  </scstep>
  <scstep>
   <time name="diag">    1.05    1.05</time>
   <time name="diis">    3.88    3.90</time>
   <time name="orth">    0.05    0.05</time>
   <time name="total">    5.27    5.29</time>
   <energy>
    <i name="e_fr_energy">    -18.48316893 </i>
    <i name="e_wo_entrp">    -18.48316893 </i>
    <i name="e_0_energy">    -18.48316893 </i>
   </energy>
  </scstep>
  <scstep>
   <time name="diag">    1.05    1.05</time>
   <time name="diis">    3.87    3.89</time>
   <time name="orth">    0.05    0.05</time>
   <time name="total">    5.26    5.29</time>
   <energy>
    <i name="e_fr_energy">    -18.48310865 </i>
    <i name="e_wo_entrp">    -18.48310865 </i>
    <i name="e_0_energy">    -18.48310865 </i>
   </energy>
  </scstep>
  <scstep>
   <time name="diag">    1.05    1.05</time>
   <time name="diis">    3.83    3.84</time>
   <time name="orth">    0.05    0.05</time>
   <time name="total">    5.21    5.23</time>
   <energy>
    <i name="e_fr_energy">    -18.48357958 </i>
    <i name="e_wo_entrp">    -18.48357958 </i>
    <i name="e_0_energy">    -18.48357958 </i>
   </energy>
  </scstep>
  <scstep>
   <time name="diag">    1.06    1.06</time>
   <time name="diis">    3.92    3.92</time>
   <time name="orth">    0.05    0.05</time>
   <time name="total">    5.31    5.33</time>
   <energy>
    <i name="e_fr_energy">    -18.48387278 </i>
    <i name="e_wo_entrp">    -18.48387278 </i>
    <i name="e_0_energy">    -18.48387278 </i>
   </energy>
  </scstep>
  <scstep>
   <time name="diag">    1.05    1.05</time>
   <time name="diis">    3.85    3.85</time>
   <time name="orth">    0.05    0.05</time>
   <time name="total">    5.23    5.25</time>
   <energy>
    <i name="e_fr_energy">    -18.48442661 </i>
    <i name="e_wo_entrp">    -18.48442661 </i>
    <i name="e_0_energy">    -18.48442661 </i>
   </energy>
  </scstep>
  <scstep>
   <time name="diag">    1.05    1.05</time>
   <time name="diis">    3.74    3.75</time>
   <time name="orth">    0.05    0.05</time>
   <time name="total">    5.13    5.15</time>
   <energy>
    <i name="e_fr_energy">    -18.48452423 </i>
    <i name="e_wo_entrp">    -18.48452423 </i>
    <i name="e_0_energy">    -18.48452423 </i>
   </energy>
  </scstep>
  <scstep>
   <time name="diag">    1.05    1.05</time>
   <time name="diis">    3.82    3.83</time>
   <time name="orth">    0.05    0.05</time>
   <time name="total">    5.20    5.23</time>
   <energy>
    <i name="e_fr_energy">    -18.48454192 </i>
    <i name="e_wo_entrp">    -18.48454192 </i>
    <i name="e_0_energy">    -18.48454192 </i>
   </energy>
  </scstep>
  <scstep>
   <time name="diag">    1.05    1.05</time>
   <time name="diis">    3.75    3.76</time>
   <time name="orth">    0.05    0.05</time>
   <time name="total">    5.13    5.15</time>
   <energy>
    <i name="e_fr_energy">    -18.48455765 </i>
    <i name="e_wo_entrp">    -18.48455765 </i>
    <i name="e_0_energy">    -18.48455765 </i>
   </energy>
  </scstep>
  <scstep>
   <time name="diag">    1.05    1.05</time>
   <time name="diis">    3.74    3.75</time>
   <time name="orth">    0.05    0.05</time>
   <time name="total">    5.13    5.14</time>
   <energy>
    <i name="e_fr_energy">    -18.48456057 </i>
    <i name="e_wo_entrp">    -18.48456057 </i>
    <i name="e_0_energy">    -18.48456057 </i>
   </energy>
  </scstep>
  <scstep>
   <time name="diag">    1.05    1.05</time>
   <time name="diis">    3.73    3.73</time>
   <time name="orth">    0.05    0.05</time>
   <time name="total">    5.10    5.13</time>
   <energy>
    <i name="e_fr_energy">    -18.48456227 </i>
    <i name="e_wo_entrp">    -18.48456227 </i>
    <i name="e_0_energy">    -18.48456227 </i>
   </energy>
  </scstep>
  <scstep>
   <time name="diag">    1.05    1.05</time>
   <time name="diis">    3.74    3.74</time>
   <time name="orth">    0.05    0.05</time>
   <time name="total">    5.12    5.14</time>
   <energy>
    <i name="e_fr_energy">    -18.48456366 </i>
    <i name="e_wo_entrp">    -18.48456366 </i>
    <i name="e_0_energy">    -18.48456366 </i>
   </energy>
  </scstep>
  <scstep>
   <time name="diag">    1.05    1.05</time>
   <time name="diis">    3.72    3.72</time>
   <time name="orth">    0.05    0.05</time>
   <time name="total">    4.84    4.86</time>
   <energy>
    <i name="alphaZ">      1.37232795 </i>
    <i name="ewald">   2232.06528869 </i>
    <i name="hartreedc">  -2473.66054476 </i>
    <i name="XCdc">     15.61725868 </i>
    <i name="pawpsdc">   4100.06747245 </i>
    <i name="pawaedc">  -4089.72623871 </i>
    <i name="eentropy">     -0.00000000 </i>
    <i name="bandstr">    -98.52332120 </i>
    <i name="atom">    294.30319316 </i>
    <i name="e_fr_energy">    -18.48456374 </i>
    <i name="e_wo_entrp">    -18.48456374 </i>
    <i name="e_0_energy">    -18.48456374 </i>
   </energy>
  </scstep>
  <structure>
   <crystal>
    <varray name="basis" >
     <v>       1.22351834      -2.13154342       0.00000000 </v>
     <v>       1.24489548       2.14388549       0.00000000 </v>
     <v>       0.00000000       0.00000000      30.28239374 </v>
    </varray>
    <i name="volume">    159.78904778 </i>
    <varray name="rec_basis" >
     <v>       0.40629809      -0.23592615       0.00000000 </v>
     <v>       0.40395908       0.23187487       0.00000000 </v>
     <v>       0.00000000       0.00000000       0.03302249 </v>
    </varray>
   </crystal>
   <varray name="positions" >
    <v>       0.00000262       0.99999738       0.50000000 </v>
    <v>       0.66666738       0.33333262       0.50000000 </v>
   </varray>
  </structure>
  <varray name="forces" >
   <v>      -0.12392941      -0.00925065       0.00000000 </v>
   <v>       0.12392941       0.00925065       0.00000000 </v>
  </varray>
  <varray name="stress" >
   <v>      -1.82090950      -5.12203602       0.00000000 </v>
   <v>      -5.12203599      -1.47916067       0.00000000 </v>
   <v>       0.00000000       0.00000000      -0.47039437 </v>
  </varray>
  <energy>
   <i name="e_fr_energy">    -18.59285104 </i>
   <i name="e_wo_entrp">    -18.59285104 </i>
   <i name="e_0_energy">     -0.00000000 </i>
  </energy>
  <time name="totalsc">  132.38  133.32</time>
 </calculation>
 <calculation>
  <scstep>
   <time name="diag">    1.05    1.05</time>
   <time name="diis">    3.75    3.76</time>
   <time name="orth">    0.05    0.05</time>
   <time name="total">    5.13    5.15</time>
   <energy>
    <i name="alphaZ">      1.37232795 </i>
    <i name="ewald">   2232.05188643 </i>
    <i name="hartreedc">  -2473.65257324 </i>
    <i name="XCdc">     15.61675207 </i>
    <i name="pawpsdc">   4100.15453966 </i>
    <i name="pawaedc">  -4089.81330380 </i>
    <i name="eentropy">     -0.00000000 </i>
    <i name="bandstr">    -98.51508661 </i>
    <i name="atom">    294.30319316 </i>
    <i name="e_fr_energy">    -18.48226438 </i>
    <i name="e_wo_entrp">    -18.48226438 </i>
    <i name="e_0_energy">    -18.48226438 </i>
   </energy>
  </scstep>
  <scstep>
   <time name="diag">    1.05    1.05</time>
   <time name="diis">    3.68    3.84</time>
   <time name="orth">    0.06    0.06</time>
   <time name="total">    5.06    5.24</time>
   <energy>
    <i name="e_fr_energy">    -18.48223066 </i>
    <i name="e_wo_entrp">    -18.48223066 </i>
    <i name="e_0_energy">    -18.48223066 </i>
   </energy>
  </scstep>
  <scstep>
   <time name="diag">    1.05    1.05</time>
   <time name="diis">    3.84    3.85</time>
   <time name="orth">    0.05    0.05</time>
   <time name="total">    5.22    5.24</time>
   <energy>
    <i name="e_fr_energy">    -18.48214182 </i>
    <i name="e_wo_entrp">    -18.48214182 </i>
    <i name="e_0_energy">    -18.48214182 </i>
   </energy>
  </scstep>
  <scstep>
   <time name="diag">    1.05    1.05</time>
   <time name="diis">    4.01    4.02</time>
   <time name="orth">    0.05    0.05</time>
   <time name="total">    5.39    5.42</time>
   <energy>
    <i name="e_fr_energy">    -18.48214026 </i>
    <i name="e_wo_entrp">    -18.48214026 </i>
    <i name="e_0_energy">    -18.48214026 </i>
   </energy>
  </scstep>
  <scstep>
   <time name="diag">    1.05    1.05</time>
   <time name="diis">    4.11    4.12</time>
   <time name="orth">    0.05    0.05</time>
   <time name="total">    5.23    5.26</time>
   <energy>
    <i name="alphaZ">      1.37232795 </i>
    <i name="ewald">   2232.05188643 </i>
    <i name="hartreedc">  -2473.64901670 </i>
    <i name="XCdc">     15.61663695 </i>
    <i name="pawpsdc">   4098.47228779 </i>
    <i name="pawaedc">  -4088.13096609 </i>
    <i name="eentropy">     -0.00000000 </i>
    <i name="bandstr">    -98.51848973 </i>
    <i name="atom">    294.30319316 </i>
    <i name="e_fr_energy">    -18.48214024 </i>
    <i name="e_wo_entrp">    -18.48214024 </i>
    <i name="e_0_energy">    -18.48214024 </i>
   </energy>
  </scstep>
  <structure>
   <crystal>
    <varray name="basis" >
     <v>       1.22351834      -2.13154342       0.00000000 </v>
     <v>       1.24489548       2.14388549       0.00000000 </v>
     <v>       0.00000000       0.00000000      30.28239374 </v>
    </varray>
    <i name="volume">    159.78904778 </i>
    <varray name="rec_basis" >
     <v>       0.40629809      -0.23592615       0.00000000 </v>
     <v>       0.40395908       0.23187487       0.00000000 </v>
     <v>       0.00000000       0.00000000       0.03302249 </v>
    </varray>
   </crystal>
   <varray name="positions" >
    <v>      -0.00232122       0.99747875       0.50000000 </v>
    <v>       0.66899122       0.33585125       0.50000000 </v>
   </varray>
  </structure>
  <varray name="forces" >
   <v>       0.53265220       0.03779037       0.00000000 </v>
   <v>      -0.53265220      -0.03779037       0.00000000 </v>
  </varray>
  <varray name="stress" >
   <v>      -1.82842528      -3.63678834       0.00000000 </v>
   <v>      -3.63678835      -1.56484572       0.00000000 </v>
   <v>       0.00000000       0.00000000      -0.47088644 </v>
  </varray>
  <energy>
   <i name="e_fr_energy">    -18.59039840 </i>
   <i name="e_wo_entrp">    -18.59039840 </i>
   <i name="e_0_energy">     -0.00000000 </i>
  </energy>
  <time name="totalsc">   28.67   28.97</time>
 </calculation>
 <calculation>
  <scstep>
   <time name="diag">    1.05    1.05</time>
   <time name="diis">    3.78    3.79</time>
   <time name="orth">    0.05    0.05</time>
   <time name="total">    5.16    5.17</time>
   <energy>
    <i name="alphaZ">      1.37232795 </i>
    <i name="ewald">   2232.06079177 </i>
    <i name="hartreedc">  -2473.65337542 </i>
    <i name="XCdc">     15.61689179 </i>
    <i name="pawpsdc">   4098.51281321 </i>
    <i name="pawaedc">  -4088.17148923 </i>
    <i name="eentropy">     -0.00000000 </i>
    <i name="bandstr">    -98.52594562 </i>
    <i name="atom">    294.30319316 </i>
    <i name="e_fr_energy">    -18.48479239 </i>
    <i name="e_wo_entrp">    -18.48479239 </i>
    <i name="e_0_energy">    -18.48479239 </i>
   </energy>
  </scstep>
  <scstep>
   <time name="diag">    1.05    1.05</time>
   <time name="diis">    3.79    3.80</time>
   <time name="orth">    0.05    0.05</time>
   <time name="total">    5.17    5.19</time>
   <energy>
    <i name="e_fr_energy">    -18.48476938 </i>
    <i name="e_wo_entrp">    -18.48476938 </i>
    <i name="e_0_energy">    -18.48476938 </i>
   </energy>
  </scstep>
  <scstep>
   <time name="diag">    1.05    1.05</time>
   <time name="diis">    3.88    3.89</time>
   <time name="orth">    0.05    0.05</time>
   <time name="total">    5.26    5.28</time>
   <energy>
    <i name="e_fr_energy">    -18.48471071 </i>
    <i name="e_wo_entrp">    -18.48471071 </i>
    <i name="e_0_energy">    -18.48471071 </i>
   </energy>
  </scstep>
  <scstep>
   <time name="diag">    1.05    1.05</time>
   <time name="diis">    4.02    4.03</time>
   <time name="orth">    0.05    0.05</time>
   <time name="total">    5.40    5.42</time>
   <energy>
    <i name="e_fr_energy">    -18.48470984 </i>
    <i name="e_wo_entrp">    -18.48470984 </i>
    <i name="e_0_energy">    -18.48470984 </i>
   </energy>
  </scstep>
  <scstep>
   <time name="diag">    1.05    1.05</time>
   <time name="diis">    3.99    4.00</time>
   <time name="orth">    0.05    0.05</time>
   <time name="total">    5.11    5.14</time>
   <energy>
    <i name="alphaZ">      1.37232795 </i>
    <i name="ewald">   2232.06079177 </i>
    <i name="hartreedc">  -2473.65686786 </i>
    <i name="XCdc">     15.61707657 </i>
    <i name="pawpsdc">   4099.56804979 </i>
    <i name="pawaedc">  -4089.22678096 </i>
    <i name="eentropy">     -0.00000000 </i>
    <i name="bandstr">    -98.52250024 </i>
    <i name="atom">    294.30319316 </i>
    <i name="e_fr_energy">    -18.48470982 </i>
    <i name="e_wo_entrp">    -18.48470982 </i>
    <i name="e_0_energy">    -18.48470982 </i>
   </energy>
  </scstep>
  <structure>
   <crystal>
    <varray name="basis" >
     <v>       1.22351834      -2.13154342       0.00000000 </v>
     <v>       1.24489548       2.14388549       0.00000000 </v>
     <v>       0.00000000       0.00000000      30.28239374 </v>
    </varray>
    <i name="volume">    159.78904778 </i>
    <varray name="rec_basis" >
     <v>       0.40629809      -0.23592615       0.00000000 </v>
     <v>       0.40395908       0.23187487       0.00000000 </v>
     <v>       0.00000000       0.00000000       0.03302249 </v>
    </varray>
   </crystal>
   <varray name="positions" >
    <v>      -0.00043711       0.99952079       0.50000000 </v>
    <v>       0.66710711       0.33380921       0.50000000 </v>
   </varray>
  </structure>
  <varray name="forces" >
   <v>       0.00009616      -0.00172154       0.00000000 </v>
   <v>      -0.00009616       0.00172154       0.00000000 </v>
  </varray>
  <varray name="stress" >
   <v>      -1.83980540      -4.83794894       0.00000000 </v>
   <v>      -4.83794892      -1.51037605       0.00000000 </v>
   <v>       0.00000000       0.00000000      -0.46912582 </v>
  </varray>
  <energy>
   <i name="e_fr_energy">    -18.59299225 </i>
   <i name="e_wo_entrp">    -18.59299225 </i>
   <i name="e_0_energy">     -0.00000000 </i>
  </energy>
  <time name="totalsc">   28.61   28.75</time>
  <eigenvalues>
   <array>
    <dimension dim="1">band</dimension>
    <dimension dim="2">kpoint</dimension>
    <dimension dim="3">spin</dimension>
    <field>eigene</field>
    <field>occ</field>
    <set>
     <set comment="spin 1">
      <set comment="kpoint 1">
       <r>  -22.5551    1.0000 </r>
       <r>  -10.6257    1.0000 </r>
       <r>   -6.7386    1.0000 </r>
       <r>   -6.4818    1.0000 </r>
       <r>    0.2627    0.0000 </r>
       <r>    1.0310    0.0000 </r>
       <r>    1.2571    0.0000 </r>
       <r>    1.5732    0.0000 </r>
       <r>    1.7795    0.0000 </r>
       <r>    2.4310    0.0000 </r>
       <r>    2.7183    0.0000 </r>
       <r>    3.6711    0.0000 </r>
       <r>    4.0240    0.0000 </r>
       <r>    5.1858    0.0000 </r>
       <r>    5.2668    0.0000 </r>
       <r>    5.6108    0.0000 </r>
       <r>    5.6946    0.0000 </r>
       <r>    7.2077    0.0000 </r>
       <r>    7.7084    0.0000 </r>
       <r>    7.7968    0.0000 </r>
       <r>    9.4876    0.0000 </r>
       <r>    9.4932    0.0000 </r>
       <r>   10.0745    0.0000 </r>
       <r>   12.0991    0.0000 </r>
      </set>
      <set comment="kpoint 2">
       <r>  -22.1441    1.0000 </r>
       <r>  -10.1368    1.0000 </r>
       <r>   -8.0493    1.0000 </r>
       <r>   -7.2971    1.0000 </r>
       <r>    0.8224    0.0000 </r>
       <r>    1.5983    0.0000 </r>
       <r>    1.8322    0.0000 </r>
       <r>    2.1457    0.0000 </r>
       <r>    2.3527    0.0000 </r>
       <r>    3.0017    0.0000 </r>
       <r>    3.2887    0.0000 </r>
       <r>    4.2393    0.0000 </r>
       <r>    4.5868    0.0000 </r>
       <r>    5.2284    0.0000 </r>
       <r>    5.8312    0.0000 </r>
       <r>    6.2652    0.0000 </r>
       <r>    6.5263    0.0000 </r>
       <r>    7.0437    0.0000 </r>
       <r>    7.7677    0.0000 </r>
       <r>    8.2775    0.0000 </r>
       <r>   10.0391    0.0000 </r>
       <r>   10.3815    0.0000 </r>
       <r>   10.6430    0.0000 </r>
       <r>   12.6379    0.0000 </r>
      </set>
      <set comment="kpoint 3">
       <r>  -21.4087    1.0000 </r>
       <r>  -10.0102    1.0000 </r>
       <r>   -9.2714    1.0000 </r>
       <r>   -8.2303    1.0000 </r>
       <r>    1.8291    0.0000 </r>
       <r>    2.6147    0.0000 </r>
       <r>    2.8681    0.0000 </r>
       <r>    3.1750    0.0000 </r>
       <r>    3.3847    0.0000 </r>
       <r>    4.0227    0.0000 </r>
       <r>    4.3121    0.0000 </r>
       <r>    4.5934    0.0000 </r>
       <r>    4.9471    0.0000 </r>
       <r>    5.2683    0.0000 </r>
       <r>    5.6333    0.0000 </r>
       <r>    6.8481    0.0000 </r>
       <r>    7.2849    0.0000 </r>
       <r>    8.7701    0.0000 </r>
       <r>    9.2737    0.0000 </r>
       <r>    9.3402    0.0000 </r>
       <r>   11.0170    0.0000 </r>
       <r>   11.6484    0.0000 </r>
       <r>   11.8518    0.0000 </r>
       <r>   13.5509    0.0000 </r>
      </set>
      <set comment="kpoint 4">
       <r>  -20.3590    1.0000 </r>
       <r>  -12.1885    1.0000 </r>
       <r>   -9.0348    1.0000 </r>
       <r>   -8.0684    1.0000 </r>
       <r>    2.3079    0.0000 </r>
       <r>    3.2751    0.0000 </r>
       <r>    4.1049    0.0000 </r>
       <r>    4.3636    0.0000 </r>
       <r>    4.5761    0.0000 </r>
       <r>    4.6690    0.0000 </r>
       <r>    4.8856    0.0000 </r>
       <r>    5.5148    0.0000 </r>
       <r>    5.8100    0.0000 </r>
       <r>    6.7369    0.0000 </r>
       <r>    7.1047    0.0000 </r>
       <r>    8.3035    0.0000 </r>
       <r>    8.7568    0.0000 </r>
       <r>   10.1921    0.0000 </r>
       <r>   10.7599    0.0000 </r>
       <r>   11.8036    0.0000 </r>
       <r>   12.3433    0.0000 </r>
       <r>   13.1100    0.0000 </r>
       <r>   13.2281    0.0000 </r>
       <r>   14.3163    0.0000 </r>
      </set>
      <set comment="kpoint 5">
       <r>  -19.0171    1.0000 </r>
       <r>  -14.3297    1.0000 </r>
       <r>   -9.5869    1.0000 </r>
       <r>   -6.6423    1.0000 </r>
       <r>    0.1028    0.0000 </r>
       <r>    4.2690    0.0000 </r>
       <r>    5.1868    0.0000 </r>
       <r>    6.0065    0.0000 </r>
       <r>    6.3228    0.0000 </r>
       <r>    6.6116    0.0000 </r>
       <r>    6.8285    0.0000 </r>
       <r>    7.4443    0.0000 </r>
       <r>    7.7470    0.0000 </r>
       <r>    8.6439    0.0000 </r>
       <r>    9.0325    0.0000 </r>
       <r>   10.1573    0.0000 </r>
       <r>   10.6727    0.0000 </r>
       <r>   11.3924    0.0000 </r>
       <r>   11.7711    0.0000 </r>
       <r>   12.5181    0.0000 </r>
       <r>   12.6643    0.0000 </r>
       <r>   13.2381    0.0000 </r>
       <r>   13.4254    0.0000 </r>
       <r>   13.6471    0.0000 </r>
      </set>
      <set comment="kpoint 6">
       <r>  -17.5232    1.0000 </r>
       <r>  -16.1838    1.0000 </r>
       <r>   -9.8301    1.0000 </r>
       <r>   -5.4950    1.0000 </r>
       <r>   -1.4091    0.0000 </r>
       <r>    4.1420    0.0000 </r>
       <r>    7.4711    0.0000 </r>
       <r>    8.3036    0.0000 </r>
       <r>    8.7388    0.0000 </r>
       <r>    8.7739    0.0000 </r>
       <r>    8.9975    0.0000 </r>
       <r>    9.2333    0.0000 </r>
       <r>    9.5669    0.0000 </r>
       <r>    9.8512    0.0000 </r>
       <r>   10.1314    0.0000 </r>
       <r>   10.1360    0.0000 </r>
       <r>   10.3783    0.0000 </r>
       <r>   10.6152    0.0000 </r>
       <r>   10.9247    0.0000 </r>
       <r>   11.2079    0.0000 </r>
       <r>   11.3969    0.0000 </r>
       <r>   11.4998    0.0000 </r>
       <r>   12.1316    0.0000 </r>
       <r>   12.5995    0.0000 </r>
      </set>
      <set comment="kpoint 7">
       <r>  -18.2505    1.0000 </r>
       <r>  -15.3376    1.0000 </r>
       <r>   -9.7444    1.0000 </r>
       <r>   -5.9563    1.0000 </r>
       <r>   -0.8246    0.0000 </r>
       <r>    4.1825    0.0000 </r>
       <r>    6.2892    0.0000 </r>
       <r>    7.1242    0.0000 </r>
       <r>    7.4845    0.0000 </r>
       <r>    7.7624    0.0000 </r>
       <r>    7.9843    0.0000 </r>
       <r>    8.5810    0.0000 </r>
       <r>    8.8951    0.0000 </r>
       <r>    9.7454    0.0000 </r>
       <r>   10.0782    0.0000 </r>
       <r>   10.1819    0.0000 </r>
       <r>   10.8255    0.0000 </r>
       <r>   11.3702    0.0000 </r>
       <r>   11.6169    0.0000 </r>
       <r>   11.8050    0.0000 </r>
       <r>   11.8529    0.0000 </r>
       <r>   12.0769    0.0000 </r>
       <r>   12.5272    0.0000 </r>
       <r>   12.9891    0.0000 </r>
      </set>
      <set comment="kpoint 8">
       <r>  -19.7155    1.0000 </r>
       <r>  -13.2876    1.0000 </r>
       <r>   -9.3367    1.0000 </r>
       <r>   -7.3628    1.0000 </r>
       <r>    1.1703    0.0000 </r>
       <r>    4.1358    0.0000 </r>
       <r>    4.4490    0.0000 </r>
       <r>    5.0091    0.0000 </r>
       <r>    5.2951    0.0000 </r>
       <r>    5.5918    0.0000 </r>
       <r>    5.8057    0.0000 </r>
       <r>    6.4326    0.0000 </r>
       <r>    6.7298    0.0000 </r>
       <r>    7.6464    0.0000 </r>
       <r>    8.0212    0.0000 </r>
       <r>    9.1963    0.0000 </r>
       <r>    9.6689    0.0000 </r>
       <r>   11.0393    0.0000 </r>
       <r>   11.6638    0.0000 </r>
       <r>   12.1208    0.0000 </r>
       <r>   12.9116    0.0000 </r>
       <r>   13.8405    0.0000 </r>
       <r>   13.9372    0.0000 </r>
       <r>   14.0143    0.0000 </r>
      </set>
      <set comment="kpoint 9">
       <r>  -20.9172    1.0000 </r>
       <r>  -11.1041    1.0000 </r>
       <r>   -8.7027    1.0000 </r>
       <r>   -8.6446    1.0000 </r>
       <r>    2.5050    0.0000 </r>
       <r>    3.2289    0.0000 </r>
       <r>    3.5297    0.0000 </r>
       <r>    3.5653    0.0000 </r>
       <r>    3.8836    0.0000 </r>
       <r>    4.0778    0.0000 </r>
       <r>    4.7260    0.0000 </r>
       <r>    4.7331    0.0000 </r>
       <r>    5.0302    0.0000 </r>
       <r>    5.9520    0.0000 </r>
       <r>    6.3166    0.0000 </r>
       <r>    7.5284    0.0000 </r>
       <r>    7.9710    0.0000 </r>
       <r>    9.4384    0.0000 </r>
       <r>    9.9773    0.0000 </r>
       <r>   10.4200    0.0000 </r>
       <r>   11.6570    0.0000 </r>
       <r>   12.3332    0.0000 </r>
       <r>   12.7729    0.0000 </r>
       <r>   14.0793    0.0000 </r>
      </set>
      <set comment="kpoint 10">
       <r>  -21.8131    1.0000 </r>
       <r>   -9.7457    1.0000 </r>
       <r>   -8.9872    1.0000 </r>
       <r>   -7.7586    1.0000 </r>
       <r>    1.2747    0.0000 </r>
       <r>    2.0558    0.0000 </r>
       <r>    2.2970    0.0000 </r>
       <r>    2.6081    0.0000 </r>
       <r>    2.8159    0.0000 </r>
       <r>    3.4622    0.0000 </r>
       <r>    3.7494    0.0000 </r>
       <r>    4.6965    0.0000 </r>
       <r>    4.9935    0.0000 </r>
       <r>    5.1655    0.0000 </r>
       <r>    5.6214    0.0000 </r>
       <r>    6.2903    0.0000 </r>
       <r>    6.7227    0.0000 </r>
       <r>    7.9934    0.0000 </r>
       <r>    8.2190    0.0000 </r>
       <r>    8.7357    0.0000 </r>
       <r>   10.4813    0.0000 </r>
       <r>   11.0859    0.0000 </r>
       <r>   11.1828    0.0000 </r>
       <r>   13.0574    0.0000 </r>
      </set>
      <set comment="kpoint 11">
       <r>  -22.3886    1.0000 </r>
       <r>  -10.4274    1.0000 </r>
       <r>   -7.2546    1.0000 </r>
       <r>   -6.8756    1.0000 </r>
       <r>    0.4891    0.0000 </r>
       <r>    1.2604    0.0000 </r>
       <r>    1.4895    0.0000 </r>
       <r>    1.8046    0.0000 </r>
       <r>    2.0112    0.0000 </r>
       <r>    2.6617    0.0000 </r>
       <r>    2.9489    0.0000 </r>
       <r>    3.9009    0.0000 </r>
       <r>    4.2525    0.0000 </r>
       <r>    5.2626    0.0000 </r>
       <r>    5.4953    0.0000 </r>
       <r>    5.9264    0.0000 </r>
       <r>    6.1091    0.0000 </r>
       <r>    7.2714    0.0000 </r>
       <r>    7.4344    0.0000 </r>
       <r>    7.9388    0.0000 </r>
       <r>    9.7112    0.0000 </r>
       <r>    9.8920    0.0000 </r>
       <r>   10.3041    0.0000 </r>
       <r>   12.3172    0.0000 </r>
      </set>
      <set comment="kpoint 12">
       <r>  -22.6369    1.0000 </r>
       <r>  -10.7234    1.0000 </r>
       <r>   -6.4267    1.0000 </r>
       <r>   -6.3008    1.0000 </r>
       <r>    0.1515    0.0000 </r>
       <r>    0.9182    0.0000 </r>
       <r>    1.1429    0.0000 </r>
       <r>    1.4595    0.0000 </r>
       <r>    1.6657    0.0000 </r>
       <r>    2.3176    0.0000 </r>
       <r>    2.6050    0.0000 </r>
       <r>    3.5581    0.0000 </r>
       <r>    3.9117    0.0000 </r>
       <r>    5.1092    0.0000 </r>
       <r>    5.1545    0.0000 </r>
       <r>    5.3126    0.0000 </r>
       <r>    5.5784    0.0000 </r>
       <r>    7.0963    0.0000 </r>
       <r>    7.5948    0.0000 </r>
       <r>    8.0770    0.0000 </r>
       <r>    9.3396    0.0000 </r>
       <r>    9.3774    0.0000 </r>
       <r>    9.9615    0.0000 </r>
       <r>   11.9915    0.0000 </r>
      </set>
      <set comment="kpoint 13">
       <r>  -22.1501    1.0000 </r>
       <r>  -10.1439    1.0000 </r>
       <r>   -8.1587    1.0000 </r>
       <r>   -7.1804    1.0000 </r>
       <r>    0.8143    0.0000 </r>
       <r>    1.5904    0.0000 </r>
       <r>    1.8243    0.0000 </r>
       <r>    2.1378    0.0000 </r>
       <r>    2.3447    0.0000 </r>
       <r>    2.9937    0.0000 </r>
       <r>    3.2808    0.0000 </r>
       <r>    4.2312    0.0000 </r>
       <r>    4.5797    0.0000 </r>
       <r>    5.3563    0.0000 </r>
       <r>    5.8221    0.0000 </r>
       <r>    6.2595    0.0000 </r>
       <r>    6.5057    0.0000 </r>
       <r>    7.0144    0.0000 </r>
       <r>    7.7611    0.0000 </r>
       <r>    8.2701    0.0000 </r>
       <r>   10.0320    0.0000 </r>
       <r>   10.3223    0.0000 </r>
       <r>   10.6349    0.0000 </r>
       <r>   12.8742    0.0000 </r>
      </set>
      <set comment="kpoint 14">
       <r>  -21.5793    1.0000 </r>
       <r>   -9.4702    1.0000 </r>
       <r>   -9.4220    1.0000 </r>
       <r>   -8.3224    1.0000 </r>
       <r>    1.5963    0.0000 </r>
       <r>    2.3810    0.0000 </r>
       <r>    2.6279    0.0000 </r>
       <r>    2.9372    0.0000 </r>
       <r>    3.1457    0.0000 </r>
       <r>    3.7900    0.0000 </r>
       <r>    4.0783    0.0000 </r>
       <r>    5.0068    0.0000 </r>
       <r>    5.0301    0.0000 </r>
       <r>    5.3694    0.0000 </r>
       <r>    6.0052    0.0000 </r>
       <r>    6.6091    0.0000 </r>
       <r>    7.0554    0.0000 </r>
       <r>    7.6301    0.0000 </r>
       <r>    8.5340    0.0000 </r>
       <r>    9.0626    0.0000 </r>
       <r>   10.7849    0.0000 </r>
       <r>   11.4224    0.0000 </r>
       <r>   11.9413    0.0000 </r>
       <r>   13.3260    0.0000 </r>
      </set>
      <set comment="kpoint 15">
       <r>  -20.6900    1.0000 </r>
       <r>  -11.1376    1.0000 </r>
       <r>   -9.4857    1.0000 </r>
       <r>   -8.4372    1.0000 </r>
       <r>    2.8232    0.0000 </r>
       <r>    3.0810    0.0000 </r>
       <r>    3.6255    0.0000 </r>
       <r>    3.8922    0.0000 </r>
       <r>    4.1943    0.0000 </r>
       <r>    4.4054    0.0000 </r>
       <r>    5.0403    0.0000 </r>
       <r>    5.3292    0.0000 </r>
       <r>    6.0397    0.0000 </r>
       <r>    6.2633    0.0000 </r>
       <r>    6.6480    0.0000 </r>
       <r>    7.8313    0.0000 </r>
       <r>    8.2916    0.0000 </r>
       <r>    9.2063    0.0000 </r>
       <r>    9.7211    0.0000 </r>
       <r>   10.3049    0.0000 </r>
       <r>   11.8708    0.0000 </r>
       <r>   12.6561    0.0000 </r>
       <r>   13.8987    0.0000 </r>
       <r>   13.9660    0.0000 </r>
      </set>
      <set comment="kpoint 16">
       <r>  -19.4977    1.0000 </r>
       <r>  -13.1546    1.0000 </r>
       <r>  -10.2744    1.0000 </r>
       <r>   -7.1056    1.0000 </r>
       <r>    0.9817    0.0000 </r>
       <r>    4.4844    0.0000 </r>
       <r>    5.2957    0.0000 </r>
       <r>    5.6156    0.0000 </r>
       <r>    5.7545    0.0000 </r>
       <r>    5.9047    0.0000 </r>
       <r>    6.1306    0.0000 </r>
       <r>    6.7361    0.0000 </r>
       <r>    7.0502    0.0000 </r>
       <r>    7.9330    0.0000 </r>
       <r>    8.3382    0.0000 </r>
       <r>    9.4393    0.0000 </r>
       <r>    9.9801    0.0000 </r>
       <r>   11.0902    0.0000 </r>
       <r>   11.1124    0.0000 </r>
       <r>   11.9889    0.0000 </r>
       <r>   12.4750    0.0000 </r>
       <r>   14.0641    0.0000 </r>
       <r>   14.2415    0.0000 </r>
       <r>   14.3719    0.0000 </r>
      </set>
      <set comment="kpoint 17">
       <r>  -18.0466    1.0000 </r>
       <r>  -15.1397    1.0000 </r>
       <r>  -10.7033    1.0000 </r>
       <r>   -5.6888    1.0000 </r>
       <r>   -0.9256    0.0000 </r>
       <r>    5.5218    0.0000 </r>
       <r>    6.5870    0.0000 </r>
       <r>    7.3444    0.0000 </r>
       <r>    7.8032    0.0000 </r>
       <r>    8.0573    0.0000 </r>
       <r>    8.3001    0.0000 </r>
       <r>    8.8319    0.0000 </r>
       <r>    9.2062    0.0000 </r>
       <r>    9.8443    0.0000 </r>
       <r>   10.2933    0.0000 </r>
       <r>   10.4882    0.0000 </r>
       <r>   10.6919    0.0000 </r>
       <r>   11.6939    0.0000 </r>
       <r>   11.9795    0.0000 </r>
       <r>   12.0993    0.0000 </r>
       <r>   12.1687    0.0000 </r>
       <r>   12.4116    0.0000 </r>
       <r>   12.6236    0.0000 </r>
       <r>   13.2245    0.0000 </r>
      </set>
      <set comment="kpoint 18">
       <r>  -17.2997    1.0000 </r>
       <r>  -16.0030    1.0000 </r>
       <r>  -10.7826    1.0000 </r>
       <r>   -5.1978    1.0000 </r>
       <r>   -1.5203    0.0000 </r>
       <r>    5.4734    0.0000 </r>
       <r>    7.7973    0.0000 </r>
       <r>    8.4098    0.0000 </r>
       <r>    9.0149    0.0000 </r>
       <r>    9.1033    0.0000 </r>
       <r>    9.2795    0.0000 </r>
       <r>    9.5911    0.0000 </r>
       <r>    9.6454    0.0000 </r>
       <r>   10.1967    0.0000 </r>
       <r>   10.4477    0.0000 </r>
       <r>   10.4844    0.0000 </r>
       <r>   10.6453    0.0000 </r>
       <r>   10.9187    0.0000 </r>
       <r>   11.0753    0.0000 </r>
       <r>   11.5232    0.0000 </r>
       <r>   11.7313    0.0000 </r>
       <r>   11.7890    0.0000 </r>
       <r>   12.1306    0.0000 </r>
       <r>   12.9137    0.0000 </r>
      </set>
      <set comment="kpoint 19">
       <r>  -18.7765    1.0000 </r>
       <r>  -14.2031    1.0000 </r>
       <r>  -10.5135    1.0000 </r>
       <r>   -6.3597    1.0000 </r>
       <r>   -0.0512    0.0000 </r>
       <r>    5.4523    0.0000 </r>
       <r>    5.6657    0.0000 </r>
       <r>    6.3101    0.0000 </r>
       <r>    6.6812    0.0000 </r>
       <r>    6.9557    0.0000 </r>
       <r>    7.1852    0.0000 </r>
       <r>    7.7705    0.0000 </r>
       <r>    8.1009    0.0000 </r>
       <r>    8.9297    0.0000 </r>
       <r>    9.3827    0.0000 </r>
       <r>   10.2987    0.0000 </r>
       <r>   10.9846    0.0000 </r>
       <r>   11.1242    0.0000 </r>
       <r>   11.4717    0.0000 </r>
       <r>   12.7501    0.0000 </r>
       <r>   12.9989    0.0000 </r>
       <r>   13.4341    0.0000 </r>
       <r>   13.6232    0.0000 </r>
       <r>   13.6264    0.0000 </r>
      </set>
      <set comment="kpoint 20">
       <r>  -20.1129    1.0000 </r>
       <r>  -12.1678    1.0000 </r>
       <r>   -9.8979    1.0000 </r>
       <r>   -7.7843    1.0000 </r>
       <r>    2.0267    0.0000 </r>
       <r>    3.6238    0.0000 </r>
       <r>    4.4290    0.0000 </r>
       <r>    4.7194    0.0000 </r>
       <r>    5.0153    0.0000 </r>
       <r>    5.2281    0.0000 </r>
       <r>    5.8558    0.0000 </r>
       <r>    5.8598    0.0000 </r>
       <r>    6.1721    0.0000 </r>
       <r>    7.0694    0.0000 </r>
       <r>    7.4556    0.0000 </r>
       <r>    8.6180    0.0000 </r>
       <r>    9.1024    0.0000 </r>
       <r>    9.9811    0.0000 </r>
       <r>   10.4554    0.0000 </r>
       <r>   11.1136    0.0000 </r>
       <r>   12.3668    0.0000 </r>
       <r>   13.4580    0.0000 </r>
       <r>   13.7981    0.0000 </r>
       <r>   14.7837    0.0000 </r>
      </set>
      <set comment="kpoint 21">
       <r>  -21.1612    1.0000 </r>
       <r>  -10.2345    1.0000 </r>
       <r>   -8.9824    1.0000 </r>
       <r>   -8.9326    1.0000 </r>
       <r>    2.1712    0.0000 </r>
       <r>    2.9599    0.0000 </r>
       <r>    3.2188    0.0000 </r>
       <r>    3.5242    0.0000 </r>
       <r>    3.7347    0.0000 </r>
       <r>    4.0934    0.0000 </r>
       <r>    4.3757    0.0000 </r>
       <r>    4.6645    0.0000 </r>
       <r>    5.6041    0.0000 </r>
       <r>    5.9156    0.0000 </r>
       <r>    6.1250    0.0000 </r>
       <r>    7.1830    0.0000 </r>
       <r>    7.6317    0.0000 </r>
       <r>    8.0682    0.0000 </r>
       <r>    9.0959    0.0000 </r>
       <r>    9.6430    0.0000 </r>
       <r>   11.3184    0.0000 </r>
       <r>   12.0001    0.0000 </r>
       <r>   13.1510    0.0000 </r>
       <r>   13.7477    0.0000 </r>
      </set>
      <set comment="kpoint 22">
       <r>  -21.8972    1.0000 </r>
       <r>   -9.8449    1.0000 </r>
       <r>   -8.7019    1.0000 </r>
       <r>   -7.7363    1.0000 </r>
       <r>    1.1600    0.0000 </r>
       <r>    1.9396    0.0000 </r>
       <r>    2.1789    0.0000 </r>
       <r>    2.4906    0.0000 </r>
       <r>    2.6982    0.0000 </r>
       <r>    3.3453    0.0000 </r>
       <r>    3.6329    0.0000 </r>
       <r>    4.5811    0.0000 </r>
       <r>    4.9286    0.0000 </r>
       <r>    5.6025    0.0000 </r>
       <r>    5.8438    0.0000 </r>
       <r>    6.1728    0.0000 </r>
       <r>    6.6099    0.0000 </r>
       <r>    7.1590    0.0000 </r>
       <r>    8.1033    0.0000 </r>
       <r>    8.6199    0.0000 </r>
       <r>   10.3677    0.0000 </r>
       <r>   10.9813    0.0000 </r>
       <r>   11.1668    0.0000 </r>
       <r>   12.9475    0.0000 </r>
      </set>
      <set comment="kpoint 23">
       <r>  -22.3100    1.0000 </r>
       <r>  -10.3339    1.0000 </r>
       <r>   -7.6120    1.0000 </r>
       <r>   -6.9361    1.0000 </r>
       <r>    0.5960    0.0000 </r>
       <r>    1.3692    0.0000 </r>
       <r>    1.5998    0.0000 </r>
       <r>    1.9144    0.0000 </r>
       <r>    2.1210    0.0000 </r>
       <r>    2.7711    0.0000 </r>
       <r>    3.0581    0.0000 </r>
       <r>    4.0098    0.0000 </r>
       <r>    4.3596    0.0000 </r>
       <r>    5.1818    0.0000 </r>
       <r>    5.6033    0.0000 </r>
       <r>    6.0358    0.0000 </r>
       <r>    6.6029    0.0000 </r>
       <r>    7.0050    0.0000 </r>
       <r>    7.5428    0.0000 </r>
       <r>    8.0478    0.0000 </r>
       <r>    9.8172    0.0000 </r>
       <r>    9.9774    0.0000 </r>
       <r>   10.4134    0.0000 </r>
       <r>   12.4199    0.0000 </r>
      </set>
      <set comment="kpoint 24">
       <r>  -22.3946    1.0000 </r>
       <r>  -10.4344    1.0000 </r>
       <r>   -7.3528    1.0000 </r>
       <r>   -6.7789    1.0000 </r>
       <r>    0.4808    0.0000 </r>
       <r>    1.2526    0.0000 </r>
       <r>    1.4816    0.0000 </r>
       <r>    1.7967    0.0000 </r>
       <r>    2.0032    0.0000 </r>
       <r>    2.6538    0.0000 </r>
       <r>    2.9409    0.0000 </r>
       <r>    3.8930    0.0000 </r>
       <r>    4.2440    0.0000 </r>
       <r>    5.2715    0.0000 </r>
       <r>    5.4874    0.0000 </r>
       <r>    5.9204    0.0000 </r>
       <r>    6.2851    0.0000 </r>
       <r>    7.2537    0.0000 </r>
       <r>    7.4277    0.0000 </r>
       <r>    7.9313    0.0000 </r>
       <r>    9.7034    0.0000 </r>
       <r>    9.7624    0.0000 </r>
       <r>   10.2963    0.0000 </r>
       <r>   12.3090    0.0000 </r>
      </set>
      <set comment="kpoint 25">
       <r>  -21.4267    1.0000 </r>
       <r>  -10.1495    1.0000 </r>
       <r>   -9.2929    1.0000 </r>
       <r>   -8.0601    1.0000 </r>
       <r>    1.8053    0.0000 </r>
       <r>    2.5896    0.0000 </r>
       <r>    2.8444    0.0000 </r>
       <r>    3.1505    0.0000 </r>
       <r>    3.3611    0.0000 </r>
       <r>    3.9952    0.0000 </r>
       <r>    4.2902    0.0000 </r>
       <r>    4.5420    0.0000 </r>
       <r>    5.2144    0.0000 </r>
       <r>    5.2493    0.0000 </r>
       <r>    5.6213    0.0000 </r>
       <r>    6.8273    0.0000 </r>
       <r>    7.2627    0.0000 </r>
       <r>    8.7495    0.0000 </r>
       <r>    9.1475    0.0000 </r>
       <r>    9.2794    0.0000 </r>
       <r>   10.9975    0.0000 </r>
       <r>   11.6210    0.0000 </r>
       <r>   11.8145    0.0000 </r>
       <r>   16.2119    0.0000 </r>
      </set>
      <set comment="kpoint 26">
       <r>  -20.7021    1.0000 </r>
       <r>  -11.2515    1.0000 </r>
       <r>   -9.3470    1.0000 </r>
       <r>   -8.4519    1.0000 </r>
       <r>    2.8076    0.0000 </r>
       <r>    3.0359    0.0000 </r>
       <r>    3.6178    0.0000 </r>
       <r>    3.8764    0.0000 </r>
       <r>    4.1799    0.0000 </r>
       <r>    4.3897    0.0000 </r>
       <r>    5.0261    0.0000 </r>
       <r>    5.3151    0.0000 </r>
       <r>    6.2494    0.0000 </r>
       <r>    6.3190    0.0000 </r>
       <r>    6.6497    0.0000 </r>
       <r>    7.8181    0.0000 </r>
       <r>    8.2775    0.0000 </r>
       <r>    8.9107    0.0000 </r>
       <r>    9.7096    0.0000 </r>
       <r>   10.2882    0.0000 </r>
       <r>   11.8648    0.0000 </r>
       <r>   12.6400    0.0000 </r>
       <r>   13.9131    0.0000 </r>
       <r>   13.9837    0.0000 </r>
      </set>
      <set comment="kpoint 27">
       <r>  -19.6699    1.0000 </r>
       <r>  -12.4105    1.0000 </r>
       <r>  -10.8929    1.0000 </r>
       <r>   -7.2794    1.0000 </r>
       <r>    1.3511    0.0000 </r>
       <r>    4.2496    0.0000 </r>
       <r>    5.0368    0.0000 </r>
       <r>    5.3692    0.0000 </r>
       <r>    5.6538    0.0000 </r>
       <r>    5.8767    0.0000 </r>
       <r>    6.4830    0.0000 </r>
       <r>    6.7943    0.0000 </r>
       <r>    7.6760    0.0000 </r>
       <r>    7.7759    0.0000 </r>
       <r>    8.1269    0.0000 </r>
       <r>    8.9150    0.0000 </r>
       <r>    9.1713    0.0000 </r>
       <r>    9.7482    0.0000 </r>
       <r>   10.8085    0.0000 </r>
       <r>   11.7427    0.0000 </r>
       <r>   12.1933    0.0000 </r>
       <r>   13.9173    0.0000 </r>
       <r>   14.0786    0.0000 </r>
       <r>   15.6168    0.0000 </r>
      </set>
      <set comment="kpoint 28">
       <r>  -18.3582    1.0000 </r>
       <r>  -13.9618    1.0000 </r>
       <r>  -11.8819    1.0000 </r>
       <r>   -5.8670    1.0000 </r>
       <r>   -0.4345    0.0000 </r>
       <r>    6.1109    0.0000 </r>
       <r>    6.7920    0.0000 </r>
       <r>    7.3219    0.0000 </r>
       <r>    7.5616    0.0000 </r>
       <r>    7.7387    0.0000 </r>
       <r>    7.8439    0.0000 </r>
       <r>    8.3064    0.0000 </r>
       <r>    8.7338    0.0000 </r>
       <r>    9.2700    0.0000 </r>
       <r>    9.9962    0.0000 </r>
       <r>   10.2746    0.0000 </r>
       <r>   10.4659    0.0000 </r>
       <r>   11.5938    0.0000 </r>
       <r>   11.6454    0.0000 </r>
       <r>   13.3408    0.0000 </r>
       <r>   13.5657    0.0000 </r>
       <r>   13.7743    0.0000 </r>
       <r>   14.1987    0.0000 </r>
       <r>   14.3454    0.0000 </r>
      </set>
      <set comment="kpoint 29">
       <r>  -16.9068    1.0000 </r>
       <r>  -15.6276    1.0000 </r>
       <r>  -12.2259    1.0000 </r>
       <r>   -4.6304    1.0000 </r>
       <r>   -1.8451    0.0000 </r>
       <r>    7.5937    0.0000 </r>
       <r>    8.0038    0.0000 </r>
       <r>    8.3416    0.0000 </r>
       <r>    9.5697    0.0000 </r>
       <r>    9.7176    0.0000 </r>
       <r>    9.7360    0.0000 </r>
       <r>   10.1218    0.0000 </r>
       <r>   10.2123    0.0000 </r>
       <r>   10.8491    0.0000 </r>
       <r>   11.0818    0.0000 </r>
       <r>   11.1739    0.0000 </r>
       <r>   11.2452    0.0000 </r>
       <r>   11.5956    0.0000 </r>
       <r>   11.6146    0.0000 </r>
       <r>   12.1858    0.0000 </r>
       <r>   12.2724    0.0000 </r>
       <r>   12.4360    0.0000 </r>
       <r>   12.5589    0.0000 </r>
       <r>   13.4348    0.0000 </r>
      </set>
      <set comment="kpoint 30">
       <r>  -17.5816    1.0000 </r>
       <r>  -14.8858    1.0000 </r>
       <r>  -12.1025    1.0000 </r>
       <r>   -5.1312    1.0000 </r>
       <r>   -1.2805    0.0000 </r>
       <r>    7.2268    0.0000 </r>
       <r>    7.6269    0.0000 </r>
       <r>    7.6669    0.0000 </r>
       <r>    8.5237    0.0000 </r>
       <r>    8.6900    0.0000 </r>
       <r>    9.0143    0.0000 </r>
       <r>    9.2279    0.0000 </r>
       <r>    9.9055    0.0000 </r>
       <r>    9.9751    0.0000 </r>
       <r>   10.3342    0.0000 </r>
       <r>   11.0784    0.0000 </r>
       <r>   11.1790    0.0000 </r>
       <r>   12.3547    0.0000 </r>
       <r>   12.5612    0.0000 </r>
       <r>   12.7165    0.0000 </r>
       <r>   12.7412    0.0000 </r>
       <r>   12.8581    0.0000 </r>
       <r>   13.0647    0.0000 </r>
       <r>   13.3720    0.0000 </r>
      </set>
      <set comment="kpoint 31">
       <r>  -19.0131    1.0000 </r>
       <r>  -13.1770    1.0000 </r>
       <r>  -11.4662    1.0000 </r>
       <r>   -6.5608    1.0000 </r>
       <r>    0.4401    0.0000 </r>
       <r>    5.1734    0.0000 </r>
       <r>    5.9311    0.0000 </r>
       <r>    6.3303    0.0000 </r>
       <r>    6.5983    0.0000 </r>
       <r>    6.8330    0.0000 </r>
       <r>    7.4040    0.0000 </r>
       <r>    7.7135    0.0000 </r>
       <r>    7.8707    0.0000 </r>
       <r>    8.5423    0.0000 </r>
       <r>    9.0365    0.0000 </r>
       <r>    9.4571    0.0000 </r>
       <r>    9.8554    0.0000 </r>
       <r>   10.6861    0.0000 </r>
       <r>   11.0768    0.0000 </r>
       <r>   12.5935    0.0000 </r>
       <r>   12.6714    0.0000 </r>
       <r>   14.6578    0.0000 </r>
       <r>   14.8899    0.0000 </r>
       <r>   15.0190    0.0000 </r>
      </set>
      <set comment="kpoint 32">
       <r>  -20.1983    1.0000 </r>
       <r>  -11.8006    1.0000 </r>
       <r>  -10.1657    1.0000 </r>
       <r>   -7.8769    1.0000 </r>
       <r>    2.2256    0.0000 </r>
       <r>    3.5071    0.0000 </r>
       <r>    4.3021    0.0000 </r>
       <r>    4.5974    0.0000 </r>
       <r>    4.8920    0.0000 </r>
       <r>    5.1083    0.0000 </r>
       <r>    5.7321    0.0000 </r>
       <r>    6.0307    0.0000 </r>
       <r>    6.9452    0.0000 </r>
       <r>    6.9790    0.0000 </r>
       <r>    7.3558    0.0000 </r>
       <r>    8.4925    0.0000 </r>
       <r>    8.6365    0.0000 </r>
       <r>    8.9935    0.0000 </r>
       <r>   10.3249    0.0000 </r>
       <r>   10.9923    0.0000 </r>
       <r>   12.2166    0.0000 </r>
       <r>   13.3395    0.0000 </r>
       <r>   13.6684    0.0000 </r>
       <r>   15.6349    0.0000 </r>
      </set>
      <set comment="kpoint 33">
       <r>  -21.0867    1.0000 </r>
       <r>  -10.6563    1.0000 </r>
       <r>   -8.8974    1.0000 </r>
       <r>   -8.6843    1.0000 </r>
       <r>    2.2733    0.0000 </r>
       <r>    3.0543    0.0000 </r>
       <r>    3.3251    0.0000 </r>
       <r>    3.6189    0.0000 </r>
       <r>    3.8402    0.0000 </r>
       <r>    3.8696    0.0000 </r>
       <r>    4.4880    0.0000 </r>
       <r>    4.7665    0.0000 </r>
       <r>    5.4786    0.0000 </r>
       <r>    5.7132    0.0000 </r>
       <r>    6.0873    0.0000 </r>
       <r>    7.2911    0.0000 </r>
       <r>    7.7351    0.0000 </r>
       <r>    9.0100    0.0000 </r>
       <r>    9.2036    0.0000 </r>
       <r>    9.7480    0.0000 </r>
       <r>   11.4270    0.0000 </r>
       <r>   12.1025    0.0000 </r>
       <r>   13.0206    0.0000 </r>
       <r>   13.8644    0.0000 </r>
      </set>
      <set comment="kpoint 34">
       <r>  -21.6600    1.0000 </r>
       <r>   -9.5660    1.0000 </r>
       <r>   -9.5331    1.0000 </r>
       <r>   -7.8080    1.0000 </r>
       <r>    1.4843    0.0000 </r>
       <r>    2.2676    0.0000 </r>
       <r>    2.5136    0.0000 </r>
       <r>    2.8230    0.0000 </r>
       <r>    3.0315    0.0000 </r>
       <r>    3.6753    0.0000 </r>
       <r>    3.9628    0.0000 </r>
       <r>    4.8944    0.0000 </r>
       <r>    4.9725    0.0000 </r>
       <r>    5.1812    0.0000 </r>
       <r>    5.2976    0.0000 </r>
       <r>    6.5043    0.0000 </r>
       <r>    6.9363    0.0000 </r>
       <r>    8.4304    0.0000 </r>
       <r>    8.8309    0.0000 </r>
       <r>    8.9477    0.0000 </r>
       <r>   10.6881    0.0000 </r>
       <r>   11.2048    0.0000 </r>
       <r>   11.3323    0.0000 </r>
       <r>   13.2538    0.0000 </r>
      </set>
      <set comment="kpoint 35">
       <r>  -21.9092    1.0000 </r>
       <r>   -9.8587    1.0000 </r>
       <r>   -8.6980    1.0000 </r>
       <r>   -7.7460    1.0000 </r>
       <r>    1.1437    0.0000 </r>
       <r>    1.9240    0.0000 </r>
       <r>    2.1630    0.0000 </r>
       <r>    2.4749    0.0000 </r>
       <r>    2.6823    0.0000 </r>
       <r>    3.3296    0.0000 </r>
       <r>    3.6168    0.0000 </r>
       <r>    4.5655    0.0000 </r>
       <r>    4.9121    0.0000 </r>
       <r>    5.6327    0.0000 </r>
       <r>    5.8328    0.0000 </r>
       <r>    6.1560    0.0000 </r>
       <r>    6.5958    0.0000 </r>
       <r>    7.4940    0.0000 </r>
       <r>    8.0872    0.0000 </r>
       <r>    8.6050    0.0000 </r>
       <r>   10.3515    0.0000 </r>
       <r>   10.8934    0.0000 </r>
       <r>   10.9687    0.0000 </r>
       <r>   12.9303    0.0000 </r>
      </set>
      <set comment="kpoint 36">
       <r>  -21.8311    1.0000 </r>
       <r>   -9.7668    1.0000 </r>
       <r>   -9.1011    1.0000 </r>
       <r>   -7.6327    1.0000 </r>
       <r>    1.2504    0.0000 </r>
       <r>    2.0319    0.0000 </r>
       <r>    2.2733    0.0000 </r>
       <r>    2.5843    0.0000 </r>
       <r>    2.7921    0.0000 </r>
       <r>    3.4383    0.0000 </r>
       <r>    3.7256    0.0000 </r>
       <r>    4.6716    0.0000 </r>
       <r>    5.0073    0.0000 </r>
       <r>    5.3606    0.0000 </r>
       <r>    5.5806    0.0000 </r>
       <r>    6.2696    0.0000 </r>
       <r>    6.7015    0.0000 </r>
       <r>    8.1380    0.0000 </r>
       <r>    8.1968    0.0000 </r>
       <r>    8.7129    0.0000 </r>
       <r>   10.4591    0.0000 </r>
       <r>   10.9015    0.0000 </r>
       <r>   11.0818    0.0000 </r>
       <r>   13.0351    0.0000 </r>
      </set>
      <set comment="kpoint 37">
       <r>  -20.3954    1.0000 </r>
       <r>  -12.3202    1.0000 </r>
       <r>   -8.8381    1.0000 </r>
       <r>   -8.1120    1.0000 </r>
       <r>    2.2288    0.0000 </r>
       <r>    3.2295    0.0000 </r>
       <r>    4.0643    0.0000 </r>
       <r>    4.3170    0.0000 </r>
       <r>    4.6234    0.0000 </r>
       <r>    4.8108    0.0000 </r>
       <r>    4.9618    0.0000 </r>
       <r>    5.4700    0.0000 </r>
       <r>    5.7655    0.0000 </r>
       <r>    6.6932    0.0000 </r>
       <r>    7.0585    0.0000 </r>
       <r>    8.2616    0.0000 </r>
       <r>    8.7100    0.0000 </r>
       <r>   10.1541    0.0000 </r>
       <r>   10.7117    0.0000 </r>
       <r>   11.4654    0.0000 </r>
       <r>   12.3167    0.0000 </r>
       <r>   13.0593    0.0000 </r>
       <r>   13.2585    0.0000 </r>
       <r>   14.3109    0.0000 </r>
      </set>
      <set comment="kpoint 38">
       <r>  -19.5290    1.0000 </r>
       <r>  -13.2821    1.0000 </r>
       <r>  -10.0893    1.0000 </r>
       <r>   -7.1445    1.0000 </r>
       <r>    0.9239    0.0000 </r>
       <r>    4.4472    0.0000 </r>
       <r>    5.2632    0.0000 </r>
       <r>    5.5774    0.0000 </r>
       <r>    5.8670    0.0000 </r>
       <r>    6.0617    0.0000 </r>
       <r>    6.1738    0.0000 </r>
       <r>    6.7000    0.0000 </r>
       <r>    7.0130    0.0000 </r>
       <r>    7.8997    0.0000 </r>
       <r>    8.2996    0.0000 </r>
       <r>    9.4129    0.0000 </r>
       <r>    9.9393    0.0000 </r>
       <r>   10.7107    0.0000 </r>
       <r>   11.1098    0.0000 </r>
       <r>   11.9481    0.0000 </r>
       <r>   12.4794    0.0000 </r>
       <r>   13.9939    0.0000 </r>
       <r>   14.0560    0.0000 </r>
       <r>   14.2913    0.0000 </r>
      </set>
      <set comment="kpoint 39">
       <r>  -18.3792    1.0000 </r>
       <r>  -14.0546    1.0000 </r>
       <r>  -11.7561    1.0000 </r>
       <r>   -5.8945    1.0000 </r>
       <r>   -0.4552    0.0000 </r>
       <r>    6.0889    0.0000 </r>
       <r>    6.7811    0.0000 </r>
       <r>    7.2985    0.0000 </r>
       <r>    7.5403    0.0000 </r>
       <r>    7.7922    0.0000 </r>
       <r>    8.1995    0.0000 </r>
       <r>    8.2906    0.0000 </r>
       <r>    8.7145    0.0000 </r>
       <r>    9.2664    0.0000 </r>
       <r>    9.9341    0.0000 </r>
       <r>   10.1078    0.0000 </r>
       <r>   10.2706    0.0000 </r>
       <r>   11.5711    0.0000 </r>
       <r>   11.6213    0.0000 </r>
       <r>   13.2869    0.0000 </r>
       <r>   13.4116    0.0000 </r>
       <r>   13.6178    0.0000 </r>
       <r>   13.9878    0.0000 </r>
       <r>   14.0497    0.0000 </r>
      </set>
      <set comment="kpoint 40">
       <r>  -17.0091    1.0000 </r>
       <r>  -14.8402    1.0000 </r>
       <r>  -13.1666    1.0000 </r>
       <r>   -4.4713    1.0000 </r>
       <r>   -1.8865    0.0000 </r>
       <r>    7.5652    0.0000 </r>
       <r>    8.0801    0.0000 </r>
       <r>    9.4767    0.0000 </r>
       <r>    9.4941    0.0000 </r>
       <r>    9.6416    0.0000 </r>
       <r>    9.9201    0.0000 </r>
       <r>    9.9367    0.0000 </r>
       <r>   10.1425    0.0000 </r>
       <r>   10.7517    0.0000 </r>
       <r>   10.8534    0.0000 </r>
[...]
       <r>   10.7440    0.0000 </r>
       <r>   11.2823    0.0000 </r>
       <r>   11.5092    0.0000 </r>
       <r>   12.4714    0.0000 </r>
       <r>   12.5076    0.0000 </r>
       <r>   12.7780    0.0000 </r>
       <r>   12.8945    0.0000 </r>
       <r>   13.2667    0.0000 </r>
      </set>
      <set comment="kpoint 69">
       <r>  -19.0007    1.0000 </r>
       <r>  -13.5823    1.0000 </r>
       <r>  -11.0173    1.0000 </r>
       <r>   -6.5592    1.0000 </r>
       <r>    0.2859    0.0000 </r>
       <r>    5.1958    0.0000 </r>
       <r>    5.9801    0.0000 </r>
       <r>    6.3610    0.0000 </r>
       <r>    6.6336    0.0000 </r>
       <r>    6.8404    0.0000 </r>
       <r>    6.9514    0.0000 </r>
       <r>    7.4451    0.0000 </r>
       <r>    7.7873    0.0000 </r>
       <r>    8.5969    0.0000 </r>
       <r>    9.0669    0.0000 </r>
       <r>    9.9498    0.0000 </r>
       <r>   10.6415    0.0000 </r>
       <r>   10.8347    0.0000 </r>
       <r>   11.1839    0.0000 </r>
       <r>   12.6132    0.0000 </r>
       <r>   12.6973    0.0000 </r>
       <r>   13.9805    0.0000 </r>
       <r>   14.4055    0.0000 </r>
       <r>   14.8097    0.0000 </r>
      </set>
      <set comment="kpoint 70">
       <r>  -19.0872    1.0000 </r>
       <r>  -13.1434    1.0000 </r>
       <r>  -11.4298    1.0000 </r>
       <r>   -6.6362    1.0000 </r>
       <r>    0.4614    0.0000 </r>
       <r>    5.0767    0.0000 </r>
       <r>    5.8434    0.0000 </r>
       <r>    6.2352    0.0000 </r>
       <r>    6.5050    0.0000 </r>
       <r>    6.7379    0.0000 </r>
       <r>    7.3133    0.0000 </r>
       <r>    7.6453    0.0000 </r>
       <r>    8.2670    0.0000 </r>
       <r>    8.4577    0.0000 </r>
       <r>    8.9547    0.0000 </r>
       <r>    9.5656    0.0000 </r>
       <r>    9.7904    0.0000 </r>
       <r>   10.5942    0.0000 </r>
       <r>   11.0272    0.0000 </r>
       <r>   12.5163    0.0000 </r>
       <r>   12.5763    0.0000 </r>
       <r>   14.5662    0.0000 </r>
       <r>   14.7633    0.0000 </r>
       <r>   14.9185    0.0000 </r>
      </set>
      <set comment="kpoint 71">
       <r>  -18.8651    1.0000 </r>
       <r>  -14.2490    1.0000 </r>
       <r>  -10.3611    1.0000 </r>
       <r>   -6.4539    1.0000 </r>
       <r>   -0.0686    0.0000 </r>
       <r>    5.3852    0.0000 </r>
       <r>    6.0758    0.0000 </r>
       <r>    6.2113    0.0000 </r>
       <r>    6.5707    0.0000 </r>
       <r>    6.8478    0.0000 </r>
       <r>    7.0753    0.0000 </r>
       <r>    7.6664    0.0000 </r>
       <r>    7.9907    0.0000 </r>
       <r>    8.8340    0.0000 </r>
       <r>    9.2716    0.0000 </r>
       <r>   10.2317    0.0000 </r>
       <r>   10.8760    0.0000 </r>
       <r>   11.0676    0.0000 </r>
       <r>   11.4342    0.0000 </r>
       <r>   12.6342    0.0000 </r>
       <r>   12.8828    0.0000 </r>
       <r>   13.3203    0.0000 </r>
       <r>   13.4891    0.0000 </r>
       <r>   13.4997    0.0000 </r>
      </set>
      <set comment="kpoint 72">
       <r>  -18.3529    1.0000 </r>
       <r>  -15.3961    1.0000 </r>
       <r>   -9.5432    1.0000 </r>
       <r>   -6.0648    1.0000 </r>
       <r>   -0.8617    0.0000 </r>
       <r>    4.6094    0.0000 </r>
       <r>    6.1745    0.0000 </r>
       <r>    7.0194    0.0000 </r>
       <r>    7.3657    0.0000 </r>
       <r>    7.6472    0.0000 </r>
       <r>    7.8657    0.0000 </r>
       <r>    8.4702    0.0000 </r>
       <r>    8.7764    0.0000 </r>
       <r>    9.6452    0.0000 </r>
       <r>    9.9247    0.0000 </r>
       <r>   10.0642    0.0000 </r>
       <r>   10.7399    0.0000 </r>
       <r>   11.2421    0.0000 </r>
       <r>   11.4508    0.0000 </r>
       <r>   11.6855    0.0000 </r>
       <r>   11.6939    0.0000 </r>
       <r>   11.9129    0.0000 </r>
       <r>   12.3987    0.0000 </r>
       <r>   12.8689    0.0000 </r>
      </set>
     </set>
    </set>
   </array>
  </eigenvalues>
  <separator name="orbital magnetization" >
   <v name="MAGDIPOLOUT">      0.00000000      0.00000000      0.00000000</v>
  </separator>
  <dos>
   <i name="efermi">     -3.47958214 </i>
   <total>
    <array>
     <dimension dim="1">gridpoints</dimension>
     <dimension dim="2">spin</dimension>
     <field>energy</field>
     <field>total</field>
     <field>integrated</field>
     <set>
      <set comment="spin 1">
       <r>   -24.5793     0.0000     0.0000 </r>
       <r>   -24.4369     0.0000     0.0000 </r>
       <r>   -24.2944     0.0000     0.0000 </r>
       <r>   -24.1520     0.0000     0.0000 </r>
       <r>   -24.0095     0.0000     0.0000 </r>
       <r>   -23.8671     0.0000     0.0000 </r>
       <r>   -23.7246     0.0000     0.0000 </r>
       <r>   -23.5822     0.0000     0.0000 </r>
       <r>   -23.4397     0.0000     0.0000 </r>
       <r>   -23.2973     0.0000     0.0000 </r>
       <r>   -23.1548     0.0000     0.0000 </r>
       <r>   -23.0124     0.0000     0.0000 </r>
       <r>   -22.8700     0.0000     0.0000 </r>
       <r>   -22.7275     0.0010     0.0001 </r>
       <r>   -22.5851     0.2187     0.0313 </r>
       <r>   -22.4426     0.1996     0.0597 </r>
       <r>   -22.3002     0.4777     0.1278 </r>
       <r>   -22.1577     0.2271     0.1601 </r>
       <r>   -22.0153     0.2412     0.1945 </r>
       <r>   -21.8728     0.3443     0.2435 </r>
       <r>   -21.7304     0.4376     0.3059 </r>
       <r>   -21.5879     0.2675     0.3440 </r>
       <r>   -21.4455     0.2074     0.3735 </r>
       <r>   -21.3031     0.3027     0.4166 </r>
       <r>   -21.1606     0.2713     0.4553 </r>
       <r>   -21.0182     0.5093     0.5278 </r>
       <r>   -20.8757     0.3634     0.5796 </r>
       <r>   -20.7333     0.1120     0.5956 </r>
       <r>   -20.5908     0.4982     0.6665 </r>
       <r>   -20.4484     0.0152     0.6687 </r>
       <r>   -20.3059     0.3683     0.7212 </r>
       <r>   -20.1635     0.4848     0.7902 </r>
       <r>   -20.0210     0.3600     0.8415 </r>
       <r>   -19.8786     0.3320     0.8888 </r>
       <r>   -19.7362     0.2323     0.9219 </r>
       <r>   -19.5937     0.3575     0.9728 </r>
       <r>   -19.4513     0.4260     1.0335 </r>
       <r>   -19.3088     0.1549     1.0556 </r>
       <r>   -19.1664     0.0041     1.0561 </r>
       <r>   -19.0239     0.5778     1.1384 </r>
       <r>   -18.8815     0.6443     1.2302 </r>
       <r>   -18.7390     0.3057     1.2737 </r>
       <r>   -18.5966     0.2157     1.3045 </r>
       <r>   -18.4541     0.2069     1.3340 </r>
       <r>   -18.3117     0.5412     1.4110 </r>
       <r>   -18.1693     0.2439     1.4458 </r>
       <r>   -18.0268     0.3269     1.4923 </r>
       <r>   -17.8844     0.2438     1.5271 </r>
       <r>   -17.7419     0.1540     1.5490 </r>
       <r>   -17.5995     0.6913     1.6475 </r>
       <r>   -17.4570     0.7689     1.7570 </r>
       <r>   -17.3146     0.3727     1.8101 </r>
       <r>   -17.1721     0.1632     1.8333 </r>
       <r>   -17.0297     0.0996     1.8475 </r>
       <r>   -16.8873     0.4287     1.9086 </r>
       <r>   -16.7448     0.0567     1.9167 </r>
       <r>   -16.6024     0.0010     1.9168 </r>
       <r>   -16.4599     0.1979     1.9450 </r>
       <r>   -16.3175     0.2608     1.9821 </r>
       <r>   -16.1750     0.6025     2.0680 </r>
       <r>   -16.0326     0.1776     2.0933 </r>
       <r>   -15.8901     0.3362     2.1411 </r>
       <r>   -15.7477     0.1793     2.1667 </r>
       <r>   -15.6052     0.4492     2.2307 </r>
       <r>   -15.4628     0.4113     2.2893 </r>
       <r>   -15.3204     0.7579     2.3972 </r>
       <r>   -15.1779     0.3452     2.4464 </r>
       <r>   -15.0355     0.1809     2.4722 </r>
       <r>   -14.8930     0.1538     2.4941 </r>
       <r>   -14.7506     0.8000     2.6080 </r>
       <r>   -14.6081     0.0215     2.6111 </r>
       <r>   -14.4657     0.0859     2.6233 </r>
       <r>   -14.3232     0.5206     2.6975 </r>
       <r>   -14.1808     0.5070     2.7697 </r>
       <r>   -14.0383     0.1916     2.7970 </r>
       <r>   -13.8959     0.3159     2.8420 </r>
       <r>   -13.7535     0.1370     2.8615 </r>
       <r>   -13.6110     0.2264     2.8938 </r>
       <r>   -13.4686     0.3315     2.9410 </r>
       <r>   -13.3261     0.4513     3.0053 </r>
       <r>   -13.1837     0.5613     3.0852 </r>
       <r>   -13.0412     0.5713     3.1666 </r>
       <r>   -12.8988     0.1224     3.1840 </r>
       <r>   -12.7563     0.2716     3.2227 </r>
       <r>   -12.6139     0.2913     3.2642 </r>
       <r>   -12.4714     0.2981     3.3067 </r>
       <r>   -12.3290     0.2639     3.3443 </r>
       <r>   -12.1866     0.6159     3.4320 </r>
       <r>   -12.0441     0.6530     3.5250 </r>
       <r>   -11.9017     0.2698     3.5635 </r>
       <r>   -11.7592     0.4570     3.6286 </r>
       <r>   -11.6168     0.4617     3.6943 </r>
       <r>   -11.4743     0.1014     3.7088 </r>
       <r>   -11.3319     0.6082     3.7954 </r>
       <r>   -11.1894     0.4261     3.8561 </r>
       <r>   -11.0470     0.4547     3.9209 </r>
       <r>   -10.9045     0.4240     3.9813 </r>
       <r>   -10.7621     0.3081     4.0252 </r>
       <r>   -10.6197     0.8226     4.1423 </r>
       <r>   -10.4772     0.7326     4.2467 </r>
       <r>   -10.3348     0.6720     4.3424 </r>
       <r>   -10.1923     0.9310     4.4750 </r>
       <r>   -10.0499     1.1471     4.6384 </r>
       <r>    -9.9074     0.6611     4.7326 </r>
       <r>    -9.7650     1.0551     4.8829 </r>
       <r>    -9.6225     0.5768     4.9651 </r>
       <r>    -9.4801     1.3783     5.1614 </r>
       <r>    -9.3376     1.0307     5.3082 </r>
       <r>    -9.1952     0.7613     5.4166 </r>
       <r>    -9.0528     0.4732     5.4841 </r>
       <r>    -8.9103     1.0714     5.6367 </r>
       <r>    -8.7679     0.6981     5.7361 </r>
       <r>    -8.6254     1.2996     5.9212 </r>
       <r>    -8.4830     0.3609     5.9727 </r>
       <r>    -8.3405     0.6405     6.0639 </r>
       <r>    -8.1981     0.3234     6.1100 </r>
       <r>    -8.0556     0.7030     6.2101 </r>
       <r>    -7.9132     0.4326     6.2717 </r>
       <r>    -7.7707     0.8729     6.3961 </r>
       <r>    -7.6283     0.9740     6.5348 </r>
       <r>    -7.4859     0.3544     6.5853 </r>
       <r>    -7.3434     0.4629     6.6512 </r>
       <r>    -7.2010     0.7439     6.7572 </r>
       <r>    -7.0585     0.6467     6.8493 </r>
       <r>    -6.9161     0.2467     6.8845 </r>
       <r>    -6.7736     0.3779     6.9383 </r>
       <r>    -6.6312     0.6704     7.0338 </r>
       <r>    -6.4887     0.7940     7.1469 </r>
       <r>    -6.3463     0.6725     7.2427 </r>
       <r>    -6.2038     0.5372     7.3192 </r>
       <r>    -6.0614     0.2045     7.3483 </r>
       <r>    -5.9190     0.3180     7.3936 </r>
       <r>    -5.7765     0.5400     7.4705 </r>
       <r>    -5.6341     0.4473     7.5342 </r>
       <r>    -5.4916     0.2546     7.5705 </r>
       <r>    -5.3492     0.2869     7.6114 </r>
       <r>    -5.2067     0.7645     7.7203 </r>
       <r>    -5.0643     0.7858     7.8322 </r>
       <r>    -4.9218     0.0078     7.8333 </r>
       <r>    -4.7794     0.0102     7.8348 </r>
       <r>    -4.6370     0.2664     7.8727 </r>
       <r>    -4.4945     0.1631     7.8960 </r>
       <r>    -4.3521     0.1451     7.9167 </r>
       <r>    -4.2096     0.0639     7.9258 </r>
       <r>    -4.0672     0.1311     7.9444 </r>
       <r>    -3.9247     0.0462     7.9510 </r>
       <r>    -3.7823     0.2646     7.9887 </r>
       <r>    -3.6398     0.0792     8.0000 </r>
       <r>    -3.4974     0.0000     8.0000 </r>
       <r>    -3.3549     0.0000     8.0000 </r>
       <r>    -3.2125     0.0000     8.0000 </r>
       <r>    -3.0701     0.0000     8.0000 </r>
       <r>    -2.9276     0.0000     8.0000 </r>
       <r>    -2.7852     0.0000     8.0000 </r>
       <r>    -2.6427     0.0013     8.0002 </r>
       <r>    -2.5003     0.2220     8.0318 </r>
       <r>    -2.3578     0.1666     8.0555 </r>
       <r>    -2.2154     0.1124     8.0715 </r>
       <r>    -2.0729     0.0828     8.0833 </r>
       <r>    -1.9305     0.0226     8.0866 </r>
       <r>    -1.7880     0.5242     8.1612 </r>
       <r>    -1.6456     0.0384     8.1667 </r>
       <r>    -1.5032     0.4304     8.2280 </r>
       <r>    -1.3607     0.8612     8.3507 </r>
       <r>    -1.2183     0.4801     8.4191 </r>
       <r>    -1.0758     0.5593     8.4988 </r>
       <r>    -0.9334     0.2503     8.5344 </r>
       <r>    -0.7909     0.5008     8.6057 </r>
       <r>    -0.6485     0.0377     8.6111 </r>
       <r>    -0.5060     0.0429     8.6172 </r>
       <r>    -0.3636     0.7273     8.7208 </r>
       <r>    -0.2211     0.0099     8.7222 </r>
       <r>    -0.0787     0.1182     8.7391 </r>
       <r>     0.0637     0.4494     8.8031 </r>
       <r>     0.2062     0.4353     8.8651 </r>
       <r>     0.3486     0.5491     8.9433 </r>
       <r>     0.4911     0.5665     9.0240 </r>
       <r>     0.6335     0.5329     9.0999 </r>
       <r>     0.7760     0.1244     9.1176 </r>
       <r>     0.9184     0.5341     9.1937 </r>
       <r>     1.0609     0.5711     9.2750 </r>
       <r>     1.2033     0.9812     9.4148 </r>
       <r>     1.3458     1.1149     9.5736 </r>
       <r>     1.4882     0.7326     9.6780 </r>
       <r>     1.6306     1.3853     9.8753 </r>
       <r>     1.7731     0.7239     9.9784 </r>
       <r>     1.9155     1.3534    10.1712 </r>
       <r>     2.0580     1.3301    10.3607 </r>
       <r>     2.2004     1.5581    10.5826 </r>
       <r>     2.3429     2.0425    10.8736 </r>
       <r>     2.4853     1.1379    11.0357 </r>
       <r>     2.6278     1.4719    11.2453 </r>
       <r>     2.7702     1.4338    11.4496 </r>
       <r>     2.9127     1.8988    11.7200 </r>
       <r>     3.0551     1.8283    11.9805 </r>
       <r>     3.1975     1.4626    12.1888 </r>
       <r>     3.3400     1.7574    12.4391 </r>
       <r>     3.4824     1.4092    12.6399 </r>
       <r>     3.6249     2.3739    12.9780 </r>
       <r>     3.7673     1.9287    13.2527 </r>
       <r>     3.9098     2.4295    13.5988 </r>
       <r>     4.0522     1.7725    13.8513 </r>
       <r>     4.1947     2.2758    14.1755 </r>
       <r>     4.3371     2.7661    14.5695 </r>
       <r>     4.4796     2.2708    14.8930 </r>
       <r>     4.6220     2.8032    15.2923 </r>
       <r>     4.7644     2.9949    15.7189 </r>
       <r>     4.9069     1.8497    15.9823 </r>
       <r>     5.0493     3.8581    16.5319 </r>
       <r>     5.1918     3.1337    16.9783 </r>
       <r>     5.3342     4.2000    17.5766 </r>
       <r>     5.4767     2.4234    17.9218 </r>
       <r>     5.6191     3.1770    18.3743 </r>
       <r>     5.7616     2.8913    18.7862 </r>
       <r>     5.9040     3.3683    19.2660 </r>
       <r>     6.0465     3.4489    19.7572 </r>
       <r>     6.1889     3.0947    20.1981 </r>
       <r>     6.3313     3.7769    20.7361 </r>
       <r>     6.4738     1.8340    20.9973 </r>
       <r>     6.6162     2.6899    21.3805 </r>
       <r>     6.7587     3.7530    21.9151 </r>
       <r>     6.9011     2.6984    22.2995 </r>
       <r>     7.0436     3.0864    22.7391 </r>
       <r>     7.1860     2.8311    23.1424 </r>
       <r>     7.3285     3.3508    23.6197 </r>
       <r>     7.4709     3.5321    24.1228 </r>
       <r>     7.6133     3.7063    24.6508 </r>
       <r>     7.7558     4.1669    25.2443 </r>
       <r>     7.8982     3.3702    25.7244 </r>
       <r>     8.0407     3.4068    26.2097 </r>
       <r>     8.1831     3.0040    26.6376 </r>
       <r>     8.3256     3.9811    27.2047 </r>
       <r>     8.4680     2.8214    27.6066 </r>
       <r>     8.6105     2.7670    28.0007 </r>
       <r>     8.7529     3.2221    28.4597 </r>
       <r>     8.8954     3.4008    28.9441 </r>
       <r>     9.0378     3.7260    29.4748 </r>
       <r>     9.1802     4.7131    30.1462 </r>
       <r>     9.3227     3.5769    30.6557 </r>
       <r>     9.4651     3.2353    31.1166 </r>
       <r>     9.6076     2.8788    31.5266 </r>
       <r>     9.7500     4.6285    32.1860 </r>
       <r>     9.8925     3.5304    32.6888 </r>
       <r>    10.0349     4.3624    33.3102 </r>
       <r>    10.1774     4.5579    33.9595 </r>
       <r>    10.3198     3.7368    34.4918 </r>
       <r>    10.4623     3.6939    35.0180 </r>
       <r>    10.6047     2.3882    35.3582 </r>
       <r>    10.7471     4.3256    35.9743 </r>
       <r>    10.8896     3.5352    36.4779 </r>
       <r>    11.0320     4.7613    37.1561 </r>
       <r>    11.1745     4.9701    37.8641 </r>
       <r>    11.3169     3.4075    38.3495 </r>
       <r>    11.4594     3.9516    38.9124 </r>
       <r>    11.6018     3.3676    39.3920 </r>
       <r>    11.7443     3.2362    39.8530 </r>
       <r>    11.8867     3.1695    40.3045 </r>
       <r>    12.0292     3.7659    40.8410 </r>
       <r>    12.1716     4.5058    41.4828 </r>
       <r>    12.3140     2.6797    41.8645 </r>
       <r>    12.4565     3.7056    42.3923 </r>
       <r>    12.5989     4.5130    43.0352 </r>
       <r>    12.7414     3.9680    43.6004 </r>
       <r>    12.8838     2.7795    43.9963 </r>
       <r>    13.0263     3.5634    44.5039 </r>
       <r>    13.1687     2.0141    44.7908 </r>
       <r>    13.3112     3.1019    45.2327 </r>
       <r>    13.4536     2.9472    45.6525 </r>
       <r>    13.5961     1.6115    45.8821 </r>
       <r>    13.7385     2.6649    46.2617 </r>
       <r>    13.8809     2.1315    46.5653 </r>
       <r>    14.0234     3.0389    46.9982 </r>
       <r>    14.1658     1.6133    47.2280 </r>
       <r>    14.3083     1.2792    47.4102 </r>
       <r>    14.4507     1.3990    47.6094 </r>
       <r>    14.5932     0.3640    47.6613 </r>
       <r>    14.7356     0.2928    47.7030 </r>
       <r>    14.8781     0.7662    47.8121 </r>
       <r>    15.0205     0.4442    47.8754 </r>
       <r>    15.1630     0.0946    47.8889 </r>
       <r>    15.3054     0.0000    47.8889 </r>
       <r>    15.4478     0.0225    47.8921 </r>
       <r>    15.5903     0.2365    47.9258 </r>
       <r>    15.7327     0.3254    47.9721 </r>
       <r>    15.8752     0.0007    47.9722 </r>
       <r>    16.0176     0.0000    47.9722 </r>
       <r>    16.1601     0.0139    47.9742 </r>
       <r>    16.3025     0.1801    47.9999 </r>
       <r>    16.4450     0.0010    48.0000 </r>
       <r>    16.5874     0.0000    48.0000 </r>
       <r>    16.7299     0.0000    48.0000 </r>
       <r>    16.8723     0.0000    48.0000 </r>
       <r>    17.0147     0.0000    48.0000 </r>
       <r>    17.1572     0.0000    48.0000 </r>
       <r>    17.2996     0.0000    48.0000 </r>
       <r>    17.4421     0.0000    48.0000 </r>
       <r>    17.5845     0.0000    48.0000 </r>
       <r>    17.7270     0.0000    48.0000 </r>
       <r>    17.8694     0.0000    48.0000 </r>
       <r>    18.0119     0.0000    48.0000 </r>
       <r>    18.1543     0.0000    48.0000 </r>
      </set>
     </set>
    </array>
   </total>
  </dos>
 </calculation>
 <structure name="finalpos" >
  <crystal>
   <varray name="basis" >
    <v>       1.22351834      -2.13154342       0.00000000 </v>
    <v>       1.24489548       2.14388549       0.00000000 </v>
    <v>       0.00000000       0.00000000      30.28239374 </v>
   </varray>
   <i name="volume">    159.78904778 </i>
   <varray name="rec_basis" >
    <v>       0.40629809      -0.23592615       0.00000000 </v>
    <v>       0.40395908       0.23187487       0.00000000 </v>
    <v>       0.00000000       0.00000000       0.03302249 </v>
   </varray>
  </crystal>
  <varray name="positions" >
   <v>      -0.00043711       0.99952079       0.50000000 </v>
   <v>       0.66710711       0.33380921       0.50000000 </v>
  </varray>
 </structure>
</modeling>
