   4   4   0   0
  0.2104829E+02  0.4382874E-09  0.4382873E-09  0.4382873E-09  0.2000000E-15
  1.000000000000000E-004
  CAR 
 unknown system                          
     15.64520696     -2.49197612  301      6.35107987      1.00000000
     -2.492  0.0000E+00  0.0000E+00
     -2.432  0.0000E+00  0.0000E+00
     -2.371  0.0000E+00  0.0000E+00
     -2.311  0.0000E+00  0.0000E+00
     -2.250  0.0000E+00  0.0000E+00
     -2.190  0.0000E+00  0.0000E+00
     -2.129  0.0000E+00  0.0000E+00
     -2.069  0.1632E-19  0.9869E-21
     -2.008  0.1461E-16  0.8842E-18
     -1.948  0.6083E-14  0.3687E-15
     -1.887  0.1263E-11  0.7675E-13
     -1.827  0.1329E-09  0.8112E-11
     -1.766  0.7228E-08  0.4451E-09
     -1.706  0.2084E-06  0.1305E-07
     -1.646  0.3281E-05  0.2114E-06
     -1.585  0.2901E-04  0.1965E-05
     -1.525  0.1482E-03  0.1092E-04
     -1.464  0.4531E-03  0.3831E-04
     -1.404  0.8960E-03  0.9249E-04
     -1.343  0.1352E-02  0.1743E-03
     -1.283  0.1810E-02  0.2837E-03
     -1.222  0.2089E-02  0.4100E-03
     -1.162  0.2218E-02  0.5441E-03
     -1.101  0.2601E-02  0.7014E-03
     -1.041  0.3001E-02  0.8828E-03
     -0.981  0.3149E-02  0.1073E-02
     -0.920  0.3255E-02  0.1270E-02
     -0.860  0.3269E-02  0.1468E-02
     -0.799  0.3543E-02  0.1682E-02
     -0.739  0.4228E-02  0.1937E-02
     -0.678  0.4624E-02  0.2217E-02
     -0.618  0.4479E-02  0.2488E-02
     -0.557  0.4009E-02  0.2730E-02
     -0.497  0.4177E-02  0.2983E-02
     -0.436  0.5263E-02  0.3301E-02
     -0.376  0.5972E-02  0.3662E-02
     -0.316  0.5843E-02  0.4015E-02
     -0.255  0.5507E-02  0.4348E-02
     -0.195  0.5665E-02  0.4691E-02
     -0.134  0.6216E-02  0.5066E-02
     -0.074  0.6470E-02  0.5458E-02
     -0.013  0.6598E-02  0.5856E-02
      0.047  0.7220E-02  0.6293E-02
      0.108  0.8329E-02  0.6797E-02
      0.168  0.8754E-02  0.7326E-02
      0.229  0.8297E-02  0.7827E-02
      0.289  0.7944E-02  0.8308E-02
      0.350  0.8383E-02  0.8814E-02
      0.410  0.1038E-01  0.9442E-02
      0.470  0.1268E-01  0.1021E-01
      0.531  0.1293E-01  0.1099E-01
      0.591  0.1271E-01  0.1176E-01
      0.652  0.1590E-01  0.1272E-01
      0.712  0.2177E-01  0.1404E-01
      0.773  0.2743E-01  0.1569E-01
      0.833  0.3108E-01  0.1757E-01
      0.894  0.3213E-01  0.1952E-01
      0.954  0.3448E-01  0.2160E-01
      1.015  0.4076E-01  0.2406E-01
      1.075  0.4815E-01  0.2698E-01
      1.135  0.5590E-01  0.3036E-01
      1.196  0.6565E-01  0.3432E-01
      1.256  0.7726E-01  0.3900E-01
      1.317  0.8752E-01  0.4429E-01
      1.377  0.9504E-01  0.5003E-01
      1.438  0.9845E-01  0.5599E-01
      1.498  0.9735E-01  0.6187E-01
      1.559  0.9481E-01  0.6760E-01
      1.619  0.9074E-01  0.7309E-01
      1.680  0.8772E-01  0.7839E-01
      1.740  0.8553E-01  0.8356E-01
      1.800  0.8176E-01  0.8851E-01
      1.861  0.7701E-01  0.9316E-01
      1.921  0.7108E-01  0.9746E-01
      1.982  0.6901E-01  0.1016E+00
      2.042  0.7346E-01  0.1061E+00
      2.103  0.8234E-01  0.1110E+00
      2.163  0.9435E-01  0.1168E+00
      2.224  0.1066E+00  0.1232E+00
      2.284  0.1146E+00  0.1301E+00
      2.345  0.1159E+00  0.1371E+00
      2.405  0.1146E+00  0.1441E+00
      2.466  0.1158E+00  0.1511E+00
      2.526  0.1175E+00  0.1582E+00
      2.586  0.1187E+00  0.1653E+00
      2.647  0.1235E+00  0.1728E+00
      2.707  0.1354E+00  0.1810E+00
      2.768  0.1553E+00  0.1904E+00
      2.828  0.1752E+00  0.2010E+00
      2.889  0.1782E+00  0.2118E+00
      2.949  0.1591E+00  0.2214E+00
      3.010  0.1321E+00  0.2294E+00
      3.070  0.1121E+00  0.2361E+00
      3.131  0.1025E+00  0.2423E+00
      3.191  0.9933E-01  0.2483E+00
      3.251  0.9680E-01  0.2542E+00
      3.312  0.9565E-01  0.2600E+00
      3.372  0.1003E+00  0.2660E+00
      3.433  0.1094E+00  0.2727E+00
      3.493  0.1176E+00  0.2798E+00
      3.554  0.1234E+00  0.2872E+00
      3.614  0.1270E+00  0.2949E+00
      3.675  0.1245E+00  0.3024E+00
      3.735  0.1164E+00  0.3095E+00
      3.796  0.1092E+00  0.3161E+00
      3.856  0.1063E+00  0.3225E+00
      3.916  0.1041E+00  0.3288E+00
      3.977  0.9970E-01  0.3348E+00
      4.037  0.9674E-01  0.3407E+00
      4.098  0.9792E-01  0.3466E+00
      4.158  0.1005E+00  0.3527E+00
      4.219  0.1064E+00  0.3591E+00
      4.279  0.1167E+00  0.3661E+00
      4.340  0.1286E+00  0.3739E+00
      4.400  0.1454E+00  0.3827E+00
      4.461  0.1601E+00  0.3924E+00
      4.521  0.1528E+00  0.4016E+00
      4.582  0.1219E+00  0.4090E+00
      4.642  0.8335E-01  0.4140E+00
      4.702  0.5196E-01  0.4172E+00
      4.763  0.3223E-01  0.4191E+00
      4.823  0.2304E-01  0.4205E+00
      4.884  0.1782E-01  0.4216E+00
      4.944  0.1228E-01  0.4223E+00
      5.005  0.9501E-02  0.4229E+00
      5.065  0.1113E-01  0.4236E+00
      5.126  0.1512E-01  0.4245E+00
      5.186  0.1736E-01  0.4255E+00
      5.247  0.1470E-01  0.4264E+00
      5.307  0.1011E-01  0.4270E+00
      5.367  0.7884E-02  0.4275E+00
      5.428  0.9369E-02  0.4281E+00
      5.488  0.1383E-01  0.4289E+00
      5.549  0.1705E-01  0.4299E+00
      5.609  0.1583E-01  0.4309E+00
      5.670  0.1274E-01  0.4317E+00
      5.730  0.1033E-01  0.4323E+00
      5.791  0.8975E-02  0.4328E+00
      5.851  0.1013E-01  0.4335E+00
      5.912  0.1342E-01  0.4343E+00
      5.972  0.1550E-01  0.4352E+00
      6.032  0.1477E-01  0.4361E+00
      6.093  0.1322E-01  0.4369E+00
      6.153  0.1216E-01  0.4376E+00
      6.214  0.1126E-01  0.4383E+00
      6.274  0.1146E-01  0.4390E+00
      6.335  0.1278E-01  0.4398E+00
      6.395  0.1390E-01  0.4406E+00
      6.456  0.1352E-01  0.4414E+00
      6.516  0.1245E-01  0.4422E+00
      6.577  0.1222E-01  0.4429E+00
      6.637  0.1261E-01  0.4437E+00
      6.698  0.1309E-01  0.4445E+00
      6.758  0.1332E-01  0.4453E+00
      6.818  0.1358E-01  0.4461E+00
      6.879  0.1408E-01  0.4470E+00
      6.939  0.1398E-01  0.4478E+00
      7.000  0.1252E-01  0.4486E+00
      7.060  0.1154E-01  0.4493E+00
      7.121  0.1195E-01  0.4500E+00
      7.181  0.1235E-01  0.4507E+00
      7.242  0.1274E-01  0.4515E+00
      7.302  0.1315E-01  0.4523E+00
      7.363  0.1253E-01  0.4530E+00
      7.423  0.1169E-01  0.4538E+00
      7.483  0.1262E-01  0.4545E+00
      7.544  0.1456E-01  0.4554E+00
      7.604  0.1489E-01  0.4563E+00
      7.665  0.1274E-01  0.4571E+00
      7.725  0.1077E-01  0.4577E+00
      7.786  0.1064E-01  0.4584E+00
      7.846  0.1122E-01  0.4590E+00
      7.907  0.1258E-01  0.4598E+00
      7.967  0.1504E-01  0.4607E+00
      8.028  0.1632E-01  0.4617E+00
      8.088  0.1391E-01  0.4625E+00
      8.149  0.1033E-01  0.4632E+00
      8.209  0.9335E-02  0.4637E+00
      8.269  0.1100E-01  0.4644E+00
      8.330  0.1417E-01  0.4652E+00
      8.390  0.1709E-01  0.4663E+00
      8.451  0.1917E-01  0.4674E+00
      8.511  0.2015E-01  0.4687E+00
      8.572  0.1894E-01  0.4698E+00
      8.632  0.1701E-01  0.4708E+00
      8.693  0.1644E-01  0.4718E+00
      8.753  0.1643E-01  0.4728E+00
      8.814  0.1638E-01  0.4738E+00
      8.874  0.1699E-01  0.4748E+00
      8.934  0.1658E-01  0.4758E+00
      8.995  0.1523E-01  0.4768E+00
      9.055  0.1423E-01  0.4776E+00
      9.116  0.1247E-01  0.4784E+00
      9.176  0.1179E-01  0.4791E+00
      9.237  0.1456E-01  0.4800E+00
      9.297  0.1722E-01  0.4810E+00
      9.358  0.1584E-01  0.4820E+00
      9.418  0.1193E-01  0.4827E+00
      9.479  0.9475E-02  0.4833E+00
      9.539  0.9653E-02  0.4838E+00
      9.599  0.1064E-01  0.4845E+00
      9.660  0.1129E-01  0.4852E+00
      9.720  0.1162E-01  0.4859E+00
      9.781  0.1149E-01  0.4866E+00
      9.841  0.1024E-01  0.4872E+00
      9.902  0.8766E-02  0.4877E+00
      9.962  0.8620E-02  0.4882E+00
     10.023  0.9386E-02  0.4888E+00
     10.083  0.1045E-01  0.4894E+00
     10.144  0.1149E-01  0.4901E+00
     10.204  0.1236E-01  0.4909E+00
     10.265  0.1341E-01  0.4917E+00
     10.325  0.1470E-01  0.4926E+00
     10.385  0.1441E-01  0.4934E+00
     10.446  0.1209E-01  0.4942E+00
     10.506  0.1093E-01  0.4948E+00
     10.567  0.1255E-01  0.4956E+00
     10.627  0.1458E-01  0.4965E+00
     10.688  0.1524E-01  0.4974E+00
     10.748  0.1560E-01  0.4983E+00
     10.809  0.1572E-01  0.4993E+00
     10.869  0.1538E-01  0.5002E+00
     10.930  0.1750E-01  0.5013E+00
     10.990  0.2079E-01  0.5025E+00
     11.050  0.2064E-01  0.5038E+00
     11.111  0.1804E-01  0.5049E+00
     11.171  0.1602E-01  0.5058E+00
     11.232  0.1541E-01  0.5068E+00
     11.292  0.1470E-01  0.5077E+00
     11.353  0.1355E-01  0.5085E+00
     11.413  0.1318E-01  0.5093E+00
     11.474  0.1227E-01  0.5100E+00
     11.534  0.1072E-01  0.5107E+00
     11.595  0.1071E-01  0.5113E+00
     11.655  0.1214E-01  0.5121E+00
     11.715  0.1320E-01  0.5129E+00
     11.776  0.1406E-01  0.5137E+00
     11.836  0.1515E-01  0.5146E+00
     11.897  0.1552E-01  0.5156E+00
     11.957  0.1394E-01  0.5164E+00
     12.018  0.1093E-01  0.5171E+00
     12.078  0.9480E-02  0.5176E+00
     12.139  0.1129E-01  0.5183E+00
     12.199  0.1405E-01  0.5192E+00
     12.260  0.1426E-01  0.5200E+00
     12.320  0.1289E-01  0.5208E+00
     12.381  0.1252E-01  0.5216E+00
     12.441  0.1219E-01  0.5223E+00
     12.501  0.1084E-01  0.5230E+00
     12.562  0.1074E-01  0.5236E+00
     12.622  0.1245E-01  0.5244E+00
     12.683  0.1271E-01  0.5251E+00
     12.743  0.1093E-01  0.5258E+00
     12.804  0.9830E-02  0.5264E+00
     12.864  0.1075E-01  0.5270E+00
     12.925  0.1139E-01  0.5277E+00
     12.985  0.9344E-02  0.5283E+00
     13.046  0.7804E-02  0.5288E+00
     13.106  0.1051E-01  0.5294E+00
     13.166  0.1566E-01  0.5303E+00
     13.227  0.1930E-01  0.5315E+00
     13.287  0.1855E-01  0.5326E+00
     13.348  0.1397E-01  0.5335E+00
     13.408  0.1024E-01  0.5341E+00
     13.469  0.9170E-02  0.5346E+00
     13.529  0.8778E-02  0.5352E+00
     13.590  0.7795E-02  0.5356E+00
     13.650  0.6414E-02  0.5360E+00
     13.711  0.6573E-02  0.5364E+00
     13.771  0.8699E-02  0.5370E+00
     13.831  0.9042E-02  0.5375E+00
     13.892  0.6166E-02  0.5379E+00
     13.952  0.3356E-02  0.5381E+00
     14.013  0.2554E-02  0.5382E+00
     14.073  0.2969E-02  0.5384E+00
     14.134  0.3145E-02  0.5386E+00
     14.194  0.3202E-02  0.5388E+00
     14.255  0.3661E-02  0.5390E+00
     14.315  0.3801E-02  0.5393E+00
     14.376  0.3300E-02  0.5395E+00
     14.436  0.2493E-02  0.5396E+00
     14.497  0.1649E-02  0.5397E+00
     14.557  0.1391E-02  0.5398E+00
     14.617  0.1595E-02  0.5399E+00
     14.678  0.1270E-02  0.5400E+00
     14.738  0.5462E-03  0.5400E+00
     14.799  0.1225E-03  0.5400E+00
     14.859  0.1431E-04  0.5400E+00
     14.920  0.8733E-06  0.5400E+00
     14.980  0.2785E-07  0.5400E+00
     15.041  0.4627E-09  0.5400E+00
     15.101  0.3974E-11  0.5400E+00
     15.162  0.1747E-13  0.5400E+00
     15.222  0.3891E-16  0.5400E+00
     15.282  0.4353E-19  0.5400E+00
     15.343  0.0000E+00  0.5400E+00
     15.403  0.0000E+00  0.5400E+00
     15.464  0.0000E+00  0.5400E+00
     15.524  0.0000E+00  0.5400E+00
     15.585  0.0000E+00  0.5400E+00
     15.645  0.0000E+00  0.5400E+00
