 running on   24 total cores
 distrk:  each k-point on   24 cores,    1 groups
 distr:  one band on    8 cores,    3 groups
 using from now: INCAR     
 vasp.5.4.4.18Apr17-6-g9f103f2a35 (build Jan 14 2019 14:48:31) complex          
  
 POSCAR found type information on POSCAR  Au
 POSCAR found :  1 types and       4 ions
 scaLAPACK will be used
 LDA part: xc-table for Pade appr. of Perdew
 POSCAR found type information on POSCAR  Au
 POSCAR found :  1 types and       4 ions
 POSCAR, INCAR and KPOINTS ok, starting setup
 FFT: planning ...
 WAVECAR not read
 entering main loop
       N       E                     dE             d eps       ncg     rms          rms(c)
DAV:   1     0.261467427415E+03    0.26147E+03   -0.22060E+04 91944   0.149E+03
DAV:   2    -0.808642696499E+01   -0.26955E+03   -0.26072E+03106614   0.310E+02
DAV:   3    -0.131449520019E+02   -0.50585E+01   -0.50137E+01102033   0.437E+01
DAV:   4    -0.131787491676E+02   -0.33797E-01   -0.33779E-01103518   0.379E+00
DAV:   5    -0.131791105551E+02   -0.36139E-03   -0.36136E-03106794   0.402E-01    0.991E+00
RMM:   6    -0.122764586469E+02    0.90265E+00   -0.27627E+00 91172   0.105E+01    0.715E+00
RMM:   7    -0.122496926585E+02    0.26766E-01   -0.17039E-01 91302   0.241E+00    0.424E+00
RMM:   8    -0.122465442075E+02    0.31485E-02   -0.71825E-03 91190   0.571E-01    0.452E-01
RMM:   9    -0.122462844902E+02    0.25972E-03   -0.76760E-04 91212   0.164E-01    0.535E-02
RMM:  10    -0.122463154598E+02   -0.30970E-04   -0.66940E-05 91165   0.560E-02    0.544E-03
RMM:  11    -0.122463155040E+02   -0.44255E-07   -0.25894E-06 52846   0.906E-03
   1 F= -.12246316E+02 E0= -.12242864E+02  d E =-.122463E+02
 curvature:   0.00 expect dE= 0.000E+00 dE for cont linesearch  0.000E+00
 trial: gam= 0.00000 g(F)=  0.164E-13 g(S)=  0.000E+00 ort = 0.000E+00 (trialstep = 0.100E+01)
 search vector abs. value=  0.100E-09
 reached required accuracy - stopping structural energy minimisation
