   4   4   0   0
  0.1573637E+02  0.3725534E-09  0.4179441E-09  0.4154382E-09  0.2000000E-15
  1.000000000000000E-004
  CAR 
 unknown system                          
     24.60191585     -1.08176789  301     10.88661728      1.00000000
     -1.082  0.0000E+00  0.0000E+00
     -0.996  0.0000E+00  0.0000E+00
     -0.911  0.0000E+00  0.0000E+00
     -0.825  0.0000E+00  0.0000E+00
     -0.739  0.0000E+00  0.0000E+00
     -0.654  0.0000E+00  0.0000E+00
     -0.568  0.0000E+00  0.0000E+00
     -0.482  0.3074E-19  0.2632E-20
     -0.397  0.3123E-15  0.2674E-16
     -0.311  0.7202E-12  0.6168E-13
     -0.226  0.4146E-09  0.3556E-10
     -0.140  0.6365E-07  0.5485E-08
     -0.054  0.2918E-05  0.2553E-06
      0.031  0.4596E-04  0.4190E-05
      0.117  0.2763E-03  0.2785E-04
      0.202  0.7046E-03  0.8817E-04
      0.288  0.1097E-02  0.1821E-03
      0.374  0.1511E-02  0.3114E-03
      0.459  0.1657E-02  0.4533E-03
      0.545  0.1930E-02  0.6185E-03
      0.630  0.2217E-02  0.8083E-03
      0.716  0.2430E-02  0.1016E-02
      0.802  0.2638E-02  0.1242E-02
      0.887  0.2757E-02  0.1478E-02
      0.973  0.3080E-02  0.1742E-02
      1.059  0.3331E-02  0.2027E-02
      1.144  0.3420E-02  0.2320E-02
      1.230  0.3872E-02  0.2651E-02
      1.315  0.4193E-02  0.3010E-02
      1.401  0.4094E-02  0.3361E-02
      1.487  0.4258E-02  0.3725E-02
      1.572  0.5287E-02  0.4178E-02
      1.658  0.5656E-02  0.4662E-02
      1.743  0.5551E-02  0.5138E-02
      1.829  0.6172E-02  0.5666E-02
      1.915  0.6941E-02  0.6260E-02
      2.000  0.8357E-02  0.6976E-02
      2.086  0.1062E-01  0.7885E-02
      2.171  0.1267E-01  0.8970E-02
      2.257  0.1525E-01  0.1028E-01
      2.343  0.2016E-01  0.1200E-01
      2.428  0.2387E-01  0.1405E-01
      2.514  0.2448E-01  0.1614E-01
      2.600  0.2345E-01  0.1815E-01
      2.685  0.2028E-01  0.1988E-01
      2.771  0.1821E-01  0.2144E-01
      2.856  0.1959E-01  0.2312E-01
      2.942  0.2135E-01  0.2495E-01
      3.028  0.2342E-01  0.2695E-01
      3.113  0.2921E-01  0.2945E-01
      3.199  0.3696E-01  0.3262E-01
      3.284  0.4378E-01  0.3637E-01
      3.370  0.4839E-01  0.4051E-01
      3.456  0.5201E-01  0.4496E-01
      3.541  0.5526E-01  0.4969E-01
      3.627  0.5842E-01  0.5469E-01
      3.713  0.5814E-01  0.5967E-01
      3.798  0.5663E-01  0.6452E-01
      3.884  0.5531E-01  0.6926E-01
      3.969  0.5672E-01  0.7411E-01
      4.055  0.6261E-01  0.7947E-01
      4.141  0.7226E-01  0.8566E-01
      4.226  0.8355E-01  0.9281E-01
      4.312  0.9102E-01  0.1006E+00
      4.397  0.8942E-01  0.1083E+00
      4.483  0.8650E-01  0.1157E+00
      4.569  0.8537E-01  0.1230E+00
      4.654  0.8624E-01  0.1304E+00
      4.740  0.8416E-01  0.1376E+00
      4.825  0.7888E-01  0.1443E+00
      4.911  0.7026E-01  0.1503E+00
      4.997  0.6064E-01  0.1555E+00
      5.082  0.5523E-01  0.1602E+00
      5.168  0.5163E-01  0.1647E+00
      5.254  0.4946E-01  0.1689E+00
      5.339  0.5029E-01  0.1732E+00
      5.425  0.5255E-01  0.1777E+00
      5.510  0.5288E-01  0.1822E+00
      5.596  0.5207E-01  0.1867E+00
      5.682  0.5167E-01  0.1911E+00
      5.767  0.5015E-01  0.1954E+00
      5.853  0.4810E-01  0.1995E+00
      5.938  0.4601E-01  0.2035E+00
      6.024  0.4291E-01  0.2071E+00
      6.110  0.4036E-01  0.2106E+00
      6.195  0.4082E-01  0.2141E+00
      6.281  0.4628E-01  0.2181E+00
      6.367  0.5156E-01  0.2225E+00
      6.452  0.5529E-01  0.2272E+00
      6.538  0.5977E-01  0.2323E+00
      6.623  0.6222E-01  0.2376E+00
      6.709  0.6322E-01  0.2431E+00
      6.795  0.6369E-01  0.2485E+00
      6.880  0.6629E-01  0.2542E+00
      6.966  0.6794E-01  0.2600E+00
      7.051  0.6845E-01  0.2659E+00
      7.137  0.7212E-01  0.2720E+00
      7.223  0.7613E-01  0.2786E+00
      7.308  0.7994E-01  0.2854E+00
      7.394  0.8496E-01  0.2927E+00
      7.479  0.8855E-01  0.3003E+00
      7.565  0.8689E-01  0.3077E+00
      7.651  0.8397E-01  0.3149E+00
      7.736  0.8182E-01  0.3219E+00
      7.822  0.7937E-01  0.3287E+00
      7.908  0.7748E-01  0.3353E+00
      7.993  0.7845E-01  0.3420E+00
      8.079  0.8187E-01  0.3490E+00
      8.164  0.8500E-01  0.3563E+00
      8.250  0.8713E-01  0.3638E+00
      8.336  0.8574E-01  0.3711E+00
      8.421  0.7897E-01  0.3779E+00
      8.507  0.6933E-01  0.3838E+00
      8.592  0.6158E-01  0.3891E+00
      8.678  0.5722E-01  0.3940E+00
      8.764  0.5493E-01  0.3987E+00
      8.849  0.5175E-01  0.4031E+00
      8.935  0.4817E-01  0.4072E+00
      9.020  0.4395E-01  0.4110E+00
      9.106  0.3989E-01  0.4144E+00
      9.192  0.3505E-01  0.4174E+00
      9.277  0.2974E-01  0.4200E+00
      9.363  0.2611E-01  0.4222E+00
      9.449  0.2174E-01  0.4241E+00
      9.534  0.1654E-01  0.4255E+00
      9.620  0.1358E-01  0.4266E+00
      9.705  0.1290E-01  0.4277E+00
      9.791  0.1229E-01  0.4288E+00
      9.877  0.1150E-01  0.4298E+00
      9.962  0.1010E-01  0.4306E+00
     10.048  0.9985E-02  0.4315E+00
     10.133  0.1084E-01  0.4324E+00
     10.219  0.1087E-01  0.4334E+00
     10.305  0.1138E-01  0.4343E+00
     10.390  0.1170E-01  0.4353E+00
     10.476  0.1065E-01  0.4362E+00
     10.562  0.9486E-02  0.4371E+00
     10.647  0.8707E-02  0.4378E+00
     10.733  0.8054E-02  0.4385E+00
     10.818  0.8919E-02  0.4393E+00
     10.904  0.1109E-01  0.4402E+00
     10.990  0.1196E-01  0.4412E+00
     11.075  0.1145E-01  0.4422E+00
     11.161  0.1090E-01  0.4431E+00
     11.246  0.1006E-01  0.4440E+00
     11.332  0.9497E-02  0.4448E+00
     11.418  0.9938E-02  0.4457E+00
     11.503  0.1101E-01  0.4466E+00
     11.589  0.1119E-01  0.4476E+00
     11.674  0.1039E-01  0.4485E+00
     11.760  0.9547E-02  0.4493E+00
     11.846  0.9176E-02  0.4501E+00
     11.931  0.9385E-02  0.4509E+00
     12.017  0.9966E-02  0.4517E+00
     12.103  0.1016E-01  0.4526E+00
     12.188  0.1119E-01  0.4535E+00
     12.274  0.1161E-01  0.4545E+00
     12.359  0.1082E-01  0.4555E+00
     12.445  0.9363E-02  0.4563E+00
     12.531  0.8630E-02  0.4570E+00
     12.616  0.9360E-02  0.4578E+00
     12.702  0.1043E-01  0.4587E+00
     12.787  0.1073E-01  0.4596E+00
     12.873  0.1070E-01  0.4605E+00
     12.959  0.1202E-01  0.4616E+00
     13.044  0.1402E-01  0.4628E+00
     13.130  0.1431E-01  0.4640E+00
     13.215  0.1401E-01  0.4652E+00
     13.301  0.1302E-01  0.4663E+00
     13.387  0.1118E-01  0.4673E+00
     13.472  0.1089E-01  0.4682E+00
     13.558  0.1178E-01  0.4692E+00
     13.644  0.1175E-01  0.4702E+00
     13.729  0.1119E-01  0.4712E+00
     13.815  0.1063E-01  0.4721E+00
     13.900  0.1052E-01  0.4730E+00
     13.986  0.9763E-02  0.4738E+00
     14.072  0.9315E-02  0.4746E+00
     14.157  0.1003E-01  0.4755E+00
     14.243  0.1101E-01  0.4764E+00
     14.328  0.1092E-01  0.4773E+00
     14.414  0.9779E-02  0.4782E+00
     14.500  0.9007E-02  0.4790E+00
     14.585  0.9240E-02  0.4797E+00
     14.671  0.9673E-02  0.4806E+00
     14.757  0.9721E-02  0.4814E+00
     14.842  0.9241E-02  0.4822E+00
     14.928  0.8463E-02  0.4829E+00
     15.013  0.8686E-02  0.4837E+00
     15.099  0.9940E-02  0.4845E+00
     15.185  0.9630E-02  0.4853E+00
     15.270  0.8284E-02  0.4861E+00
     15.356  0.7588E-02  0.4867E+00
     15.441  0.7811E-02  0.4874E+00
     15.527  0.8367E-02  0.4881E+00
     15.613  0.8618E-02  0.4888E+00
     15.698  0.9168E-02  0.4896E+00
     15.784  0.9016E-02  0.4904E+00
     15.869  0.7694E-02  0.4910E+00
     15.955  0.6761E-02  0.4916E+00
     16.041  0.6829E-02  0.4922E+00
     16.126  0.7637E-02  0.4929E+00
     16.212  0.8545E-02  0.4936E+00
     16.298  0.8938E-02  0.4944E+00
     16.383  0.9248E-02  0.4951E+00
     16.469  0.9998E-02  0.4960E+00
     16.554  0.1013E-01  0.4969E+00
     16.640  0.9784E-02  0.4977E+00
     16.726  0.1025E-01  0.4986E+00
     16.811  0.1154E-01  0.4996E+00
     16.897  0.1349E-01  0.5007E+00
     16.982  0.1418E-01  0.5019E+00
     17.068  0.1478E-01  0.5032E+00
     17.154  0.1583E-01  0.5046E+00
     17.239  0.1578E-01  0.5059E+00
     17.325  0.1585E-01  0.5073E+00
     17.410  0.1689E-01  0.5087E+00
     17.496  0.1658E-01  0.5101E+00
     17.582  0.1462E-01  0.5114E+00
     17.667  0.1397E-01  0.5126E+00
     17.753  0.1422E-01  0.5138E+00
     17.839  0.1453E-01  0.5150E+00
     17.924  0.1536E-01  0.5164E+00
     18.010  0.1563E-01  0.5177E+00
     18.095  0.1494E-01  0.5190E+00
     18.181  0.1391E-01  0.5202E+00
     18.267  0.1266E-01  0.5212E+00
     18.352  0.1223E-01  0.5223E+00
     18.438  0.1122E-01  0.5233E+00
     18.523  0.1058E-01  0.5242E+00
     18.609  0.1119E-01  0.5251E+00
     18.695  0.1183E-01  0.5261E+00
     18.780  0.1207E-01  0.5272E+00
     18.866  0.1094E-01  0.5281E+00
     18.952  0.9476E-02  0.5289E+00
     19.037  0.9363E-02  0.5297E+00
     19.123  0.9743E-02  0.5305E+00
     19.208  0.9049E-02  0.5313E+00
     19.294  0.8567E-02  0.5321E+00
     19.380  0.8103E-02  0.5328E+00
     19.465  0.6753E-02  0.5333E+00
     19.551  0.5904E-02  0.5338E+00
     19.636  0.5887E-02  0.5343E+00
     19.722  0.5380E-02  0.5348E+00
     19.808  0.4719E-02  0.5352E+00
     19.893  0.4554E-02  0.5356E+00
     19.979  0.4476E-02  0.5360E+00
     20.064  0.4115E-02  0.5363E+00
     20.150  0.3383E-02  0.5366E+00
     20.236  0.3069E-02  0.5369E+00
     20.321  0.3073E-02  0.5371E+00
     20.407  0.2920E-02  0.5374E+00
     20.493  0.2787E-02  0.5376E+00
     20.578  0.2499E-02  0.5378E+00
     20.664  0.2161E-02  0.5380E+00
     20.749  0.2489E-02  0.5382E+00
     20.835  0.2733E-02  0.5385E+00
     20.921  0.2339E-02  0.5387E+00
     21.006  0.1826E-02  0.5388E+00
     21.092  0.1645E-02  0.5390E+00
     21.177  0.1322E-02  0.5391E+00
     21.263  0.8077E-03  0.5392E+00
     21.349  0.6800E-03  0.5392E+00
     21.434  0.8566E-03  0.5393E+00
     21.520  0.6873E-03  0.5393E+00
     21.605  0.5151E-03  0.5394E+00
     21.691  0.6681E-03  0.5395E+00
     21.777  0.5353E-03  0.5395E+00
     21.862  0.5470E-03  0.5395E+00
     21.948  0.7683E-03  0.5396E+00
     22.034  0.7654E-03  0.5397E+00
     22.119  0.4680E-03  0.5397E+00
     22.205  0.3084E-03  0.5397E+00
     22.290  0.2938E-03  0.5398E+00
     22.376  0.3005E-03  0.5398E+00
     22.462  0.3112E-03  0.5398E+00
     22.547  0.2062E-03  0.5398E+00
     22.633  0.2472E-03  0.5399E+00
     22.718  0.3585E-03  0.5399E+00
     22.804  0.2922E-03  0.5399E+00
     22.890  0.2419E-03  0.5399E+00
     22.975  0.1649E-03  0.5399E+00
     23.061  0.4804E-04  0.5400E+00
     23.147  0.7105E-05  0.5400E+00
     23.232  0.2910E-04  0.5400E+00
     23.318  0.1065E-03  0.5400E+00
     23.403  0.1873E-03  0.5400E+00
     23.489  0.1663E-03  0.5400E+00
     23.575  0.5601E-04  0.5400E+00
     23.660  0.5736E-05  0.5400E+00
     23.746  0.1598E-06  0.5400E+00
     23.831  0.1138E-08  0.5400E+00
     23.917  0.2000E-11  0.5400E+00
     24.003  0.8500E-15  0.5400E+00
     24.088  0.9222E-19  0.5400E+00
     24.174  0.0000E+00  0.5400E+00
     24.259  0.0000E+00  0.5400E+00
     24.345  0.0000E+00  0.5400E+00
     24.431  0.0000E+00  0.5400E+00
     24.516  0.0000E+00  0.5400E+00
     24.602  0.0000E+00  0.5400E+00
