    4    4  100    1
  0.1573637E+02  0.3725534E-09  0.4179441E-09  0.4154382E-09  0.2000000E-15
  1.000000000000000E-004
  CAR 
 unknown system                          
     44   1688     27
 
  0.0000000E+00  0.0000000E+00  0.0000000E+00  0.2962963E-03
    1        0.085672   1.000000
    2        2.246806   1.000000
    3        2.908730   1.000000
    4        2.991123   1.000000
    5        3.158106   1.000000
    6        3.385993   1.000000
    7        3.452239   1.000000
    8        4.133744   1.000000
    9        4.732611   1.000000
   10        7.396579   1.000000
   11        7.473465   1.000000
   12        7.956189   1.000000
   13        8.258088   1.000000
   14        8.312664   1.000000
   15        8.400765   1.000000
   16        8.871537   1.000000
   17        8.976196   1.000000
   18        8.988661   1.000000
   19        9.405585   1.000000
   20        9.539740   1.000000
   21       10.033458   1.000000
   22       10.935152   0.246235
   23       11.369333   0.000000
   24       13.671641   0.000000
   25       16.190245   0.000000
   26       17.563583   0.000000
   27       17.955609   0.000000
 
  0.6666667E-01 -0.1813543E-17  0.0000000E+00  0.5925926E-03
    1        0.156069   1.000000
    2        2.303170   1.000000
    3        2.955087   1.000000
    4        3.022587   1.000000
    5        3.190212   1.000000
    6        3.414408   1.000000
    7        3.487606   1.000000
    8        4.176223   1.000000
    9        4.752544   1.000000
   10        7.402605   1.000000
   11        7.421474   1.000000
   12        7.947647   1.000000
   13        8.215422   1.000000
   14        8.318255   1.000000
   15        8.359923   1.000000
   16        8.864047   1.000000
   17        8.913735   1.000000
   18        8.917998   1.000000
   19        9.115816   1.000000
   20        9.161678   1.000000
   21        9.930070   1.000000
   22       11.411197   0.000000
   23       11.613925   0.000000
   24       13.241367   0.000000
   25       16.066522   0.000000
   26       17.523615   0.000000
   27       18.031351   0.000000
 
  0.1333333E+00 -0.7096532E-17  0.0000000E+00  0.5925926E-03
    1        0.365492   1.000000
    2        2.470320   1.000000
    3        3.091599   1.000000
    4        3.113156   1.000000
    5        3.285597   1.000000
    6        3.499892   1.000000
    7        3.591933   1.000000
    8        4.302677   1.000000
    9        4.809968   1.000000
   10        7.273474   1.000000
   11        7.420104   1.000000
   12        7.922159   1.000000
   13        8.091977   1.000000
   14        8.217884   1.000000
   15        8.334855   1.000000
   16        8.390501   1.000000
   17        8.653727   1.000000
   18        8.702433   1.000000
   19        8.747688   1.000000
   20        8.846588   1.000000
   21        9.639794   1.000000
   22       12.133063   0.000000
   23       12.211555   0.000000
   24       12.286723   0.000000
   25       15.765024   0.000000
   26       17.424701   0.000000
   27       18.192771   0.000000
 
  0.2000000E+00 -0.1237952E-16  0.0000000E+00  0.5925926E-03
    1        0.708001   1.000000
    2        2.742614   1.000000
    3        3.250350   1.000000
    4        3.310023   1.000000
    5        3.441682   1.000000
    6        3.643041   1.000000
    7        3.759276   1.000000
    8        4.510476   1.000000
    9        4.896625   1.000000
   10        7.053574   1.000000
   11        7.447191   1.000000
   12        7.661217   1.000000
   13        7.839038   1.000000
   14        7.879772   1.000000
   15        7.902109   1.000000
   16        8.219986   1.000000
   17        8.361912   1.000000
   18        8.388909   1.000000
   19        8.478814   1.000000
   20        8.814634   1.000000
   21        9.211452   1.000000
   22       10.956621   0.161085
   23       12.694445   0.000000
   24       13.265355   0.000000
   25       15.393710   0.000000
   26       17.328198   0.000000
   27       18.345261   0.000000
 
  0.2666667E+00 -0.1419306E-16  0.0000000E+00  0.5925926E-03
    1        1.171708   1.000000
    2        3.110167   1.000000
    3        3.409203   1.000000
    4        3.594554   1.000000
    5        3.653548   1.000000
    6        3.844712   1.000000
    7        3.977657   1.000000
    8        4.794844   1.000000
    9        4.992117   1.000000
   10        6.804212   1.000000
   11        6.973764   1.000000
   12        7.229938   1.000000
   13        7.474554   1.000000
   14        7.676941   1.000000
   15        7.816565   1.000000
   16        7.928709   1.000000
   17        8.014524   1.000000
   18        8.136298   1.000000
   19        8.398532   1.000000
   20        8.703976   1.000000
   21        8.772828   1.000000
   22        9.688876   1.000000
   23       13.185424   0.000000
   24       14.290564   0.000000
   25       15.020867   0.000000
   26       17.321345   0.000000
   27       18.442137   0.000000
 
  0.3333333E+00 -0.1600661E-16 -0.8271806E-24  0.5925926E-03
    1        1.734357   1.000000
    2        3.543328   1.000000
    3        3.557955   1.000000
    4        3.913203   1.000000
    5        3.917525   1.000000
    6        4.106087   1.000000
    7        4.224709   1.000000
    8        5.050352   1.000000
    9        5.148670   1.000000
   10        6.341464   1.000000
   11        6.581751   1.000000
   12        6.595231   1.000000
   13        7.384170   1.000000
   14        7.569327   1.000000
   15        7.617936   1.000000
   16        7.634496   1.000000
   17        7.698931   1.000000
   18        7.760517   1.000000
   19        8.184302   1.000000
   20        8.443405   1.000000
   21        8.547076   1.000000
   22        8.723027   1.000000
   23       13.549761   0.000000
   24       14.683403   0.000000
   25       15.337530   0.000000
   26       17.470457   0.000000
   27       18.470982   0.000000
 
  0.4000000E+00 -0.2475904E-16  0.0000000E+00  0.5925926E-03
    1        2.353460   1.000000
    2        3.571484   1.000000
    3        4.058599   1.000000
    4        4.208007   1.000000
    5        4.230246   1.000000
    6        4.428408   1.000000
    7        4.465483   1.000000
    8        4.997275   1.000000
    9        5.563173   1.000000
   10        5.769412   1.000000
   11        5.937677   1.000000
   12        6.522637   1.000000
   13        7.199506   1.000000
   14        7.233024   1.000000
   15        7.275582   1.000000
   16        7.356581   1.000000
   17        7.415306   1.000000
   18        7.611617   1.000000
   19        7.697054   1.000000
   20        7.887639   1.000000
   21        8.494918   1.000000
   22        8.667726   1.000000
   23       13.795124   0.000000
   24       14.398887   0.000000
   25       16.385162   0.000000
   26       17.755624   0.000000
   27       18.428289   0.000000
 
  0.4666667E+00 -0.1963369E-16  0.8271806E-24  0.5925926E-03
    1        2.947231   1.000000
    2        3.386082   1.000000
    3        4.450542   1.000000
    4        4.454213   1.000000
    5        4.516692   1.000000
    6        4.761974   1.000000
    7        4.801085   1.000000
    8        4.812658   1.000000
    9        5.259570   1.000000
   10        5.314763   1.000000
   11        6.035175   1.000000
   12        6.595772   1.000000
   13        6.635915   1.000000
   14        6.892201   1.000000
   15        7.137389   1.000000
   16        7.177836   1.000000
   17        7.193119   1.000000
   18        7.298072   1.000000
   19        7.673809   1.000000
   20        7.751580   1.000000
   21        8.551059   1.000000
   22        8.609501   1.000000
   23       13.981009   0.000000
   24       14.169627   0.000000
   25       17.410246   0.000000
   26       18.067642   0.000000
   27       18.300669   0.000000
 
 -0.2772155E-17  0.6666667E-01  0.8271806E-24  0.5925926E-03
    1        0.143433   1.000000
    2        2.303655   1.000000
    3        2.928639   1.000000
    4        3.026493   1.000000
    5        3.190001   1.000000
    6        3.407795   1.000000
    7        3.481443   1.000000
    8        4.171601   1.000000
    9        4.734817   1.000000
   10        7.391513   1.000000
   11        7.449688   1.000000
   12        7.899055   1.000000
   13        8.226363   1.000000
   14        8.279362   1.000000
   15        8.390370   1.000000
   16        8.619693   1.000000
   17        8.895916   1.000000
   18        8.993522   1.000000
   19        9.304896   1.000000
   20        9.507604   1.000000
   21        9.876024   1.000000
   22       11.090684   0.001951
   23       11.245918   0.000000
   24       13.811322   0.000000
   25       16.148152   0.000000
   26       17.895114   0.000000
   27       18.029605   0.000000
 
  0.6666667E-01  0.6666667E-01  0.2067952E-24  0.5925926E-03
    1        0.257475   1.000000
    2        2.451055   1.000000
    3        2.982734   1.000000
    4        3.072904   1.000000
    5        3.248166   1.000000
    6        3.452968   1.000000
    7        3.517789   1.000000
    8        4.291461   1.000000
    9        4.783928   1.000000
   10        7.309057   1.000000
   11        7.365660   1.000000
   12        7.934732   1.000000
   13        8.124272   1.000000
   14        8.301231   1.000000
   15        8.357038   1.000000
   16        8.471637   1.000000
   17        8.736155   1.000000
   18        8.919647   1.000000
   19        9.144560   1.000000
   20        9.157943   1.000000
   21        9.679158   1.000000
   22       10.965576   0.132072
   23       11.787001   0.000000
   24       13.109243   0.000000
   25       16.158865   0.000000
   26       17.968151   0.000000
   27       18.328865   0.000000
 
  0.1333333E+00  0.6666667E-01 -0.1033976E-24  0.5925926E-03
    1        0.506469   1.000000
    2        2.704722   1.000000
    3        3.127057   1.000000
    4        3.177199   1.000000
    5        3.367182   1.000000
    6        3.554131   1.000000
    7        3.622173   1.000000
    8        4.496675   1.000000
    9        4.872252   1.000000
   10        7.080331   1.000000
   11        7.346524   1.000000
   12        7.949528   1.000000
   13        7.955710   1.000000
   14        8.014009   1.000000
   15        8.229666   1.000000
   16        8.334229   1.000000
   17        8.487458   1.000000
   18        8.554260   1.000000
   19        8.712071   1.000000
   20        8.894530   1.000000
   21        9.295128   1.000000
   22       11.299047   0.000000
   23       11.962705   0.000000
   24       12.640481   0.000000
   25       15.980622   0.000000
   26       17.964677   0.000000
   27       18.683017   0.000000
 
  0.2000000E+00  0.6666667E-01  0.0000000E+00  0.5925926E-03
    1        0.882054   1.000000
    2        3.055973   1.000000
    3        3.325175   1.000000
    4        3.353049   1.000000
    5        3.542435   1.000000
    6        3.711632   1.000000
    7        3.788101   1.000000
    8        4.784924   1.000000
    9        4.992179   1.000000
   10        6.790706   1.000000
   11        7.324732   1.000000
   12        7.383985   1.000000
   13        7.720109   1.000000
   14        7.747076   1.000000
   15        7.934437   1.000000
   16        8.154303   1.000000
   17        8.170253   1.000000
   18        8.377325   1.000000
   19        8.406744   1.000000
   20        8.771607   1.000000
   21        8.781397   1.000000
   22       10.716817   0.991833
   23       11.745607   0.000000
   24       13.601892   0.000000
   25       15.712519   0.000000
   26       17.924897   0.000000
   27       18.972197   0.000000
 
  0.2666667E+00  0.6666667E-01  0.0000000E+00  0.5925926E-03
    1        1.369050   1.000000
    2        3.488445   1.000000
    3        3.490171   1.000000
    4        3.643761   1.000000
    5        3.766622   1.000000
    6        3.926142   1.000000
    7        4.004219   1.000000
    8        5.120142   1.000000
    9        5.152310   1.000000
   10        6.487050   1.000000
   11        6.747399   1.000000
   12        6.974025   1.000000
   13        7.261560   1.000000
   14        7.561517   1.000000
   15        7.809798   1.000000
   16        7.820745   1.000000
   17        7.922574   1.000000
   18        8.046780   1.000000
   19        8.204260   1.000000
   20        8.429030   1.000000
   21        8.703425   1.000000
   22        9.565588   1.000000
   23       12.175828   0.000000
   24       14.614464   0.000000
   25       15.422465   0.000000
   26       17.890290   0.000000
   27       19.141143   0.000000
 
  0.3333333E+00  0.6666667E-01 -0.1240771E-23  0.5925926E-03
    1        1.940170   1.000000
    2        3.613110   1.000000
    3        3.968501   1.000000
    4        3.980773   1.000000
    5        4.028395   1.000000
    6        4.198788   1.000000
    7        4.254138   1.000000
    8        5.185158   1.000000
    9        5.593203   1.000000
   10        6.150058   1.000000
   11        6.234746   1.000000
   12        6.263236   1.000000
   13        7.099402   1.000000
   14        7.254507   1.000000
   15        7.442540   1.000000
   16        7.493139   1.000000
   17        7.673245   1.000000
   18        7.676280   1.000000
   19        7.966563   1.000000
   20        8.487515   1.000000
   21        8.633248   1.000000
   22        8.642730   1.000000
   23       12.550684   0.000000
   24       15.158234   0.000000
   25       15.649894   0.000000
   26       17.885199   0.000000
   27       19.178803   0.000000
 
  0.4000000E+00  0.6666667E-01  0.8271806E-24  0.5925926E-03
    1        2.545139   1.000000
    2        3.603551   1.000000
    3        4.270889   1.000000
    4        4.310005   1.000000
    5        4.400004   1.000000
    6        4.530408   1.000000
    7        4.593234   1.000000
    8        5.067415   1.000000
    9        5.534831   1.000000
   10        5.606035   1.000000
   11        6.098047   1.000000
   12        6.258974   1.000000
   13        6.521370   1.000000
   14        6.932812   1.000000
   15        7.129258   1.000000
   16        7.323588   1.000000
   17        7.456119   1.000000
   18        7.508258   1.000000
   19        7.817886   1.000000
   20        8.053349   1.000000
   21        8.550524   1.000000
   22        8.566075   1.000000
   23       12.868167   0.000000
   24       14.955336   0.000000
   25       16.684623   0.000000
   26       17.906992   0.000000
   27       19.065740   0.000000
 
  0.4666667E+00  0.6666667E-01  0.0000000E+00  0.5925926E-03
    1        3.094212   1.000000
    2        3.344718   1.000000
    3        4.435450   1.000000
    4        4.540065   1.000000
    5        4.583189   1.000000
    6        4.786152   1.000000
    7        4.921714   1.000000
    8        4.922984   1.000000
    9        5.116840   1.000000
   10        5.120842   1.000000
   11        5.922353   1.000000
   12        6.470294   1.000000
   13        6.632479   1.000000
   14        6.912012   1.000000
   15        6.966216   1.000000
   16        7.035497   1.000000
   17        7.344967   1.000000
   18        7.512907   1.000000
   19        7.578462   1.000000
   20        7.886726   1.000000
   21        8.502140   1.000000
   22        8.615590   1.000000
   23       13.148966   0.000000
   24       14.835677   0.000000
   25       17.693833   0.000000
   26       17.937719   0.000000
   27       18.257958   0.000000
 
 -0.4666667E+00  0.6666667E-01  0.3308722E-23  0.5925926E-03
    1        2.833610   1.000000
    2        3.464712   1.000000
    3        4.150081   1.000000
    4        4.453133   1.000000
    5        4.466941   1.000000
    6        4.644253   1.000000
    7        4.696617   1.000000
    8        4.805012   1.000000
    9        5.372873   1.000000
   10        5.486721   1.000000
   11        5.657147   1.000000
   12        6.795261   1.000000
   13        6.852117   1.000000
   14        7.026910   1.000000
   15        7.034908   1.000000
   16        7.225131   1.000000
   17        7.377693   1.000000
   18        7.423465   1.000000
   19        7.801155   1.000000
   20        7.805517   1.000000
   21        8.442818   1.000000
   22        8.680173   1.000000
   23       13.423275   0.000000
   24       14.796974   0.000000
   25       17.265614   0.000000
   26       17.963832   0.000000
   27       18.076268   0.000000
 
 -0.4000000E+00  0.6666667E-01  0.0000000E+00  0.5925926E-03
    1        2.208087   1.000000
    2        3.591633   1.000000
    3        3.643594   1.000000
    4        4.127123   1.000000
    5        4.223779   1.000000
    6        4.333901   1.000000
    7        4.481362   1.000000
    8        4.928338   1.000000
    9        5.125302   1.000000
   10        5.882881   1.000000
   11        6.190917   1.000000
   12        6.813013   1.000000
   13        7.178305   1.000000
   14        7.293829   1.000000
   15        7.415066   1.000000
   16        7.447184   1.000000
   17        7.539028   1.000000
   18        7.686603   1.000000
   19        7.730848   1.000000
   20        8.389902   1.000000
   21        8.426277   1.000000
   22        8.742026   1.000000
   23       13.720523   0.000000
   24       14.780683   0.000000
   25       16.233166   0.000000
   26       17.387347   0.000000
   27       17.979785   0.000000
 
 -0.3333333E+00  0.6666667E-01  0.8271806E-24  0.5925926E-03
    1        1.593761   1.000000
    2        3.184701   1.000000
    3        3.535461   1.000000
    4        3.833978   1.000000
    5        3.905105   1.000000
    6        4.032430   1.000000
    7        4.251670   1.000000
    8        4.802908   1.000000
    9        4.942131   1.000000
   10        6.448580   1.000000
   11        6.724281   1.000000
   12        6.914819   1.000000
   13        7.546434   1.000000
   14        7.589454   1.000000
   15        7.624283   1.000000
   16        7.632381   1.000000
   17        7.659704   1.000000
   18        8.045359   1.000000
   19        8.110644   1.000000
   20        8.345022   1.000000
   21        8.799853   1.000000
   22        9.360188   1.000000
   23       14.064604   0.000000
   24       14.611973   0.000000
   25       15.187552   0.000000
   26       16.922584   0.000000
   27       17.981908   0.000000
 
 -0.2666667E+00  0.6666667E-01 -0.8271806E-24  0.5925926E-03
    1        1.057309   1.000000
    2        2.806603   1.000000
    3        3.396206   1.000000
    4        3.585034   1.000000
    5        3.587476   1.000000
    6        3.791307   1.000000
    7        4.006277   1.000000
    8        4.530037   1.000000
    9        4.887613   1.000000
   10        7.061905   1.000000
   11        7.096830   1.000000
   12        7.259209   1.000000
   13        7.589537   1.000000
   14        7.632431   1.000000
   15        7.853400   1.000000
   16        7.941152   1.000000
   17        8.002384   1.000000
   18        8.309569   1.000000
   19        8.404776   1.000000
   20        8.705361   1.000000
   21        8.855185   1.000000
   22       10.479488   1.000000
   23       14.107546   0.000000
   24       14.152844   0.000000
   25       14.470285   0.000000
   26       16.879169   0.000000
   27       17.965979   0.000000
 
 -0.2000000E+00  0.6666667E-01  0.8271806E-24  0.5925926E-03
    1        0.631175   1.000000
    2        2.522289   1.000000
    3        3.244036   1.000000
    4        3.306961   1.000000
    5        3.395783   1.000000
    6        3.609352   1.000000
    7        3.787540   1.000000
    8        4.321876   1.000000
    9        4.814796   1.000000
   10        7.286324   1.000000
   11        7.526874   1.000000
   12        7.699933   1.000000
   13        7.710445   1.000000
   14        7.776408   1.000000
   15        8.049414   1.000000
   16        8.220978   1.000000
   17        8.284644   1.000000
   18        8.386481   1.000000
   19        8.697309   1.000000
   20        8.919480   1.000000
   21        9.229228   1.000000
   22       11.688071   0.000000
   23       13.153465   0.000000
   24       13.358992   0.000000
   25       14.936202   0.000000
   26       17.126433   0.000000
   27       17.931334   0.000000
 
 -0.1333333E+00  0.6666667E-01  0.8271806E-24  0.5925926E-03
    1        0.331979   1.000000
    2        2.340397   1.000000
    3        3.096091   1.000000
    4        3.118900   1.000000
    5        3.264004   1.000000
    6        3.485391   1.000000
    7        3.619790   1.000000
    8        4.189038   1.000000
    9        4.755568   1.000000
   10        7.428702   1.000000
   11        7.472147   1.000000
   12        7.782830   1.000000
   13        8.172199   1.000000
   14        8.187485   1.000000
   15        8.271031   1.000000
   16        8.279377   1.000000
   17        8.544320   1.000000
   18        8.704968   1.000000
   19        8.883892   1.000000
   20        9.049089   1.000000
   21        9.629571   1.000000
   22       12.225576   0.000000
   23       12.529847   0.000000
   24       12.843942   0.000000
   25       15.432178   0.000000
   26       17.447924   0.000000
   27       17.891733   0.000000
 
 -0.6666667E-01  0.6666667E-01  0.1240771E-23  0.5925926E-03
    1        0.168235   1.000000
    2        2.266607   1.000000
    3        2.967300   1.000000
    4        3.042752   1.000000
    5        3.195070   1.000000
    6        3.418460   1.000000
    7        3.515810   1.000000
    8        4.137822   1.000000
    9        4.726323   1.000000
   10        7.426823   1.000000
   11        7.489039   1.000000
   12        7.847018   1.000000
   13        8.248667   1.000000
   14        8.269224   1.000000
   15        8.342842   1.000000
   16        8.583094   1.000000
   17        8.918102   1.000000
   18        8.949328   1.000000
   19        8.980967   1.000000
   20        9.368043   1.000000
   21        9.857410   1.000000
   22       11.468428   0.000000
   23       11.723538   0.000000
   24       13.685625   0.000000
   25       15.879790   0.000000
   26       17.720629   0.000000
   27       17.894634   0.000000
 
 -0.5544310E-17  0.1333333E+00  0.1654361E-23  0.5925926E-03
    1        0.315107   1.000000
    2        2.472399   1.000000
    3        2.984693   1.000000
    4        3.130689   1.000000
    5        3.285638   1.000000
    6        3.472292   1.000000
    7        3.567972   1.000000
    8        4.284126   1.000000
    9        4.738804   1.000000
   10        7.369994   1.000000
   11        7.384344   1.000000
   12        7.732929   1.000000
   13        8.066688   1.000000
   14        8.143234   1.000000
   15        8.183754   1.000000
   16        8.356583   1.000000
   17        8.667670   1.000000
   18        9.007930   1.000000
   19        9.015126   1.000000
   20        9.461968   1.000000
   21        9.469788   1.000000
   22       10.408605   1.000000
   23       11.916480   0.000000
   24       14.165289   0.000000
   25       16.046828   0.000000
   26       18.212164   0.000000
   27       18.755844   0.000000
 
  0.6666667E-01  0.1333333E+00  0.0000000E+00  0.5925926E-03
    1        0.467990   1.000000
    2        2.704105   1.000000
    3        3.044382   1.000000
    4        3.190578   1.000000
    5        3.368442   1.000000
    6        3.531487   1.000000
    7        3.607509   1.000000
    8        4.484579   1.000000
    9        4.814716   1.000000
   10        7.166164   1.000000
   11        7.297928   1.000000
   12        7.811959   1.000000
   13        7.852131   1.000000
   14        8.004049   1.000000
   15        8.224053   1.000000
   16        8.329012   1.000000
   17        8.431011   1.000000
   18        8.936096   1.000000
   19        8.940661   1.000000
   20        9.144634   1.000000
   21        9.230523   1.000000
   22       10.036871   1.000000
   23       12.413207   0.000000
   24       13.252548   0.000000
   25       16.168642   0.000000
   26       18.734285   0.000000
   27       18.818637   0.000000
 
  0.1333333E+00  0.1333333E+00  0.4135903E-24  0.5925926E-03
    1        0.748264   1.000000
    2        3.031378   1.000000
    3        3.194702   1.000000
    4        3.306767   1.000000
    5        3.507432   1.000000
    6        3.643663   1.000000
    7        3.714844   1.000000
    8        4.773447   1.000000
    9        4.933348   1.000000
   10        6.870347   1.000000
   11        7.217634   1.000000
   12        7.461977   1.000000
   13        7.826299   1.000000
   14        7.860987   1.000000
   15        8.127308   1.000000
   16        8.135461   1.000000
   17        8.276380   1.000000
   18        8.304839   1.000000
   19        8.649164   1.000000
   20        8.734252   1.000000
   21        8.973072   1.000000
   22       10.371555   1.000000
   23       12.060966   0.000000
   24       13.194697   0.000000
   25       16.086051   0.000000
   26       18.766359   0.000000
   27       19.139503   0.000000
 
  0.2000000E+00  0.1333333E+00  0.1240771E-23  0.5925926E-03
    1        1.145672   1.000000
    2        3.426884   1.000000
    3        3.440774   1.000000
    4        3.463512   1.000000
    5        3.695988   1.000000
    6        3.809048   1.000000
    7        3.884105   1.000000
    8        5.090450   1.000000
    9        5.147530   1.000000
   10        6.522205   1.000000
   11        6.958441   1.000000
   12        7.112720   1.000000
   13        7.318174   1.000000
   14        7.646353   1.000000
   15        7.771474   1.000000
   16        7.800627   1.000000
   17        8.127188   1.000000
   18        8.129285   1.000000
   19        8.338910   1.000000
   20        8.440270   1.000000
   21        8.785323   1.000000
   22       10.818962   0.830664
   23       10.868773   0.599618
   24       14.108021   0.000000
   25       15.900156   0.000000
   26       18.619876   0.000000
   27       19.593005   0.000000
 
  0.2666667E+00  0.1333333E+00  0.1344168E-23  0.5925926E-03
    1        1.642397   1.000000
    2        3.628613   1.000000
    3        3.722999   1.000000
    4        3.900832   1.000000
    5        3.924021   1.000000
    6        4.028174   1.000000
    7        4.115887   1.000000
    8        5.265752   1.000000
    9        5.601030   1.000000
   10        6.164303   1.000000
   11        6.420037   1.000000
   12        6.498357   1.000000
   13        6.964708   1.000000
   14        7.166693   1.000000
   15        7.447197   1.000000
   16        7.509642   1.000000
   17        7.945978   1.000000
   18        8.003665   1.000000
   19        8.099181   1.000000
   20        8.409398   1.000000
   21        8.647268   1.000000
   22        9.803920   1.000000
   23       11.253681   0.000000
   24       15.088546   0.000000
   25       15.683827   0.000000
   26       18.408539   0.000000
   27       20.090065   0.000000
 
  0.3333333E+00  0.1333333E+00  0.2274747E-23  0.5925926E-03
    1        2.207678   1.000000
    2        3.737808   1.000000
    3        4.049238   1.000000
    4        4.176411   1.000000
    5        4.270614   1.000000
    6        4.301879   1.000000
    7        4.501573   1.000000
    8        5.341894   1.000000
    9        5.729549   1.000000
   10        5.895123   1.000000
   11        5.934959   1.000000
   12        6.120689   1.000000
   13        6.426843   1.000000
   14        6.790146   1.000000
   15        7.105839   1.000000
   16        7.443882   1.000000
   17        7.745669   1.000000
   18        7.754565   1.000000
   19        7.965812   1.000000
   20        8.485120   1.000000
   21        8.536303   1.000000
   22        8.937760   1.000000
   23       11.649684   0.000000
   24       15.496790   0.000000
   25       16.100599   0.000000
   26       18.181301   0.000000
   27       20.080973   0.000000
 
  0.4000000E+00  0.1333333E+00 -0.4135903E-24  0.5925926E-03
    1        2.786456   1.000000
    2        3.672284   1.000000
    3        4.334583   1.000000
    4        4.430573   1.000000
    5        4.499733   1.000000
    6        4.630503   1.000000
    7        5.006565   1.000000
    8        5.042513   1.000000
    9        5.105363   1.000000
   10        5.407399   1.000000
   11        5.782260   1.000000
   12        6.064923   1.000000
   13        6.594103   1.000000
   14        6.724330   1.000000
   15        6.836628   1.000000
   16        7.446957   1.000000
   17        7.478217   1.000000
   18        7.578084   1.000000
   19        7.879204   1.000000
   20        8.334092   1.000000
   21        8.442013   1.000000
   22        8.563111   1.000000
   23       12.002948   0.000000
   24       15.392479   0.000000
   25       17.116109   0.000000
   26       17.982567   0.000000
   27       19.205951   0.000000
 
  0.4666667E+00  0.1333333E+00 -0.1240771E-23  0.5925926E-03
    1        3.285369   1.000000
    2        3.315321   1.000000
    3        4.256005   1.000000
    4        4.604820   1.000000
    5        4.654384   1.000000
    6        4.689074   1.000000
    7        4.747940   1.000000
    8        4.968349   1.000000
    9        5.013859   1.000000
   10        5.350370   1.000000
   11        5.476634   1.000000
   12        6.375182   1.000000
   13        6.624188   1.000000
   14        6.749885   1.000000
   15        7.073544   1.000000
   16        7.215989   1.000000
   17        7.522841   1.000000
   18        7.701157   1.000000
   19        7.790218   1.000000
   20        8.056681   1.000000
   21        8.360748   1.000000
   22        8.640459   1.000000
   23       12.323927   0.000000
   24       15.414154   0.000000
   25       17.834887   0.000000
   26       18.107634   0.000000
   27       18.262627   0.000000
 
 -0.4666667E+00  0.1333333E+00  0.0000000E+00  0.5925926E-03
    1        2.737357   1.000000
    2        3.591703   1.000000
    3        3.745908   1.000000
    4        4.392900   1.000000
    5        4.512470   1.000000