 running on   24 total cores
 distrk:  each k-point on   24 cores,    1 groups
 distr:  one band on    8 cores,    3 groups
 using from now: INCAR     
 vasp.5.4.4.18Apr17-6-g9f103f2a35 (build Jan 14 2019 14:48:31) complex          
  
 POSCAR found type information on POSCAR  Au
 POSCAR found :  1 types and       4 ions
 scaLAPACK will be used
 LDA part: xc-table for Pade appr. of Perdew
 POSCAR found type information on POSCAR  Au
 POSCAR found :  1 types and       4 ions
 POSCAR, INCAR and KPOINTS ok, starting setup
 FFT: planning ...
 WAVECAR not read
 entering main loop
       N       E                     dE             d eps       ncg     rms          rms(c)
DAV:   1     0.287541282103E+03    0.28754E+03   -0.23041E+04 92124   0.155E+03
DAV:   2    -0.666816050754E+01   -0.29421E+03   -0.28672E+03103419   0.342E+02
DAV:   3    -0.118892094015E+02   -0.52210E+01   -0.51919E+01103653   0.484E+01
DAV:   4    -0.119165386818E+02   -0.27329E-01   -0.27325E-01104976   0.360E+00
DAV:   5    -0.119167858295E+02   -0.24715E-03   -0.24714E-03107586   0.358E-01    0.264E+01
RMM:   6    -0.109505276483E+02    0.96626E+00   -0.20402E+00 91152   0.957E+00    0.162E+01
RMM:   7    -0.108448386321E+02    0.10569E+00   -0.52030E-01 91156   0.469E+00    0.452E+00
RMM:   8    -0.108267513530E+02    0.18087E-01   -0.49017E-02 91158   0.152E+00    0.591E-01
RMM:   9    -0.108266707772E+02    0.80576E-04   -0.15772E-04 91156   0.745E-02    0.715E-02
RMM:  10    -0.108266751012E+02   -0.43240E-05   -0.20819E-05 91157   0.341E-02    0.441E-02
RMM:  11    -0.108266785649E+02   -0.34638E-05   -0.15757E-06 50169   0.898E-03    0.276E-03
RMM:  12    -0.108266785012E+02    0.63711E-07   -0.20331E-07 48646   0.310E-03
   1 F= -.10826679E+02 E0= -.10823757E+02  d E =-.108267E+02
 curvature:   0.00 expect dE= 0.000E+00 dE for cont linesearch  0.000E+00
 trial: gam= 0.00000 g(F)=  0.608E-14 g(S)=  0.000E+00 ort = 0.000E+00 (trialstep = 0.100E+01)
 search vector abs. value=  0.100E-09
 reached required accuracy - stopping structural energy minimisation
