   4   4   0   0
  0.1419840E+02  0.3697401E-09  0.3697400E-09  0.4154382E-09  0.2000000E-15
  1.000000000000000E-004
  CAR 
 unknown system                          
     25.92608997     -0.29628127  301     12.93972396      1.00000000
     -0.296  0.0000E+00  0.0000E+00
     -0.209  0.0000E+00  0.0000E+00
     -0.121  0.0000E+00  0.0000E+00
     -0.034  0.0000E+00  0.0000E+00
      0.053  0.0000E+00  0.0000E+00
      0.141  0.0000E+00  0.0000E+00
      0.228  0.0000E+00  0.0000E+00
      0.316  0.7527E-20  0.6579E-21
      0.403  0.1107E-15  0.9677E-17
      0.490  0.3478E-12  0.3041E-13
      0.578  0.2537E-09  0.2221E-10
      0.665  0.4565E-07  0.4013E-08
      0.753  0.2270E-05  0.2024E-06
      0.840  0.3685E-04  0.3424E-05
      0.927  0.2302E-03  0.2354E-04
      1.015  0.6242E-03  0.7810E-04
      1.102  0.9087E-03  0.1575E-03
      1.190  0.1240E-02  0.2659E-03
      1.277  0.1587E-02  0.4046E-03
      1.364  0.1500E-02  0.5358E-03
      1.452  0.1815E-02  0.6944E-03
      1.539  0.2057E-02  0.8742E-03
      1.627  0.2241E-02  0.1070E-02
      1.714  0.2518E-02  0.1290E-02
      1.802  0.2487E-02  0.1508E-02
      1.889  0.2270E-02  0.1706E-02
      1.976  0.2964E-02  0.1965E-02
      2.064  0.3303E-02  0.2254E-02
      2.151  0.3357E-02  0.2547E-02
      2.239  0.3478E-02  0.2851E-02
      2.326  0.3190E-02  0.3130E-02
      2.413  0.3684E-02  0.3452E-02
      2.501  0.3910E-02  0.3794E-02
      2.588  0.3989E-02  0.4143E-02
      2.676  0.4887E-02  0.4570E-02
      2.763  0.5220E-02  0.5026E-02
      2.850  0.4741E-02  0.5441E-02
      2.938  0.4594E-02  0.5842E-02
      3.025  0.4806E-02  0.6262E-02
      3.113  0.5948E-02  0.6782E-02
      3.200  0.7312E-02  0.7421E-02
      3.287  0.7172E-02  0.8048E-02
      3.375  0.6418E-02  0.8609E-02
      3.462  0.8033E-02  0.9311E-02
      3.550  0.9576E-02  0.1015E-01
      3.637  0.1141E-01  0.1115E-01
      3.724  0.1751E-01  0.1268E-01
      3.812  0.2257E-01  0.1465E-01
      3.899  0.2630E-01  0.1695E-01
      3.987  0.3062E-01  0.1962E-01
      4.074  0.3187E-01  0.2241E-01
      4.162  0.3383E-01  0.2537E-01
      4.249  0.3718E-01  0.2862E-01
      4.336  0.4376E-01  0.3244E-01
      4.424  0.4849E-01  0.3668E-01
      4.511  0.5187E-01  0.4121E-01
      4.599  0.5907E-01  0.4638E-01
      4.686  0.6147E-01  0.5175E-01
      4.773  0.6306E-01  0.5726E-01
      4.861  0.6322E-01  0.6279E-01
      4.948  0.5996E-01  0.6803E-01
      5.036  0.5720E-01  0.7303E-01
      5.123  0.5471E-01  0.7781E-01
      5.210  0.5156E-01  0.8232E-01
      5.298  0.4884E-01  0.8659E-01
      5.385  0.4707E-01  0.9070E-01
      5.473  0.4539E-01  0.9467E-01
      5.560  0.4157E-01  0.9830E-01
      5.647  0.3854E-01  0.1017E+00
      5.735  0.4284E-01  0.1054E+00
      5.822  0.4732E-01  0.1096E+00
      5.910  0.5607E-01  0.1145E+00
      5.997  0.6688E-01  0.1203E+00
      6.084  0.6553E-01  0.1260E+00
      6.172  0.5926E-01  0.1312E+00
      6.259  0.6317E-01  0.1367E+00
      6.347  0.6701E-01  0.1426E+00
      6.434  0.6734E-01  0.1485E+00
      6.522  0.6736E-01  0.1544E+00
      6.609  0.6443E-01  0.1600E+00
      6.696  0.5956E-01  0.1652E+00
      6.784  0.5979E-01  0.1704E+00
      6.871  0.6310E-01  0.1759E+00
      6.959  0.6480E-01  0.1816E+00
      7.046  0.6184E-01  0.1870E+00
      7.133  0.5947E-01  0.1922E+00
      7.221  0.6169E-01  0.1976E+00
      7.308  0.6187E-01  0.2030E+00
      7.396  0.5883E-01  0.2081E+00
      7.483  0.5701E-01  0.2131E+00
      7.570  0.5457E-01  0.2179E+00
      7.658  0.5207E-01  0.2225E+00
      7.745  0.5313E-01  0.2271E+00
      7.833  0.5704E-01  0.2321E+00
      7.920  0.5707E-01  0.2371E+00
      8.007  0.6030E-01  0.2423E+00
      8.095  0.6187E-01  0.2477E+00
      8.182  0.6143E-01  0.2531E+00
      8.270  0.6312E-01  0.2586E+00
      8.357  0.6461E-01  0.2643E+00
      8.445  0.6645E-01  0.2701E+00
      8.532  0.6148E-01  0.2755E+00
      8.619  0.5714E-01  0.2805E+00
      8.707  0.5560E-01  0.2853E+00
      8.794  0.5781E-01  0.2904E+00
      8.882  0.6493E-01  0.2960E+00
      8.969  0.6142E-01  0.3014E+00
      9.056  0.5432E-01  0.3062E+00
      9.144  0.5414E-01  0.3109E+00
      9.231  0.5197E-01  0.3154E+00
      9.319  0.5040E-01  0.3198E+00
      9.406  0.4979E-01  0.3242E+00
      9.493  0.4829E-01  0.3284E+00
      9.581  0.4695E-01  0.3325E+00
      9.668  0.4979E-01  0.3369E+00
      9.756  0.5505E-01  0.3417E+00
      9.843  0.5327E-01  0.3463E+00
      9.930  0.4845E-01  0.3506E+00
     10.018  0.5082E-01  0.3550E+00
     10.105  0.5407E-01  0.3597E+00
     10.193  0.5483E-01  0.3645E+00
     10.280  0.5830E-01  0.3696E+00
     10.367  0.6786E-01  0.3756E+00
     10.455  0.7822E-01  0.3824E+00
     10.542  0.8051E-01  0.3894E+00
     10.630  0.7761E-01  0.3962E+00
     10.717  0.7062E-01  0.4024E+00
     10.805  0.6415E-01  0.4080E+00
     10.892  0.5426E-01  0.4127E+00
     10.979  0.3688E-01  0.4160E+00
     11.067  0.2252E-01  0.4179E+00
     11.154  0.1305E-01  0.4191E+00
     11.242  0.1089E-01  0.4200E+00
     11.329  0.1595E-01  0.4214E+00
     11.416  0.2058E-01  0.4232E+00
     11.504  0.1887E-01  0.4249E+00
     11.591  0.1341E-01  0.4260E+00
     11.679  0.1056E-01  0.4270E+00
     11.766  0.1059E-01  0.4279E+00
     11.853  0.1125E-01  0.4289E+00
     11.941  0.1151E-01  0.4299E+00
     12.028  0.1232E-01  0.4310E+00
     12.116  0.1235E-01  0.4320E+00
     12.203  0.9503E-02  0.4329E+00
     12.290  0.8071E-02  0.4336E+00
     12.378  0.8690E-02  0.4343E+00
     12.465  0.9702E-02  0.4352E+00
     12.553  0.9941E-02  0.4361E+00
     12.640  0.9815E-02  0.4369E+00
     12.727  0.1016E-01  0.4378E+00
     12.815  0.9956E-02  0.4387E+00
     12.902  0.1047E-01  0.4396E+00
     12.990  0.1117E-01  0.4406E+00
     13.077  0.1036E-01  0.4415E+00
     13.165  0.8912E-02  0.4422E+00
     13.252  0.8063E-02  0.4429E+00
     13.339  0.8123E-02  0.4437E+00
     13.427  0.8505E-02  0.4444E+00
     13.514  0.1086E-01  0.4454E+00
     13.602  0.1271E-01  0.4465E+00
     13.689  0.1058E-01  0.4474E+00
     13.776  0.8709E-02  0.4482E+00
     13.864  0.8537E-02  0.4489E+00
     13.951  0.8424E-02  0.4496E+00
     14.039  0.9156E-02  0.4504E+00
     14.126  0.9886E-02  0.4513E+00
     14.213  0.1008E-01  0.4522E+00
     14.301  0.1078E-01  0.4531E+00
     14.388  0.1059E-01  0.4540E+00
     14.476  0.8897E-02  0.4548E+00
     14.563  0.7413E-02  0.4555E+00
     14.650  0.8348E-02  0.4562E+00
     14.738  0.9805E-02  0.4571E+00
     14.825  0.9528E-02  0.4579E+00
     14.913  0.8607E-02  0.4586E+00
     15.000  0.8470E-02  0.4594E+00
     15.088  0.9588E-02  0.4602E+00
     15.175  0.1004E-01  0.4611E+00
     15.262  0.9929E-02  0.4620E+00
     15.350  0.8945E-02  0.4627E+00
     15.437  0.7114E-02  0.4634E+00
     15.525  0.6862E-02  0.4640E+00
     15.612  0.8860E-02  0.4647E+00
     15.699  0.9303E-02  0.4656E+00
     15.787  0.8221E-02  0.4663E+00
     15.874  0.7044E-02  0.4669E+00
     15.962  0.6928E-02  0.4675E+00
     16.049  0.8419E-02  0.4682E+00
     16.136  0.9295E-02  0.4690E+00
     16.224  0.8930E-02  0.4698E+00
     16.311  0.7834E-02  0.4705E+00
     16.399  0.7282E-02  0.4711E+00
     16.486  0.6308E-02  0.4717E+00
     16.573  0.6605E-02  0.4723E+00
     16.661  0.8535E-02  0.4730E+00
     16.748  0.8843E-02  0.4738E+00
     16.836  0.9061E-02  0.4746E+00
     16.923  0.1049E-01  0.4755E+00
     17.010  0.1343E-01  0.4767E+00
     17.098  0.1534E-01  0.4780E+00
     17.185  0.1712E-01  0.4795E+00
     17.273  0.1656E-01  0.4810E+00
     17.360  0.1267E-01  0.4821E+00
     17.448  0.1079E-01  0.4830E+00
     17.535  0.1196E-01  0.4841E+00
     17.622  0.1491E-01  0.4854E+00
     17.710  0.1487E-01  0.4867E+00
     17.797  0.1285E-01  0.4878E+00
     17.885  0.1110E-01  0.4888E+00
     17.972  0.1056E-01  0.4897E+00
     18.059  0.9254E-02  0.4905E+00
     18.147  0.9628E-02  0.4913E+00
     18.234  0.1164E-01  0.4923E+00
     18.322  0.1482E-01  0.4936E+00
     18.409  0.1633E-01  0.4951E+00
     18.496  0.1405E-01  0.4963E+00
     18.584  0.1215E-01  0.4974E+00
     18.671  0.1064E-01  0.4983E+00
     18.759  0.9950E-02  0.4992E+00
     18.846  0.9956E-02  0.5000E+00
     18.933  0.1055E-01  0.5010E+00
     19.021  0.1186E-01  0.5020E+00
     19.108  0.1245E-01  0.5031E+00
     19.196  0.1131E-01  0.5041E+00
     19.283  0.1077E-01  0.5050E+00
     19.370  0.1181E-01  0.5060E+00
     19.458  0.1421E-01  0.5073E+00
     19.545  0.1434E-01  0.5085E+00
     19.633  0.1177E-01  0.5096E+00
     19.720  0.9035E-02  0.5104E+00
     19.808  0.8031E-02  0.5111E+00
     19.895  0.8774E-02  0.5118E+00
     19.982  0.1118E-01  0.5128E+00
     20.070  0.1219E-01  0.5139E+00
     20.157  0.1084E-01  0.5148E+00
     20.245  0.8426E-02  0.5156E+00
     20.332  0.7798E-02  0.5162E+00
     20.419  0.8468E-02  0.5170E+00
     20.507  0.8296E-02  0.5177E+00
     20.594  0.8679E-02  0.5185E+00
     20.682  0.1162E-01  0.5195E+00
     20.769  0.1281E-01  0.5206E+00
     20.856  0.1175E-01  0.5216E+00
     20.944  0.1127E-01  0.5226E+00
     21.031  0.9838E-02  0.5235E+00
     21.119  0.8111E-02  0.5242E+00
     21.206  0.7249E-02  0.5248E+00
     21.293  0.8248E-02  0.5255E+00
     21.381  0.8656E-02  0.5263E+00
     21.468  0.7557E-02  0.5269E+00
     21.556  0.7149E-02  0.5276E+00
     21.643  0.6611E-02  0.5281E+00
     21.731  0.7897E-02  0.5288E+00
     21.818  0.8697E-02  0.5296E+00
     21.905  0.8718E-02  0.5304E+00
     21.993  0.9807E-02  0.5312E+00
     22.080  0.9166E-02  0.5320E+00
     22.168  0.8314E-02  0.5327E+00
     22.255  0.8633E-02  0.5335E+00
     22.342  0.7909E-02  0.5342E+00
     22.430  0.7290E-02  0.5348E+00
     22.517  0.7305E-02  0.5355E+00
     22.605  0.6674E-02  0.5360E+00
     22.692  0.6229E-02  0.5366E+00
     22.779  0.5041E-02  0.5370E+00
     22.867  0.4177E-02  0.5374E+00
     22.954  0.2659E-02  0.5376E+00
     23.042  0.2326E-02  0.5378E+00
     23.129  0.4300E-02  0.5382E+00
     23.216  0.4395E-02  0.5386E+00
     23.304  0.3052E-02  0.5389E+00
     23.391  0.2238E-02  0.5391E+00
     23.479  0.1783E-02  0.5392E+00
     23.566  0.1363E-02  0.5393E+00
     23.653  0.1089E-02  0.5394E+00
     23.741  0.1413E-02  0.5396E+00
     23.828  0.1447E-02  0.5397E+00
     23.916  0.1274E-02  0.5398E+00
     24.003  0.9655E-03  0.5399E+00
     24.091  0.3313E-03  0.5399E+00
     24.178  0.3392E-04  0.5399E+00
     24.265  0.8854E-06  0.5399E+00
     24.353  0.7689E-08  0.5399E+00
     24.440  0.3569E-06  0.5399E+00
     24.528  0.1454E-04  0.5399E+00
     24.615  0.1539E-03  0.5399E+00
     24.702  0.4471E-03  0.5400E+00
     24.790  0.3721E-03  0.5400E+00
     24.877  0.9031E-04  0.5400E+00
     24.965  0.6320E-05  0.5400E+00
     25.052  0.1229E-06  0.5400E+00
     25.139  0.6288E-09  0.5400E+00
     25.227  0.7994E-12  0.5400E+00
     25.314  0.2412E-15  0.5400E+00
     25.402  0.1505E-19  0.5400E+00
     25.489  0.0000E+00  0.5400E+00
     25.576  0.0000E+00  0.5400E+00
     25.664  0.0000E+00  0.5400E+00
     25.751  0.0000E+00  0.5400E+00
     25.839  0.0000E+00  0.5400E+00
     25.926  0.0000E+00  0.5400E+00
