    4    4  100    1
  0.1419840E+02  0.3697401E-09  0.3697400E-09  0.4154382E-09  0.2000000E-15
  1.000000000000000E-004
  CAR 
 unknown system                          
     44   1688     27
 
  0.0000000E+00  0.0000000E+00  0.0000000E+00  0.2962963E-03
    1        0.895645   1.000000
    2        3.697896   1.000000
    3        3.864350   1.000000
    4        3.864350   1.000000
    5        4.185632   1.000000
    6        4.357382   1.000000
    7        4.357382   1.000000
    8        6.117968   1.000000
    9        7.573191   1.000000
   10        7.573192   1.000000
   11        8.207903   1.000000
   12        9.866254   1.000000
   13       10.526975   1.000000
   14       10.526976   1.000000
   15       10.546486   1.000000
   16       10.546486   1.000000
   17       10.837970   1.000000
   18       11.109830   1.000000
   19       11.109830   1.000000
   20       11.859155   1.000000
   21       11.859156   1.000000
   22       11.933087   1.000000
   23       14.185380   0.000000
   24       14.185382   0.000000
   25       18.253477   0.000000
   26       21.483431   0.000000
   27       21.483479   0.000000
 
  0.6666667E-01  0.2240346E-24  0.0000000E+00  0.5925926E-03
    1        0.962910   1.000000
    2        3.751171   1.000000
    3        3.896159   1.000000
    4        3.912690   1.000000
    5        4.228738   1.000000
    6        4.385209   1.000000
    7        4.388356   1.000000
    8        6.158677   1.000000
    9        7.527191   1.000000
   10        7.592057   1.000000
   11        8.223116   1.000000
   12        9.825999   1.000000
   13       10.483891   1.000000
   14       10.488513   1.000000
   15       10.498739   1.000000
   16       10.527342   1.000000
   17       10.552633   1.000000
   18       10.774230   1.000000
   19       11.103670   1.000000
   20       11.482427   1.000000
   21       11.743211   1.000000
   22       12.562079   1.000000
   23       13.804325   0.000000
   24       14.594074   0.000000
   25       18.215907   0.000000
   26       21.129965   0.000000
   27       21.978115   0.000000
 
  0.1333333E+00  0.4480697E-24  0.4135903E-24  0.5925926E-03
    1        1.162902   1.000000
    2        3.907778   1.000000
    3        3.987184   1.000000
    4        4.054941   1.000000
    5        4.357688   1.000000
    6        4.468368   1.000000
    7        4.481509   1.000000
    8        6.280431   1.000000
    9        7.393343   1.000000
   10        7.649136   1.000000
   11        8.265953   1.000000
   12        9.710940   1.000000
   13        9.714320   1.000000
   14       10.323857   1.000000
   15       10.353317   1.000000
   16       10.414908   1.000000
   17       10.570828   1.000000
   18       10.587099   1.000000
   19       10.721361   1.000000
   20       11.085473   1.000000
   21       11.418858   1.000000
   22       12.882212   0.791989
   23       13.513074   0.000000
   24       15.450048   0.000000
   25       18.112231   0.000000
   26       20.405442   0.000000
   27       22.238296   0.000000
 
  0.2000000E+00  0.5687068E-24  0.1240771E-23  0.5925926E-03
    1        1.489579   1.000000
    2        4.121925   1.000000
    3        4.157278   1.000000
    4        4.281714   1.000000
    5        4.571771   1.000000
    6        4.604966   1.000000
    7        4.637221   1.000000
    8        6.482039   1.000000
    9        7.183121   1.000000
   10        7.744925   1.000000
   11        8.325821   1.000000
   12        8.930843   1.000000
   13        9.540677   1.000000
   14        9.882963   1.000000
   15       10.076179   1.000000
   16       10.134253   1.000000
   17       10.275417   1.000000
   18       10.290510   1.000000
   19       10.600248   1.000000
   20       10.941763   1.000000
   21       11.056034   1.000000
   22       11.758235   1.000000
   23       14.521241   0.000000
   24       16.443349   0.000000
   25       17.967018   0.000000
   26       19.627381   0.000000
   27       21.981530   0.000000
 
  0.2666667E+00  0.4825487E-24  0.2481542E-23  0.5925926E-03
    1        1.931173   1.000000
    2        4.269524   1.000000
    3        4.479400   1.000000
    4        4.574736   1.000000
    5        4.792052   1.000000
    6        4.856106   1.000000
    7        4.869568   1.000000
    8        6.761403   1.000000
    9        6.913235   1.000000
   10        7.880154   1.000000
   11        8.200152   1.000000
   12        8.376091   1.000000
   13        9.053921   1.000000
   14        9.358782   1.000000
   15        9.775344   1.000000
   16        9.834099   1.000000
   17        9.912503   1.000000
   18       10.050439   1.000000
   19       10.373664   1.000000
   20       10.639617   1.000000
   21       10.676796   1.000000
   22       11.016613   1.000000
   23       15.554918   0.000000
   24       17.482214   0.000000
   25       17.813086   0.000000
   26       18.928820   0.000000
   27       21.586965   0.000000
 
  0.3333333E+00  0.6031857E-24  0.8271806E-24  0.5925926E-03
    1        2.466613   1.000000
    2        4.374245   1.000000
    3        4.838209   1.000000
    4        4.901458   1.000000
    5        5.025226   1.000000
    6        5.138907   1.000000
    7        5.249247   1.000000
    8        6.602484   1.000000
    9        7.115422   1.000000
   10        7.529142   1.000000
   11        8.055312   1.000000
   12        8.263787   1.000000
   13        8.365123   1.000000
   14        9.245367   1.000000
   15        9.449521   1.000000
   16        9.458954   1.000000
   17        9.481363   1.000000
   18        9.501109   1.000000
   19        9.765882   1.000000
   20       10.060861   1.000000
   21       10.687233   1.000000
   22       10.968971   1.000000
   23       16.594799   0.000000
   24       17.683845   0.000000
   25       18.370719   0.000000
   26       18.529849   0.000000
   27       21.041232   0.000000
 
  0.4000000E+00  0.1137414E-23  0.2481542E-23  0.5925926E-03
    1        3.058351   1.000000
    2        4.348147   1.000000
    3        5.172037   1.000000
    4        5.205203   1.000000
    5        5.298490   1.000000
    6        5.486313   1.000000
    7        5.708284   1.000000
    8        6.269640   1.000000
    9        6.920985   1.000000
   10        7.526743   1.000000
   11        7.539607   1.000000
   12        8.270099   1.000000
   13        8.272031   1.000000
   14        8.738456   1.000000
   15        9.121833   1.000000
   16        9.131175   1.000000
   17        9.139617   1.000000
   18        9.156146   1.000000
   19        9.267707   1.000000
   20        9.802337   1.000000
   21       10.741018   1.000000
   22       10.915142   1.000000
   23       17.609073   0.000000
   24       17.620364   0.000000
   25       17.972840   0.000000
   26       19.562393   0.000000
   27       20.347976   0.000000
 
  0.4666667E+00  0.8444603E-24  0.1654361E-23  0.5925926E-03
    1        3.639019   1.000000
    2        4.102687   1.000000
    3        5.387605   1.000000
    4        5.397183   1.000000
    5        5.604023   1.000000
    6        5.899064   1.000000
    7        5.931854   1.000000
    8        6.243556   1.000000
    9        6.377338   1.000000
   10        6.851268   1.000000
   11        8.027697   1.000000
   12        8.199783   1.000000
   13        8.312311   1.000000
   14        8.522676   1.000000
   15        8.570763   1.000000
   16        8.809001   1.000000
   17        8.905422   1.000000
   18        8.912583   1.000000
   19        9.398719   1.000000
   20        9.586015   1.000000
   21       10.798631   1.000000
   22       10.857542   1.000000
   23       17.615201   0.000000
   24       17.727992   0.000000
   25       18.607235   0.000000
   26       19.526861   0.000000
   27       20.558824   0.000000
 
  0.5292875E-26  0.6666667E-01  0.4135903E-24  0.5925926E-03
    1        0.962910   1.000000
    2        3.751171   1.000000
    3        3.896159   1.000000
    4        3.912690   1.000000
    5        4.228738   1.000000
    6        4.385209   1.000000
    7        4.388357   1.000000
    8        6.158677   1.000000
    9        7.527192   1.000000
   10        7.592056   1.000000
   11        8.223116   1.000000
   12        9.825999   1.000000
   13       10.483891   1.000000
   14       10.488513   1.000000
   15       10.498739   1.000000
   16       10.527343   1.000000
   17       10.552633   1.000000
   18       10.774230   1.000000
   19       11.103669   1.000000
   20       11.482427   1.000000
   21       11.743211   1.000000
   22       12.562079   1.000000
   23       13.804327   0.000000
   24       14.594072   0.000000
   25       18.215907   0.000000
   26       21.129930   0.000000
   27       21.960865   0.000000
 
  0.6666667E-01  0.6666667E-01  0.2067952E-24  0.5925926E-03
    1        1.029425   1.000000
    2        3.798427   1.000000
    3        3.944723   1.000000
    4        3.944723   1.000000
    5        4.276423   1.000000
    6        4.415742   1.000000
    7        4.415742   1.000000
    8        6.197670   1.000000
    9        7.479768   1.000000
   10        7.613747   1.000000
   11        8.240511   1.000000
   12        9.786704   1.000000
   13       10.204394   1.000000
   14       10.452580   1.000000
   15       10.452580   1.000000
   16       10.494908   1.000000
   17       10.494908   1.000000
   18       10.713401   1.000000
   19       11.076507   1.000000
   20       11.352514   1.000000
   21       11.352514   1.000000
   22       12.952839   0.426427
   23       14.228034   0.000000
   24       14.228036   0.000000
   25       18.177038   0.000000
   26       21.552302   0.000000
   27       21.552318   0.000000
 
  0.1333333E+00  0.6666667E-01  0.7754818E-24  0.5925926E-03
    1        1.227022   1.000000
    2        3.937317   1.000000
    3        4.036273   1.000000
    4        4.087549   1.000000
    5        4.418795   1.000000
    6        4.497301   1.000000
    7        4.507298   1.000000
    8        6.313900   1.000000
    9        7.348706   1.000000
   10        7.672049   1.000000
   11        8.290293   1.000000
   12        9.545658   1.000000
   13        9.674255   1.000000
   14       10.281251   1.000000
   15       10.330921   1.000000
   16       10.358556   1.000000
   17       10.513774   1.000000
   18       10.534342   1.000000
   19       10.628900   1.000000
   20       10.983170   1.000000
   21       11.045778   1.000000
   22       13.362635   0.000000
   23       13.762885   0.000000
   24       15.078925   0.000000
   25       18.069830   0.000000
   26       20.777495   0.000000
   27       22.371737   0.000000
 
  0.2000000E+00  0.6666667E-01  0.2274747E-23  0.5925926E-03
    1        1.549816   1.000000
    2        4.159667   1.000000
    3        4.171921   1.000000
    4        4.315294   1.000000
    5        4.631261   1.000000
    6        4.652578   1.000000
    7        4.660369   1.000000
    8        6.504827   1.000000
    9        7.144917   1.000000
   10        7.767484   1.000000
   11        8.363294   1.000000
   12        8.830778   1.000000
   13        9.507600   1.000000
   14        9.678183   1.000000
   15       10.084331   1.000000
   16       10.189620   1.000000
   17       10.189759   1.000000
   18       10.249332   1.000000
   19       10.434136   1.000000
   20       10.544255   1.000000
   21       11.012149   1.000000
   22       12.347729   1.000000
   23       14.708074   0.000000
   24       16.032018   0.000000
   25       17.919726   0.000000
   26       19.977880   0.000000
   27       22.110061   0.000000
 
  0.2666667E+00  0.6666667E-01  0.1861156E-23  0.5925926E-03
    1        1.986307   1.000000
    2        4.320641   1.000000
    3        4.452573   1.000000
    4        4.609928   1.000000
    5        4.814641   1.000000
    6        4.875536   1.000000
    7        4.968534   1.000000
    8        6.764749   1.000000
    9        6.883294   1.000000
   10        7.901687   1.000000
   11        8.137772   1.000000
   12        8.435595   1.000000
   13        8.881877   1.000000
   14        9.330255   1.000000
   15        9.678678   1.000000
   16        9.784867   1.000000
   17        9.881624   1.000000
   18        9.884456   1.000000
   19       10.032649   1.000000
   20       10.584954   1.000000
   21       10.970861   1.000000
   22       11.395432   1.000000
   23       15.708040   0.000000
   24       16.969794   0.000000
   25       17.761193   0.000000
   26       19.309902   0.000000
   27       21.710117   0.000000
 
  0.3333333E+00  0.6666667E-01  0.1240771E-23  0.5925926E-03
    1        2.516048   1.000000
    2        4.425978   1.000000
    3        4.795379   1.000000
    4        4.938795   1.000000
    5        5.043006   1.000000
    6        5.153427   1.000000
    7        5.348251   1.000000
    8        6.581625   1.000000
    9        7.080399   1.000000
   10        7.490712   1.000000
   11        8.075410   1.000000
   12        8.115189   1.000000
   13        8.458744   1.000000
   14        8.949920   1.000000
   15        9.227897   1.000000
   16        9.460670   1.000000
   17        9.486704   1.000000
   18        9.533907   1.000000
   19        9.737449   1.000000
   20       10.614120   1.000000
   21       10.634013   1.000000
   22       10.922023   1.000000
   23       16.728009   0.000000
   24       17.629049   0.000000
   25       17.692975   0.000000
   26       18.994073   0.000000
   27       21.159080   0.000000
 
  0.4000000E+00  0.6666667E-01  0.2067952E-23  0.5925926E-03
    1        3.102803   1.000000
    2        4.398162   1.000000
    3        5.143962   1.000000
    4        5.244213   1.000000
    5        5.310367   1.000000
    6        5.494655   1.000000
    7        5.769440   1.000000
    8        6.257911   1.000000
    9        6.899340   1.000000
   10        7.407216   1.000000
   11        7.416029   1.000000
   12        8.288510   1.000000
   13        8.323473   1.000000
   14        8.432050   1.000000
   15        9.131841   1.000000
   16        9.134736   1.000000
   17        9.191619   1.000000
   18        9.276981   1.000000
   19        9.339576   1.000000
   20       10.060311   1.000000
   21       10.689252   1.000000
   22       10.867153   1.000000
   23       17.552903   0.000000
   24       17.741659   0.000000
   25       17.797632   0.000000
   26       19.425778   0.000000
   27       20.461931   0.000000
 
  0.4666667E+00  0.6666667E-01  0.0000000E+00  0.5925926E-03
    1        3.681576   1.000000
    2        4.148147   1.000000
    3        5.397387   1.000000
    4        5.431479   1.000000
    5        5.608944   1.000000
    6        5.899659   1.000000
    7        5.928851   1.000000
    8        6.233497   1.000000
    9        6.368204   1.000000
   10        6.775430   1.000000
   11        7.690910   1.000000
   12        7.923642   1.000000
   13        8.531744   1.000000
   14        8.539282   1.000000
   15        8.823761   1.000000
   16        8.880859   1.000000
   17        8.924867   1.000000
   18        8.952329   1.000000
   19        9.448716   1.000000
   20        9.702203   1.000000
   21       10.748247   1.000000
   22       10.808408   1.000000
   23       17.555466   0.000000
   24       17.648652   0.000000
   25       18.722075   0.000000
   26       19.639528   0.000000
   27       20.205041   0.000000
 
 -0.4666667E+00  0.6666667E-01  0.0000000E+00  0.5925926E-03
    1        3.681576   1.000000
    2        4.148147   1.000000
    3        5.397387   1.000000
    4        5.431479   1.000000
    5        5.608944   1.000000
    6        5.899659   1.000000
    7        5.928851   1.000000
    8        6.233497   1.000000
    9        6.368204   1.000000
   10        6.775430   1.000000
   11        7.690909   1.000000
   12        7.923643   1.000000
   13        8.531744   1.000000
   14        8.539282   1.000000
   15        8.823761   1.000000
   16        8.880859   1.000000
   17        8.924867   1.000000
   18        8.952329   1.000000
   19        9.448716   1.000000
   20        9.702203   1.000000
   21       10.748247   1.000000
   22       10.808408   1.000000
   23       17.555466   0.000000
   24       17.648652   0.000000
   25       18.722075   0.000000
   26       19.639529   0.000000
   27       20.205053   0.000000
 
 -0.4000000E+00  0.6666667E-01 -0.1654361E-23  0.5925926E-03
    1        3.102803   1.000000
    2        4.398162   1.000000
    3        5.143962   1.000000
    4        5.244213   1.000000
    5        5.310367   1.000000
    6        5.494655   1.000000
    7        5.769440   1.000000
    8        6.257911   1.000000
    9        6.899340   1.000000
   10        7.407216   1.000000
   11        7.416029   1.000000
   12        8.288510   1.000000
   13        8.323473   1.000000
   14        8.432050   1.000000
   15        9.131841   1.000000
   16        9.134736   1.000000
   17        9.191619   1.000000
   18        9.276981   1.000000
   19        9.339576   1.000000
   20       10.060311   1.000000
   21       10.689252   1.000000
   22       10.867153   1.000000
   23       17.552902   0.000000
   24       17.741659   0.000000
   25       17.797632   0.000000
   26       19.425778   0.000000
   27       20.461931   0.000000
 
 -0.3333333E+00  0.6666667E-01 -0.1654361E-23  0.5925926E-03
    1        2.516048   1.000000
    2        4.425978   1.000000
    3        4.795378   1.000000
    4        4.938795   1.000000
    5        5.043006   1.000000
    6        5.153427   1.000000
    7        5.348251   1.000000
    8        6.581625   1.000000
    9        7.080399   1.000000
   10        7.490712   1.000000
   11        8.075410   1.000000
   12        8.115189   1.000000
   13        8.458744   1.000000
   14        8.949921   1.000000
   15        9.227897   1.000000
   16        9.460670   1.000000
   17        9.486704   1.000000
   18        9.533907   1.000000
   19        9.737449   1.000000
   20       10.614120   1.000000
   21       10.634013   1.000000
   22       10.922023   1.000000
   23       16.728009   0.000000
   24       17.629049   0.000000
   25       17.692975   0.000000
   26       18.994073   0.000000
   27       21.159080   0.000000
 
 -0.2666667E+00  0.6666667E-01 -0.1654361E-23  0.5925926E-03
    1        1.986307   1.000000
    2        4.320641   1.000000
    3        4.452573   1.000000
    4        4.609928   1.000000
    5        4.814641   1.000000
    6        4.875536   1.000000
    7        4.968534   1.000000
    8        6.764749   1.000000
    9        6.883294   1.000000
   10        7.901687   1.000000
   11        8.137772   1.000000
   12        8.435595   1.000000
   13        8.881877   1.000000
   14        9.330255   1.000000
   15        9.678678   1.000000
   16        9.784867   1.000000
   17        9.881624   1.000000
   18        9.884456   1.000000
   19       10.032649   1.000000
   20       10.584954   1.000000
   21       10.970861   1.000000
   22       11.395432   1.000000
   23       15.708040   0.000000
   24       16.969795   0.000000
   25       17.761193   0.000000
   26       19.309902   0.000000
   27       21.710118   0.000000
 
 -0.2000000E+00  0.6666667E-01  0.0000000E+00  0.5925926E-03
    1        1.549816   1.000000
    2        4.159667   1.000000
    3        4.171921   1.000000
    4        4.315294   1.000000
    5        4.631261   1.000000
    6        4.652578   1.000000
    7        4.660369   1.000000
    8        6.504827   1.000000
    9        7.144917   1.000000
   10        7.767484   1.000000
   11        8.363294   1.000000
   12        8.830778   1.000000
   13        9.507600   1.000000
   14        9.678183   1.000000
   15       10.084331   1.000000
   16       10.189620   1.000000
   17       10.189759   1.000000
   18       10.249332   1.000000
   19       10.434136   1.000000
   20       10.544255   1.000000
   21       11.012149   1.000000
   22       12.347729   1.000000
   23       14.708074   0.000000
   24       16.032018   0.000000
   25       17.919726   0.000000
   26       19.977880   0.000000
   27       22.110061   0.000000
 
 -0.1333333E+00  0.6666667E-01 -0.8271806E-24  0.5925926E-03
    1        1.227022   1.000000
    2        3.937317   1.000000
    3        4.036273   1.000000
    4        4.087549   1.000000
    5        4.418795   1.000000
    6        4.497301   1.000000
    7        4.507298   1.000000
    8        6.313900   1.000000
    9        7.348706   1.000000
   10        7.672049   1.000000
   11        8.290293   1.000000
   12        9.545658   1.000000
   13        9.674255   1.000000
   14       10.281251   1.000000
   15       10.330921   1.000000
   16       10.358556   1.000000
   17       10.513774   1.000000
   18       10.534342   1.000000
   19       10.628900   1.000000
   20       10.983170   1.000000
   21       11.045778   1.000000
   22       13.362635   0.000000
   23       13.762885   0.000000
   24       15.078925   0.000000
   25       18.069830   0.000000
   26       20.777495   0.000000
   27       22.373157   0.000000
 
 -0.6666667E-01  0.6666667E-01  0.4135903E-24  0.5925926E-03
    1        1.029425   1.000000
    2        3.798427   1.000000
    3        3.944723   1.000000
    4        3.944723   1.000000
    5        4.276423   1.000000
    6        4.415742   1.000000
    7        4.415742   1.000000
    8        6.197670   1.000000
    9        7.479768   1.000000
   10        7.613747   1.000000
   11        8.240511   1.000000
   12        9.786704   1.000000
   13       10.204394   1.000000
   14       10.452580   1.000000
   15       10.452580   1.000000
   16       10.494908   1.000000
   17       10.494908   1.000000
   18       10.713401   1.000000
   19       11.076507   1.000000
   20       11.352514   1.000000
   21       11.352514   1.000000
   22       12.952839   0.426427
   23       14.228034   0.000000
   24       14.228036   0.000000
   25       18.177038   0.000000
   26       21.552298   0.000000
   27       21.552322   0.000000
 
  0.2173813E-24  0.1333333E+00  0.0000000E+00  0.5925926E-03
    1        1.162903   1.000000
    2        3.907778   1.000000
    3        3.987184   1.000000
    4        4.054941   1.000000
    5        4.357688   1.000000
    6        4.468368   1.000000
    7        4.481510   1.000000
    8        6.280431   1.000000
    9        7.393343   1.000000
   10        7.649135   1.000000
   11        8.265954   1.000000
   12        9.710940   1.000000
   13        9.714321   1.000000
   14       10.323857   1.000000
   15       10.353317   1.000000
   16       10.414908   1.000000
   17       10.570828   1.000000
   18       10.587099   1.000000
   19       10.721361   1.000000
   20       11.085472   1.000000
   21       11.418857   1.000000
   22       12.882214   0.791981
   23       13.513075   0.000000
   24       15.450047   0.000000
   25       18.112231   0.000000
   26       20.405441   0.000000
   27       22.238372   0.000000
 
  0.6666667E-01  0.1333333E+00  0.1240771E-23  0.5925926E-03
    1        1.227022   1.000000
    2        3.937317   1.000000
    3        4.036273   1.000000
    4        4.087549   1.000000
    5        4.418795   1.000000
    6        4.497301   1.000000
    7        4.507298   1.000000
    8        6.313900   1.000000
    9        7.348706   1.000000
   10        7.672048   1.000000
   11        8.290293   1.000000
   12        9.545658   1.000000
   13        9.674255   1.000000
   14       10.281251   1.000000
   15       10.330921   1.000000
   16       10.358556   1.000000
   17       10.513774   1.000000
   18       10.534342   1.000000
   19       10.628899   1.000000
   20       10.983170   1.000000
   21       11.045778   1.000000
   22       13.362636   0.000000
   23       13.762886   0.000000
   24       15.078924   0.000000
   25       18.069830   0.000000
   26       20.777495   0.000000
   27       22.371241   0.000000
 
  0.1333333E+00  0.1333333E+00 -0.8271806E-24  0.5925926E-03
    1        1.417586   1.000000
    2        4.030632   1.000000
    3        4.180753   1.000000
    4        4.180753   1.000000
    5        4.584110   1.000000
    6        4.584110   1.000000
    7        4.593672   1.000000
    8        6.412824   1.000000
    9        7.225408   1.000000
   10        7.733950   1.000000
   11        8.361868   1.000000
   12        9.112679   1.000000
   13        9.568858   1.000000
   14       10.012787   1.000000
   15       10.012787   1.000000
   16       10.351760   1.000000
   17       10.351760   1.000000
   18       10.377845   1.000000
   19       10.428131   1.000000
   20       10.428132   1.000000
   21       10.976792   1.000000
   22       14.222791   0.000000
   23       14.222792   0.000000
   24       14.388017   0.000000
   25       17.952419   0.000000
   26       21.644021   0.000000
   27       21.644024   0.000000
 
  0.2000000E+00  0.1333333E+00  0.1033976E-23  0.5925926E-03
    1        1.728833   1.000000
    2        4.194982   1.000000
    3        4.319247   1.000000
    4        4.411621   1.000000
    5        4.710147   1.000000
    6        4.729228   1.000000
    7        4.863053   1.000000
    8        6.571944   1.000000
    9        7.037521   1.000000
   10        7.830623   1.000000
   11        8.474611   1.000000
   12        8.551919   1.000000
   13        9.260473   1.000000
   14        9.411659   1.000000
   15        9.517731   1.000000
   16       10.108310   1.000000
   17       10.125381   1.000000
   18       10.181004   1.000000
   19       10.212050   1.000000
   20       10.385308   1.000000
   21       10.914853   1.000000
   22       13.224455   0.000028
   23       15.134814   0.000000
   24       15.211689   0.000000
   25       17.787582   0.000000
   26       20.737860   0.000000
   27       22.423324   0.000000
 
  0.2666667E+00  0.1333333E+00  0.1861156E-23  0.5925926E-03
    1        2.149978   1.000000
    2        4.432376   1.000000
    3        4.471568   1.000000
    4        4.711226   1.000000
    5        4.882384   1.000000
    6        4.933219   1.000000
    7        5.201292   1.000000
    8        6.779076   1.000000
    9        6.798087   1.000000
   10        7.957974   1.000000
   11        7.963344   1.000000
   12        8.484743   1.000000
   13        8.607652   1.000000
   14        8.895322   1.000000
   15        9.246898   1.000000
   16        9.797643   1.000000
   17        9.812908   1.000000
   18        9.918671   1.000000
   19        9.966610   1.000000
   20       10.429930   1.000000
   21       10.857114   1.000000
   22       12.257917   1.000000
   23       16.007927   0.000000
   24       16.135283   0.000000
   25       17.613699   0.000000
   26       19.970067   0.000000
   27       21.790476   0.000000
 
  0.3333333E+00  0.1333333E+00  0.1861156E-23  0.5925926E-03
    1        2.662369   1.000000
    2        4.578826   1.000000
    3        4.737032   1.000000
    4        5.047254   1.000000
    5        5.096385   1.000000
    6        5.196479   1.000000
    7        5.572317   1.000000
    8        6.521872   1.000000
    9        7.007780   1.000000
   10        7.378137   1.000000
   11        7.758471   1.000000
   12        8.133768   1.000000
   13        8.264089   1.000000
   14        8.688723   1.000000
   15        9.193437   1.000000
   16        9.438220   1.000000
   17        9.493490   1.000000
   18        9.606935   1.000000
   19        9.680433   1.000000
   20       10.483439   1.000000
   21       10.798287   1.000000
   22       11.400816   1.000000
   23       16.749321   0.000000
   24       17.106505   0.000000
   25       17.468909   0.000000
   26       19.456436   0.000000
   27       21.235284   0.000000
 
  0.4000000E+00  0.1333333E+00  0.2688337E-23  0.5925926E-03
    1        3.233498   1.000000
    2        4.545099   1.000000
    3        5.087779   1.000000
    4        5.346191   1.000000
    5        5.358786   1.000000
    6        5.519240   1.000000
    7        5.925130   1.000000
    8        6.224493   1.000000
    9        6.835254   1.000000
   10        7.110426   1.000000
   11        7.207513   1.000000
   12        7.753481   1.000000
   13        8.342419   1.000000
   14        8.690026   1.000000
   15        9.124130   1.000000
   16        9.172675   1.000000
   17        9.283371   1.000000
   18        9.360737   1.000000
   19        9.364024   1.000000
   20       10.543380   1.000000
   21       10.686219   1.000000
   22       10.736544   1.000000
   23       17.211714   0.000000
   24       17.380185   0.000000
   25       18.089734   0.000000
   26       19.341186   0.000000
   27       20.716442   0.000000
 
  0.4666667E+00  0.1333333E+00 -0.4135903E-24  0.5925926E-03
    1        3.805440   1.000000
    2        4.280254   1.000000
    3        5.412711   1.000000
    4        5.528713   1.000000
    5        5.624196   1.000000
    6        5.901168   1.000000
    7        5.920794   1.000000
    8        6.227229   1.000000
    9        6.340879   1.000000
   10        6.584604   1.000000
   11        7.333796   1.000000
   12        7.460900   1.000000
   13        8.588101   1.000000
   14        8.788691   1.000000
   15        8.867143   1.000000
   16        8.963695   1.000000
   17        9.031991   1.000000
   18        9.039201   1.000000
   19        9.684317   1.000000
   20       10.119547   1.000000
   21       10.607177   1.000000
   22       10.672297   1.000000
   23       17.347296   0.000000
   24       17.353221   0.000000
   25       19.053497   0.000000
   26       19.649094   0.000000
   27       19.965668   0.000000
 
 -0.4666667E+00  0.1333333E+00  0.0000000E+00  0.5925926E-03
    1        3.805440   1.000000
    2        4.280254   1.000000
    3        5.412711   1.000000
    4        5.528713   1.000000
    5        5.624196   1.000000