 running on   24 total cores
 distrk:  each k-point on   24 cores,    1 groups
 distr:  one band on    8 cores,    3 groups
 using from now: INCAR     
 vasp.5.4.4.18Apr17-6-g9f103f2a35 (build Jan 14 2019 14:48:31) complex          
  
 POSCAR found type information on POSCAR  Au
 POSCAR found :  1 types and       4 ions
 scaLAPACK will be used
 LDA part: xc-table for Pade appr. of Perdew
 POSCAR found type information on POSCAR  Au
 POSCAR found :  1 types and       4 ions
 POSCAR, INCAR and KPOINTS ok, starting setup
 FFT: planning ...
 WAVECAR not read
 entering main loop
       N       E                     dE             d eps       ncg     rms          rms(c)
DAV:   1     0.296550279739E+03    0.29655E+03   -0.23262E+04 92295   0.157E+03
DAV:   2    -0.613932138268E+01   -0.30269E+03   -0.29573E+03102888   0.353E+02
DAV:   3    -0.113862949556E+02   -0.52470E+01   -0.52196E+01102951   0.498E+01
DAV:   4    -0.114121660860E+02   -0.25871E-01   -0.25867E-01106308   0.356E+00
DAV:   5    -0.114123762905E+02   -0.21020E-03   -0.21020E-03107253   0.335E-01    0.334E+01
RMM:   6    -0.105298631006E+02    0.88251E+00   -0.16122E+00 91152   0.877E+00    0.199E+01
RMM:   7    -0.103968164324E+02    0.13305E+00   -0.64390E-01 91152   0.544E+00    0.364E+00
RMM:   8    -0.103741138364E+02    0.22703E-01   -0.70007E-02 91152   0.185E+00    0.615E-01
RMM:   9    -0.103740597066E+02    0.54130E-04   -0.14468E-04 91152   0.807E-02    0.723E-02
RMM:  10    -0.103740622771E+02   -0.25705E-05   -0.18165E-05 91152   0.337E-02    0.553E-02
RMM:  11    -0.103740665418E+02   -0.42647E-05   -0.38512E-06 64758   0.141E-02    0.170E-03
RMM:  12    -0.103740665752E+02   -0.33443E-07   -0.54463E-08 31870   0.155E-03
   1 F= -.10374067E+02 E0= -.10371259E+02  d E =-.103741E+02
 curvature:   0.00 expect dE= 0.000E+00 dE for cont linesearch  0.000E+00
 trial: gam= 0.00000 g(F)=  0.176E-13 g(S)=  0.000E+00 ort = 0.000E+00 (trialstep = 0.100E+01)
 search vector abs. value=  0.100E-09
 reached required accuracy - stopping structural energy minimisation
