unknown system                          
           1
     3.697401   -0.000000   -0.000000
    -0.000000    3.697400    0.000000
    -0.000000    0.000000    4.154382
   Au
   4
Direct configuration=     1
   1.00000000  0.00000000  0.00000000
   0.00000000  0.50000000  0.50000000
   0.50000000  1.00000000  0.50000000
   0.50000000  0.50000000  1.00000000
