   4   4   0   0
  0.1746802E+02  0.4118774E-09  0.4118773E-09  0.4118773E-09  0.2000000E-15
  1.000000000000000E-004
  CAR 
 unknown system                          
     19.45524072     -1.52932466  301      9.10642519      1.00000000
     -1.529  0.0000E+00  0.0000E+00
     -1.459  0.0000E+00  0.0000E+00
     -1.389  0.0000E+00  0.0000E+00
     -1.319  0.0000E+00  0.0000E+00
     -1.250  0.0000E+00  0.0000E+00
     -1.180  0.0000E+00  0.0000E+00
     -1.110  0.9406E-20  0.6579E-21
     -1.040  0.2295E-16  0.1606E-17
     -0.970  0.2090E-13  0.1463E-14
     -0.900  0.7473E-11  0.5242E-12
     -0.830  0.1076E-08  0.7578E-10
     -0.760  0.6489E-07  0.4614E-08
     -0.690  0.1731E-05  0.1257E-06
     -0.620  0.2175E-04  0.1647E-05
     -0.550  0.1365E-03  0.1119E-04
     -0.480  0.4499E-03  0.4266E-04
     -0.410  0.8551E-03  0.1025E-03
     -0.340  0.1213E-02  0.1873E-03
     -0.270  0.1649E-02  0.3026E-03
     -0.200  0.1829E-02  0.4306E-03
     -0.130  0.1830E-02  0.5585E-03
     -0.060  0.2292E-02  0.7189E-03
      0.010  0.2645E-02  0.9039E-03
      0.079  0.2672E-02  0.1091E-02
      0.149  0.2835E-02  0.1289E-02
      0.219  0.2739E-02  0.1481E-02
      0.289  0.2961E-02  0.1688E-02
      0.359  0.3746E-02  0.1950E-02
      0.429  0.4051E-02  0.2233E-02
      0.499  0.3928E-02  0.2508E-02
      0.569  0.3308E-02  0.2739E-02
      0.639  0.3398E-02  0.2977E-02
      0.709  0.4687E-02  0.3305E-02
      0.779  0.5323E-02  0.3677E-02
      0.849  0.5056E-02  0.4031E-02
      0.919  0.4656E-02  0.4357E-02
      0.989  0.4842E-02  0.4695E-02
      1.059  0.5488E-02  0.5079E-02
      1.129  0.5685E-02  0.5477E-02
      1.199  0.5704E-02  0.5876E-02
      1.269  0.6132E-02  0.6305E-02
      1.339  0.7413E-02  0.6823E-02
      1.409  0.7882E-02  0.7375E-02
      1.478  0.7239E-02  0.7881E-02
      1.548  0.6899E-02  0.8364E-02
      1.618  0.7208E-02  0.8868E-02
      1.688  0.9373E-02  0.9523E-02
      1.758  0.1192E-01  0.1036E-01
      1.828  0.1182E-01  0.1118E-01
      1.898  0.1169E-01  0.1200E-01
      1.968  0.1655E-01  0.1316E-01
      2.038  0.2292E-01  0.1476E-01
      2.108  0.2656E-01  0.1662E-01
      2.178  0.2773E-01  0.1856E-01
      2.248  0.2851E-01  0.2055E-01
      2.318  0.3354E-01  0.2290E-01
      2.388  0.4103E-01  0.2577E-01
      2.458  0.4656E-01  0.2903E-01
      2.528  0.5164E-01  0.3264E-01
      2.598  0.5844E-01  0.3673E-01
      2.668  0.6688E-01  0.4141E-01
      2.738  0.7347E-01  0.4654E-01
      2.807  0.7675E-01  0.5191E-01
      2.877  0.7656E-01  0.5727E-01
      2.947  0.7573E-01  0.6257E-01
      3.017  0.7419E-01  0.6776E-01
      3.087  0.6902E-01  0.7258E-01
      3.157  0.6799E-01  0.7734E-01
      3.227  0.6870E-01  0.8215E-01
      3.297  0.6501E-01  0.8669E-01
      3.367  0.6247E-01  0.9106E-01
      3.437  0.5764E-01  0.9509E-01
      3.507  0.5052E-01  0.9863E-01
      3.577  0.5137E-01  0.1022E+00
      3.647  0.5612E-01  0.1061E+00
      3.717  0.6142E-01  0.1104E+00
      3.787  0.6813E-01  0.1152E+00
      3.857  0.7523E-01  0.1205E+00
      3.927  0.7948E-01  0.1260E+00
      3.997  0.8216E-01  0.1318E+00
      4.067  0.8081E-01  0.1374E+00
      4.137  0.7869E-01  0.1429E+00
      4.206  0.8227E-01  0.1487E+00
      4.276  0.8599E-01  0.1547E+00
      4.346  0.8606E-01  0.1607E+00
      4.416  0.8508E-01  0.1667E+00
      4.486  0.8794E-01  0.1728E+00
      4.556  0.9607E-01  0.1795E+00
      4.626  0.1086E+00  0.1871E+00
      4.696  0.1207E+00  0.1956E+00
      4.766  0.1299E+00  0.2047E+00
      4.836  0.1341E+00  0.2140E+00
      4.906  0.1214E+00  0.2225E+00
      4.976  0.9869E-01  0.2294E+00
      5.046  0.8576E-01  0.2354E+00
      5.116  0.7781E-01  0.2409E+00
      5.186  0.7156E-01  0.2459E+00
      5.256  0.6910E-01  0.2507E+00
      5.326  0.6693E-01  0.2554E+00
      5.396  0.6581E-01  0.2600E+00
      5.466  0.6772E-01  0.2647E+00
      5.535  0.7289E-01  0.2698E+00
      5.605  0.8154E-01  0.2755E+00
      5.675  0.8522E-01  0.2815E+00
      5.745  0.8374E-01  0.2874E+00
      5.815  0.8723E-01  0.2935E+00
      5.885  0.9146E-01  0.2999E+00
      5.955  0.8768E-01  0.3060E+00
      6.025  0.7899E-01  0.3115E+00
      6.095  0.7598E-01  0.3168E+00
      6.165  0.7761E-01  0.3223E+00
      6.235  0.7499E-01  0.3275E+00
      6.305  0.6811E-01  0.3323E+00
      6.375  0.6277E-01  0.3367E+00
      6.445  0.6493E-01  0.3412E+00
      6.515  0.7058E-01  0.3461E+00
      6.585  0.7275E-01  0.3512E+00
      6.655  0.6884E-01  0.3560E+00
      6.725  0.7156E-01  0.3610E+00
      6.795  0.8109E-01  0.3667E+00
      6.865  0.8521E-01  0.3727E+00
      6.934  0.9342E-01  0.3792E+00
      7.004  0.1146E+00  0.3872E+00
      7.074  0.1250E+00  0.3960E+00
      7.144  0.1093E+00  0.4036E+00
      7.214  0.8520E-01  0.4096E+00
      7.284  0.6148E-01  0.4139E+00
      7.354  0.4636E-01  0.4171E+00
      7.424  0.3988E-01  0.4199E+00
      7.494  0.2944E-01  0.4220E+00
      7.564  0.1493E-01  0.4230E+00
      7.634  0.6904E-02  0.4235E+00
      7.704  0.6039E-02  0.4239E+00
      7.774  0.8605E-02  0.4245E+00
      7.844  0.1362E-01  0.4255E+00
      7.914  0.1652E-01  0.4266E+00
      7.984  0.1373E-01  0.4276E+00
      8.054  0.9197E-02  0.4282E+00
      8.124  0.8006E-02  0.4288E+00
      8.194  0.1010E-01  0.4295E+00
      8.263  0.1275E-01  0.4304E+00
      8.333  0.1358E-01  0.4313E+00
      8.403  0.1313E-01  0.4323E+00
      8.473  0.1196E-01  0.4331E+00
      8.543  0.1026E-01  0.4338E+00
      8.613  0.9301E-02  0.4345E+00
      8.683  0.9771E-02  0.4352E+00
      8.753  0.1225E-01  0.4360E+00
      8.823  0.1401E-01  0.4370E+00
      8.893  0.1353E-01  0.4379E+00
      8.963  0.1170E-01  0.4388E+00
      9.033  0.9217E-02  0.4394E+00
      9.103  0.8145E-02  0.4400E+00
      9.173  0.9489E-02  0.4406E+00
      9.243  0.1259E-01  0.4415E+00
      9.313  0.1463E-01  0.4425E+00
      9.383  0.1502E-01  0.4436E+00
      9.453  0.1423E-01  0.4446E+00
      9.523  0.1041E-01  0.4453E+00
      9.592  0.6478E-02  0.4458E+00
      9.662  0.7111E-02  0.4463E+00
      9.732  0.1032E-01  0.4470E+00
      9.802  0.1240E-01  0.4479E+00
      9.872  0.1285E-01  0.4488E+00
      9.942  0.1287E-01  0.4497E+00
     10.012  0.1333E-01  0.4506E+00
     10.082  0.1198E-01  0.4514E+00
     10.152  0.1010E-01  0.4521E+00
     10.222  0.1064E-01  0.4529E+00
     10.292  0.1116E-01  0.4537E+00
     10.362  0.1108E-01  0.4544E+00
     10.432  0.1081E-01  0.4552E+00
     10.502  0.9769E-02  0.4559E+00
     10.572  0.1051E-01  0.4566E+00
     10.642  0.1240E-01  0.4575E+00
     10.712  0.1202E-01  0.4583E+00
     10.782  0.1061E-01  0.4591E+00
     10.852  0.9620E-02  0.4597E+00
     10.922  0.9272E-02  0.4604E+00
     10.991  0.9893E-02  0.4611E+00
     11.061  0.1198E-01  0.4619E+00
     11.131  0.1339E-01  0.4628E+00
     11.201  0.1123E-01  0.4636E+00
     11.271  0.9240E-02  0.4643E+00
     11.341  0.8942E-02  0.4649E+00
     11.411  0.7748E-02  0.4654E+00
     11.481  0.8224E-02  0.4660E+00
     11.551  0.1108E-01  0.4668E+00
     11.621  0.1251E-01  0.4677E+00
     11.691  0.1080E-01  0.4684E+00
     11.761  0.8399E-02  0.4690E+00
     11.831  0.7443E-02  0.4695E+00
     11.901  0.8940E-02  0.4702E+00
     11.971  0.1430E-01  0.4712E+00
     12.041  0.2120E-01  0.4726E+00
     12.111  0.2270E-01  0.4742E+00
     12.181  0.1780E-01  0.4755E+00
     12.251  0.1286E-01  0.4764E+00
     12.320  0.1160E-01  0.4772E+00
     12.390  0.1403E-01  0.4782E+00
     12.460  0.1621E-01  0.4793E+00
     12.530  0.1568E-01  0.4804E+00
     12.600  0.1462E-01  0.4814E+00
     12.670  0.1350E-01  0.4824E+00
     12.740  0.1025E-01  0.4831E+00
     12.810  0.7054E-02  0.4836E+00
     12.880  0.9149E-02  0.4842E+00
     12.950  0.1283E-01  0.4851E+00
     13.020  0.1230E-01  0.4860E+00
     13.090  0.1074E-01  0.4867E+00
     13.160  0.1230E-01  0.4876E+00
     13.230  0.1234E-01  0.4884E+00
     13.300  0.9417E-02  0.4891E+00
     13.370  0.8028E-02  0.4897E+00
     13.440  0.8136E-02  0.4902E+00
     13.510  0.9552E-02  0.4909E+00
     13.580  0.1225E-01  0.4918E+00
     13.650  0.1419E-01  0.4928E+00
     13.719  0.1391E-01  0.4937E+00
     13.789  0.1253E-01  0.4946E+00
     13.859  0.1057E-01  0.4953E+00
     13.929  0.1117E-01  0.4961E+00
     13.999  0.1372E-01  0.4971E+00
     14.069  0.1592E-01  0.4982E+00
     14.139  0.1691E-01  0.4994E+00
     14.209  0.1328E-01  0.5003E+00
     14.279  0.9239E-02  0.5010E+00
     14.349  0.9368E-02  0.5016E+00
     14.419  0.1323E-01  0.5025E+00
     14.489  0.1584E-01  0.5036E+00
     14.559  0.1585E-01  0.5047E+00
     14.629  0.1624E-01  0.5059E+00
     14.699  0.1744E-01  0.5071E+00
     14.769  0.1727E-01  0.5083E+00
     14.839  0.1496E-01  0.5094E+00
     14.909  0.1309E-01  0.5103E+00
     14.979  0.1057E-01  0.5110E+00
     15.048  0.8365E-02  0.5116E+00
     15.118  0.8712E-02  0.5122E+00
     15.188  0.1119E-01  0.5130E+00
     15.258  0.1404E-01  0.5140E+00
     15.328  0.1402E-01  0.5150E+00
     15.398  0.9866E-02  0.5156E+00
     15.468  0.7656E-02  0.5162E+00
     15.538  0.7759E-02  0.5167E+00
     15.608  0.8593E-02  0.5173E+00
     15.678  0.1039E-01  0.5181E+00
     15.748  0.1256E-01  0.5189E+00
     15.818  0.1312E-01  0.5198E+00
     15.888  0.1190E-01  0.5207E+00
     15.958  0.1021E-01  0.5214E+00
     16.028  0.8655E-02  0.5220E+00
     16.098  0.9716E-02  0.5227E+00
     16.168  0.1246E-01  0.5236E+00
     16.238  0.1516E-01  0.5246E+00
     16.308  0.1433E-01  0.5256E+00
     16.378  0.9196E-02  0.5263E+00
     16.447  0.7103E-02  0.5268E+00
     16.517  0.9585E-02  0.5274E+00
     16.587  0.1092E-01  0.5282E+00
     16.657  0.9190E-02  0.5288E+00
     16.727  0.7746E-02  0.5294E+00
     16.797  0.1015E-01  0.5301E+00
     16.867  0.1547E-01  0.5312E+00
     16.937  0.1694E-01  0.5323E+00
     17.007  0.1244E-01  0.5332E+00
     17.077  0.8926E-02  0.5338E+00
     17.147  0.9004E-02  0.5345E+00
     17.217  0.8158E-02  0.5350E+00
     17.287  0.6533E-02  0.5355E+00
     17.357  0.6116E-02  0.5359E+00
     17.427  0.7573E-02  0.5365E+00
     17.497  0.9801E-02  0.5371E+00
     17.567  0.8639E-02  0.5377E+00
     17.637  0.4749E-02  0.5381E+00
     17.707  0.2129E-02  0.5382E+00
     17.776  0.1664E-02  0.5383E+00
     17.846  0.2299E-02  0.5385E+00
     17.916  0.2718E-02  0.5387E+00
     17.986  0.3027E-02  0.5389E+00
     18.056  0.3239E-02  0.5391E+00
     18.126  0.2945E-02  0.5393E+00
     18.196  0.2411E-02  0.5395E+00
     18.266  0.1888E-02  0.5396E+00
     18.336  0.1269E-02  0.5397E+00
     18.406  0.1374E-02  0.5398E+00
     18.476  0.1504E-02  0.5399E+00
     18.546  0.7760E-03  0.5400E+00
     18.616  0.1676E-03  0.5400E+00
     18.686  0.1493E-04  0.5400E+00
     18.756  0.5445E-06  0.5400E+00
     18.826  0.8063E-08  0.5400E+00
     18.896  0.4809E-10  0.5400E+00
     18.966  0.1146E-12  0.5400E+00
     19.036  0.1082E-15  0.5400E+00
     19.105  0.1881E-19  0.5400E+00
     19.175  0.0000E+00  0.5400E+00
     19.245  0.0000E+00  0.5400E+00
     19.315  0.0000E+00  0.5400E+00
     19.385  0.0000E+00  0.5400E+00
     19.455  0.0000E+00  0.5400E+00
