   4   4   0   0
  0.1576022E+02  0.3697401E-09  0.4179441E-09  0.4179441E-09  0.2000000E-15
  1.000000000000000E-004
  CAR 
 unknown system                          
     23.26144083     -1.00087442  301     10.89377223      1.00000000
     -1.001  0.0000E+00  0.0000E+00
     -0.920  0.0000E+00  0.0000E+00
     -0.839  0.0000E+00  0.0000E+00
     -0.758  0.0000E+00  0.0000E+00
     -0.677  0.0000E+00  0.0000E+00
     -0.597  0.0000E+00  0.0000E+00
     -0.516  0.0000E+00  0.0000E+00
     -0.435  0.1188E-17  0.9605E-19
     -0.354  0.4286E-14  0.3467E-15
     -0.273  0.4407E-11  0.3567E-12
     -0.192  0.1329E-08  0.1078E-09
     -0.111  0.1253E-06  0.1024E-07
     -0.030  0.4087E-05  0.3408E-06
      0.050  0.5150E-04  0.4506E-05
      0.131  0.2743E-03  0.2669E-04
      0.212  0.6830E-03  0.8192E-04
      0.293  0.1036E-02  0.1657E-03
      0.374  0.1425E-02  0.2809E-03
      0.455  0.1675E-02  0.4164E-03
      0.536  0.1735E-02  0.5567E-03
      0.617  0.2076E-02  0.7246E-03
      0.697  0.2403E-02  0.9190E-03
      0.778  0.2458E-02  0.1118E-02
      0.859  0.2591E-02  0.1327E-02
      0.940  0.2758E-02  0.1550E-02
      1.021  0.3073E-02  0.1799E-02
      1.102  0.3410E-02  0.2075E-02
      1.183  0.3529E-02  0.2360E-02
      1.264  0.3314E-02  0.2628E-02
      1.344  0.3678E-02  0.2926E-02
      1.425  0.4499E-02  0.3289E-02
      1.506  0.4415E-02  0.3646E-02
      1.587  0.4270E-02  0.3992E-02
      1.668  0.4674E-02  0.4370E-02
      1.749  0.5001E-02  0.4774E-02
      1.830  0.5607E-02  0.5228E-02
      1.911  0.5996E-02  0.5713E-02
      1.991  0.6025E-02  0.6200E-02
      2.072  0.6407E-02  0.6718E-02
      2.153  0.7314E-02  0.7310E-02
      2.234  0.8240E-02  0.7976E-02
      2.315  0.9164E-02  0.8717E-02
      2.396  0.1115E-01  0.9618E-02
      2.477  0.1364E-01  0.1072E-01
      2.558  0.1507E-01  0.1194E-01
      2.638  0.1500E-01  0.1315E-01
      2.719  0.1519E-01  0.1438E-01
      2.800  0.1762E-01  0.1581E-01
      2.881  0.2300E-01  0.1767E-01
      2.962  0.3126E-01  0.2020E-01
      3.043  0.3960E-01  0.2340E-01
      3.124  0.4424E-01  0.2698E-01
      3.205  0.4573E-01  0.3067E-01
      3.285  0.4754E-01  0.3452E-01
      3.366  0.5225E-01  0.3874E-01
      3.447  0.5450E-01  0.4315E-01
      3.528  0.5450E-01  0.4756E-01
      3.609  0.5420E-01  0.5194E-01
      3.690  0.5454E-01  0.5635E-01
      3.771  0.5496E-01  0.6080E-01
      3.852  0.5383E-01  0.6515E-01
      3.932  0.5478E-01  0.6958E-01
      4.013  0.5803E-01  0.7428E-01
      4.094  0.5909E-01  0.7905E-01
      4.175  0.6239E-01  0.8410E-01
      4.256  0.6940E-01  0.8971E-01
      4.337  0.7237E-01  0.9557E-01
      4.418  0.7275E-01  0.1014E+00
      4.499  0.7527E-01  0.1075E+00
      4.579  0.8087E-01  0.1141E+00
      4.660  0.8678E-01  0.1211E+00
      4.741  0.8774E-01  0.1282E+00
      4.822  0.8290E-01  0.1349E+00
      4.903  0.7315E-01  0.1408E+00
      4.984  0.6243E-01  0.1459E+00
      5.065  0.5545E-01  0.1503E+00
      5.146  0.5412E-01  0.1547E+00
      5.226  0.6093E-01  0.1596E+00
      5.307  0.6742E-01  0.1651E+00
      5.388  0.6880E-01  0.1707E+00
      5.469  0.6833E-01  0.1762E+00
      5.550  0.6800E-01  0.1817E+00
      5.631  0.6655E-01  0.1871E+00
      5.712  0.6358E-01  0.1922E+00
      5.793  0.5805E-01  0.1969E+00
      5.873  0.5400E-01  0.2013E+00
      5.954  0.5250E-01  0.2055E+00
      6.035  0.4875E-01  0.2095E+00
      6.116  0.4412E-01  0.2130E+00
      6.197  0.4761E-01  0.2169E+00
      6.278  0.5620E-01  0.2214E+00
      6.359  0.6025E-01  0.2263E+00
      6.440  0.6099E-01  0.2312E+00
      6.520  0.6217E-01  0.2363E+00
      6.601  0.6519E-01  0.2415E+00
      6.682  0.6800E-01  0.2470E+00
      6.763  0.6931E-01  0.2526E+00
      6.844  0.7095E-01  0.2584E+00
      6.925  0.7140E-01  0.2642E+00
      7.006  0.7510E-01  0.2702E+00
      7.087  0.8019E-01  0.2767E+00
      7.167  0.7998E-01  0.2832E+00
      7.248  0.8088E-01  0.2897E+00
      7.329  0.8528E-01  0.2966E+00
      7.410  0.8704E-01  0.3037E+00
      7.491  0.8687E-01  0.3107E+00
      7.572  0.8762E-01  0.3178E+00
      7.653  0.8635E-01  0.3248E+00
      7.734  0.8483E-01  0.3316E+00
      7.814  0.8523E-01  0.3385E+00
      7.895  0.8432E-01  0.3453E+00
      7.976  0.8032E-01  0.3518E+00
      8.057  0.7695E-01  0.3580E+00
      8.138  0.6995E-01  0.3637E+00
      8.219  0.5766E-01  0.3684E+00
      8.300  0.4819E-01  0.3723E+00
      8.381  0.4713E-01  0.3761E+00
      8.461  0.5075E-01  0.3802E+00
      8.542  0.5238E-01  0.3844E+00
      8.623  0.5044E-01  0.3885E+00
      8.704  0.5208E-01  0.3927E+00
      8.785  0.6067E-01  0.3976E+00
      8.866  0.6500E-01  0.4029E+00
      8.947  0.6001E-01  0.4077E+00
      9.028  0.5538E-01  0.4122E+00
      9.108  0.5049E-01  0.4163E+00
      9.189  0.4353E-01  0.4198E+00
      9.270  0.3260E-01  0.4224E+00
      9.351  0.1990E-01  0.4241E+00
      9.432  0.1175E-01  0.4250E+00
      9.513  0.9056E-02  0.4257E+00
      9.594  0.9958E-02  0.4265E+00
      9.675  0.1208E-01  0.4275E+00
      9.755  0.1300E-01  0.4286E+00
      9.836  0.1190E-01  0.4295E+00
      9.917  0.8927E-02  0.4303E+00
      9.998  0.7292E-02  0.4308E+00
     10.079  0.7427E-02  0.4314E+00
     10.160  0.8699E-02  0.4321E+00
     10.241  0.1142E-01  0.4331E+00
     10.322  0.1408E-01  0.4342E+00
     10.402  0.1338E-01  0.4353E+00
     10.483  0.1052E-01  0.4361E+00
     10.564  0.8318E-02  0.4368E+00
     10.645  0.7379E-02  0.4374E+00
     10.726  0.8446E-02  0.4381E+00
     10.807  0.1076E-01  0.4390E+00
     10.888  0.1195E-01  0.4399E+00
     10.969  0.1075E-01  0.4408E+00
     11.049  0.1051E-01  0.4416E+00
     11.130  0.1105E-01  0.4425E+00
     11.211  0.1090E-01  0.4434E+00
     11.292  0.1010E-01  0.4442E+00
     11.373  0.9421E-02  0.4450E+00
     11.454  0.1083E-01  0.4459E+00
     11.535  0.1159E-01  0.4468E+00
     11.616  0.1064E-01  0.4477E+00
     11.696  0.9184E-02  0.4484E+00
     11.777  0.8328E-02  0.4491E+00
     11.858  0.9017E-02  0.4498E+00
     11.939  0.1046E-01  0.4507E+00
     12.020  0.1253E-01  0.4517E+00
     12.101  0.1293E-01  0.4527E+00
     12.182  0.1137E-01  0.4536E+00
     12.263  0.9913E-02  0.4544E+00
     12.343  0.9147E-02  0.4552E+00
     12.424  0.8521E-02  0.4559E+00
     12.505  0.7995E-02  0.4565E+00
     12.586  0.8373E-02  0.4572E+00
     12.667  0.9886E-02  0.4580E+00
     12.748  0.1179E-01  0.4590E+00
     12.829  0.1254E-01  0.4600E+00
     12.910  0.1193E-01  0.4609E+00
     12.990  0.9918E-02  0.4617E+00
     13.071  0.8936E-02  0.4625E+00
     13.152  0.9835E-02  0.4633E+00
     13.233  0.1116E-01  0.4642E+00
     13.314  0.1255E-01  0.4652E+00
     13.395  0.1327E-01  0.4662E+00
     13.476  0.1423E-01  0.4674E+00
     13.557  0.1430E-01  0.4686E+00
     13.637  0.1315E-01  0.4696E+00
     13.718  0.1212E-01  0.4706E+00
     13.799  0.1176E-01  0.4715E+00
     13.880  0.1114E-01  0.4724E+00
     13.961  0.9951E-02  0.4733E+00
     14.042  0.9593E-02  0.4740E+00
     14.123  0.1103E-01  0.4749E+00
     14.204  0.1187E-01  0.4759E+00
     14.284  0.1123E-01  0.4768E+00
     14.365  0.1047E-01  0.4776E+00
     14.446  0.9437E-02  0.4784E+00
     14.527  0.8675E-02  0.4791E+00
     14.608  0.8794E-02  0.4798E+00
     14.689  0.9099E-02  0.4805E+00
     14.770  0.9312E-02  0.4813E+00
     14.851  0.9053E-02  0.4820E+00
     14.931  0.8616E-02  0.4827E+00
     15.012  0.8666E-02  0.4834E+00
     15.093  0.8294E-02  0.4841E+00
     15.174  0.8222E-02  0.4848E+00
     15.255  0.7754E-02  0.4854E+00
     15.336  0.7303E-02  0.4860E+00
     15.417  0.8611E-02  0.4867E+00
     15.497  0.9170E-02  0.4874E+00
     15.578  0.8111E-02  0.4881E+00
     15.659  0.7517E-02  0.4887E+00
     15.740  0.7079E-02  0.4893E+00
     15.821  0.6983E-02  0.4898E+00
     15.902  0.9519E-02  0.4906E+00
     15.983  0.1272E-01  0.4916E+00
     16.064  0.1462E-01  0.4928E+00
     16.144  0.1481E-01  0.4940E+00
     16.225  0.1309E-01  0.4951E+00
     16.306  0.1270E-01  0.4961E+00
     16.387  0.1349E-01  0.4972E+00
     16.468  0.1420E-01  0.4983E+00
     16.549  0.1467E-01  0.4995E+00
     16.630  0.1418E-01  0.5007E+00
     16.711  0.1375E-01  0.5018E+00
     16.791  0.1469E-01  0.5030E+00
     16.872  0.1555E-01  0.5042E+00
     16.953  0.1553E-01  0.5055E+00
     17.034  0.1551E-01  0.5067E+00
     17.115  0.1505E-01  0.5079E+00
     17.196  0.1430E-01  0.5091E+00
     17.277  0.1317E-01  0.5102E+00
     17.358  0.1247E-01  0.5112E+00
     17.438  0.1270E-01  0.5122E+00
     17.519  0.1306E-01  0.5133E+00
     17.600  0.1305E-01  0.5143E+00
     17.681  0.1334E-01  0.5154E+00
     17.762  0.1379E-01  0.5165E+00
     17.843  0.1280E-01  0.5175E+00
     17.924  0.1164E-01  0.5185E+00
     18.005  0.1206E-01  0.5195E+00
     18.085  0.1230E-01  0.5205E+00
     18.166  0.1108E-01  0.5214E+00
     18.247  0.9784E-02  0.5221E+00
     18.328  0.9836E-02  0.5229E+00
     18.409  0.9749E-02  0.5237E+00
     18.490  0.8947E-02  0.5245E+00
     18.571  0.9856E-02  0.5252E+00
     18.652  0.1218E-01  0.5262E+00
     18.732  0.1250E-01  0.5272E+00
     18.813  0.1139E-01  0.5282E+00
     18.894  0.1031E-01  0.5290E+00
     18.975  0.9638E-02  0.5298E+00
     19.056  0.8522E-02  0.5305E+00
     19.137  0.7354E-02  0.5311E+00
     19.218  0.6964E-02  0.5316E+00
     19.299  0.7883E-02  0.5323E+00
     19.379  0.8717E-02  0.5330E+00
     19.460  0.8389E-02  0.5336E+00
     19.541  0.7410E-02  0.5342E+00
     19.622  0.5775E-02  0.5347E+00
     19.703  0.4498E-02  0.5351E+00
     19.784  0.4255E-02  0.5354E+00
     19.865  0.4952E-02  0.5358E+00
     19.946  0.6200E-02  0.5363E+00
     20.026  0.5803E-02  0.5368E+00
     20.107  0.3728E-02  0.5371E+00
     20.188  0.2456E-02  0.5373E+00
     20.269  0.2366E-02  0.5375E+00
     20.350  0.3070E-02  0.5377E+00
     20.431  0.3550E-02  0.5380E+00
     20.512  0.3444E-02  0.5383E+00
     20.593  0.2953E-02  0.5385E+00
     20.673  0.2738E-02  0.5388E+00
     20.754  0.2420E-02  0.5390E+00
     20.835  0.1639E-02  0.5391E+00
     20.916  0.1261E-02  0.5392E+00
     20.997  0.1290E-02  0.5393E+00
     21.078  0.1248E-02  0.5394E+00
     21.159  0.1418E-02  0.5395E+00
     21.240  0.1581E-02  0.5396E+00
     21.320  0.1146E-02  0.5397E+00
     21.401  0.9212E-03  0.5398E+00
     21.482  0.7724E-03  0.5399E+00
     21.563  0.4674E-03  0.5399E+00
     21.644  0.2305E-03  0.5399E+00
     21.725  0.1523E-03  0.5399E+00
     21.806  0.2384E-03  0.5400E+00
     21.887  0.2161E-03  0.5400E+00
     21.967  0.6519E-04  0.5400E+00
     22.048  0.2227E-04  0.5400E+00
     22.129  0.8212E-04  0.5400E+00
     22.210  0.1254E-03  0.5400E+00
     22.291  0.5932E-04  0.5400E+00
     22.372  0.8576E-05  0.5400E+00
     22.453  0.3698E-06  0.5400E+00
     22.534  0.4638E-08  0.5400E+00
     22.614  0.1657E-10  0.5400E+00
     22.695  0.1661E-13  0.5400E+00
     22.776  0.4621E-17  0.5400E+00
     22.857  0.0000E+00  0.5400E+00
     22.938  0.0000E+00  0.5400E+00
     23.019  0.0000E+00  0.5400E+00
     23.100  0.0000E+00  0.5400E+00
     23.181  0.0000E+00  0.5400E+00
     23.261  0.0000E+00  0.5400E+00
