 running on   24 total cores
 distrk:  each k-point on   24 cores,    1 groups
 distr:  one band on    8 cores,    3 groups
 using from now: INCAR     
 vasp.5.4.4.18Apr17-6-g9f103f2a35 (build Jan 14 2019 14:48:31) complex          
  
 POSCAR found type information on POSCAR  Au
 POSCAR found :  1 types and       4 ions
 scaLAPACK will be used
 LDA part: xc-table for Pade appr. of Perdew
 POSCAR found type information on POSCAR  Au
 POSCAR found :  1 types and       4 ions
 POSCAR, INCAR and KPOINTS ok, starting setup
 FFT: planning ...
 WAVECAR not read
 entering main loop
       N       E                     dE             d eps       ncg     rms          rms(c)
DAV:   1     0.286154489033E+03    0.28615E+03   -0.22986E+04 92016   0.155E+03
DAV:   2    -0.783345059291E+01   -0.29399E+03   -0.28670E+03104148   0.342E+02
DAV:   3    -0.129387689711E+02   -0.51053E+01   -0.50783E+01102069   0.479E+01
DAV:   4    -0.129660008031E+02   -0.27232E-01   -0.27227E-01105219   0.358E+00
DAV:   5    -0.129662457614E+02   -0.24496E-03   -0.24495E-03106371   0.356E-01    0.248E+01
RMM:   6    -0.119516480344E+02    0.10146E+01   -0.22035E+00 91152   0.100E+01    0.152E+01
RMM:   7    -0.118490914096E+02    0.10256E+00   -0.50305E-01 91154   0.464E+00    0.473E+00
RMM:   8    -0.118327030650E+02    0.16388E-01   -0.40540E-02 91170   0.138E+00    0.607E-01
RMM:   9    -0.118326204412E+02    0.82624E-04   -0.15533E-04 91182   0.702E-02    0.726E-02
RMM:  10    -0.118326245699E+02   -0.41286E-05   -0.15022E-05 91015   0.304E-02    0.563E-02
RMM:  11    -0.118326292346E+02   -0.46648E-05   -0.82917E-07 49822   0.651E-03    0.235E-03
RMM:  12    -0.118326292314E+02    0.32305E-08   -0.12771E-07 48115   0.244E-03
   1 F= -.11832629E+02 E0= -.11829786E+02  d E =-.118326E+02
 curvature:   0.00 expect dE= 0.000E+00 dE for cont linesearch  0.000E+00
 trial: gam= 0.00000 g(F)=  0.496E-14 g(S)=  0.000E+00 ort = 0.000E+00 (trialstep = 0.100E+01)
 search vector abs. value=  0.100E-09
 reached required accuracy - stopping structural energy minimisation
