   4   4   0   0
  0.1688789E+02  0.3925892E-09  0.4160661E-09  0.4160661E-09  0.2000000E-15
  1.000000000000000E-004
  CAR 
 unknown system                          
     20.81826765     -1.34037690  301      9.62468990      1.00000000
     -1.340  0.0000E+00  0.0000E+00
     -1.267  0.0000E+00  0.0000E+00
     -1.193  0.0000E+00  0.0000E+00
     -1.119  0.0000E+00  0.0000E+00
     -1.045  0.0000E+00  0.0000E+00
     -0.971  0.0000E+00  0.0000E+00
     -0.897  0.6235E-19  0.4605E-20
     -0.823  0.1702E-15  0.1258E-16
     -0.749  0.1652E-12  0.1221E-13
     -0.676  0.5685E-10  0.4211E-11
     -0.602  0.7194E-08  0.5355E-09
     -0.528  0.3540E-06  0.2669E-07
     -0.454  0.7299E-05  0.5658E-06
     -0.380  0.6799E-04  0.5588E-05
     -0.306  0.3050E-03  0.2811E-04
     -0.232  0.7122E-03  0.8072E-04
     -0.159  0.1074E-02  0.1601E-03
     -0.085  0.1483E-02  0.2696E-03
     -0.011  0.1783E-02  0.4013E-03
      0.063  0.1768E-02  0.5319E-03
      0.137  0.2088E-02  0.6861E-03
      0.211  0.2580E-02  0.8766E-03
      0.285  0.2623E-02  0.1070E-02
      0.358  0.2601E-02  0.1262E-02
      0.432  0.2811E-02  0.1470E-02
      0.506  0.3015E-02  0.1693E-02
      0.580  0.3445E-02  0.1947E-02
      0.654  0.3894E-02  0.2235E-02
      0.728  0.3736E-02  0.2511E-02
      0.802  0.3414E-02  0.2763E-02
      0.875  0.3702E-02  0.3036E-02
      0.949  0.4531E-02  0.3371E-02
      1.023  0.4946E-02  0.3736E-02
      1.097  0.4902E-02  0.4099E-02
      1.171  0.4829E-02  0.4455E-02
      1.245  0.4944E-02  0.4820E-02
      1.319  0.5273E-02  0.5210E-02
      1.393  0.5819E-02  0.5640E-02
      1.466  0.6047E-02  0.6086E-02
      1.540  0.6700E-02  0.6581E-02
      1.614  0.7258E-02  0.7117E-02
      1.688  0.7184E-02  0.7648E-02
      1.762  0.7340E-02  0.8190E-02
      1.836  0.8147E-02  0.8792E-02
      1.910  0.9585E-02  0.9500E-02
      1.983  0.1115E-01  0.1032E-01
      2.057  0.1269E-01  0.1126E-01
      2.131  0.1546E-01  0.1240E-01
      2.205  0.1757E-01  0.1370E-01
      2.279  0.1820E-01  0.1505E-01
      2.353  0.2088E-01  0.1659E-01
      2.427  0.2667E-01  0.1856E-01
      2.500  0.3269E-01  0.2097E-01
      2.574  0.3845E-01  0.2381E-01
      2.648  0.4447E-01  0.2710E-01
      2.722  0.5044E-01  0.3082E-01
      2.796  0.5552E-01  0.3492E-01
      2.870  0.6010E-01  0.3936E-01
      2.944  0.6519E-01  0.4418E-01
      3.017  0.6830E-01  0.4922E-01
      3.091  0.6699E-01  0.5417E-01
      3.165  0.6660E-01  0.5909E-01
      3.239  0.6742E-01  0.6407E-01
      3.313  0.6583E-01  0.6893E-01
      3.387  0.6358E-01  0.7363E-01
      3.461  0.6448E-01  0.7839E-01
      3.535  0.6432E-01  0.8314E-01
      3.608  0.6087E-01  0.8764E-01
      3.682  0.5833E-01  0.9194E-01
      3.756  0.5489E-01  0.9600E-01
      3.830  0.5419E-01  0.1000E+00
      3.904  0.5900E-01  0.1044E+00
      3.978  0.6610E-01  0.1092E+00
      4.052  0.7289E-01  0.1146E+00
      4.125  0.8077E-01  0.1206E+00
      4.199  0.8861E-01  0.1271E+00
      4.273  0.9115E-01  0.1339E+00
      4.347  0.8845E-01  0.1404E+00
      4.421  0.8191E-01  0.1465E+00
      4.495  0.7579E-01  0.1520E+00
      4.569  0.7225E-01  0.1574E+00
      4.642  0.7105E-01  0.1626E+00
      4.716  0.7360E-01  0.1681E+00
      4.790  0.8194E-01  0.1741E+00
      4.864  0.9099E-01  0.1808E+00
      4.938  0.9405E-01  0.1878E+00
      5.012  0.9094E-01  0.1945E+00
      5.086  0.8293E-01  0.2006E+00
      5.159  0.7512E-01  0.2062E+00
      5.233  0.7296E-01  0.2116E+00
      5.307  0.7677E-01  0.2172E+00
      5.381  0.8214E-01  0.2233E+00
      5.455  0.8320E-01  0.2295E+00
      5.529  0.7907E-01  0.2353E+00
      5.603  0.7617E-01  0.2409E+00
      5.677  0.7586E-01  0.2465E+00
      5.750  0.7562E-01  0.2521E+00
      5.824  0.7697E-01  0.2578E+00
      5.898  0.7675E-01  0.2635E+00
      5.972  0.7400E-01  0.2689E+00
      6.046  0.7374E-01  0.2744E+00
      6.120  0.7948E-01  0.2802E+00
      6.194  0.8530E-01  0.2865E+00
      6.267  0.8651E-01  0.2929E+00
      6.341  0.8497E-01  0.2992E+00
      6.415  0.8098E-01  0.3052E+00
      6.489  0.7612E-01  0.3108E+00
      6.563  0.7433E-01  0.3163E+00
      6.637  0.7375E-01  0.3218E+00
      6.711  0.7211E-01  0.3271E+00
      6.784  0.7204E-01  0.3324E+00
      6.858  0.7370E-01  0.3378E+00
      6.932  0.7441E-01  0.3433E+00
      7.006  0.7424E-01  0.3488E+00
      7.080  0.7597E-01  0.3544E+00
      7.154  0.7789E-01  0.3602E+00
      7.228  0.8123E-01  0.3662E+00
      7.301  0.8429E-01  0.3724E+00
      7.375  0.8036E-01  0.3783E+00
      7.449  0.7283E-01  0.3837E+00
      7.523  0.7378E-01  0.3892E+00
      7.597  0.8144E-01  0.3952E+00
      7.671  0.8386E-01  0.4014E+00
      7.745  0.7832E-01  0.4072E+00
      7.819  0.6818E-01  0.4122E+00
      7.892  0.5380E-01  0.4162E+00
      7.966  0.4162E-01  0.4193E+00
      8.040  0.3169E-01  0.4216E+00
      8.114  0.2040E-01  0.4231E+00
      8.188  0.1236E-01  0.4240E+00
      8.262  0.9872E-02  0.4247E+00
      8.336  0.9271E-02  0.4254E+00
      8.409  0.9314E-02  0.4261E+00
      8.483  0.1146E-01  0.4270E+00
      8.557  0.1329E-01  0.4279E+00
      8.631  0.1210E-01  0.4288E+00
      8.705  0.1036E-01  0.4296E+00
      8.779  0.1025E-01  0.4304E+00
      8.853  0.1055E-01  0.4311E+00
      8.926  0.1098E-01  0.4320E+00
      9.000  0.1201E-01  0.4328E+00
      9.074  0.1153E-01  0.4337E+00
      9.148  0.1011E-01  0.4344E+00
      9.222  0.9423E-02  0.4351E+00
      9.296  0.9715E-02  0.4359E+00
      9.370  0.1144E-01  0.4367E+00
      9.443  0.1354E-01  0.4377E+00
      9.517  0.1389E-01  0.4387E+00
      9.591  0.1236E-01  0.4396E+00
      9.665  0.1029E-01  0.4404E+00
      9.739  0.8661E-02  0.4410E+00
      9.813  0.8025E-02  0.4416E+00
      9.887  0.8533E-02  0.4423E+00
      9.961  0.1104E-01  0.4431E+00
     10.034  0.1406E-01  0.4441E+00
     10.108  0.1456E-01  0.4452E+00
     10.182  0.1220E-01  0.4461E+00
     10.256  0.1005E-01  0.4468E+00
     10.330  0.1038E-01  0.4476E+00
     10.404  0.1012E-01  0.4483E+00
     10.478  0.8734E-02  0.4490E+00
     10.551  0.9749E-02  0.4497E+00
     10.625  0.1261E-01  0.4506E+00
     10.699  0.1274E-01  0.4516E+00
     10.773  0.1132E-01  0.4524E+00
     10.847  0.1100E-01  0.4532E+00
     10.921  0.1069E-01  0.4540E+00
     10.995  0.9593E-02  0.4547E+00
     11.068  0.9223E-02  0.4554E+00
     11.142  0.1072E-01  0.4562E+00
     11.216  0.1218E-01  0.4571E+00
     11.290  0.1168E-01  0.4580E+00
     11.364  0.1074E-01  0.4588E+00
     11.438  0.1042E-01  0.4595E+00
     11.512  0.1012E-01  0.4603E+00
     11.585  0.9763E-02  0.4610E+00
     11.659  0.1025E-01  0.4618E+00
     11.733  0.1019E-01  0.4625E+00
     11.807  0.9678E-02  0.4632E+00
     11.881  0.9506E-02  0.4639E+00
     11.955  0.1042E-01  0.4647E+00
     12.029  0.1208E-01  0.4656E+00
     12.103  0.1285E-01  0.4665E+00
     12.176  0.1335E-01  0.4675E+00
     12.250  0.1317E-01  0.4685E+00
     12.324  0.1304E-01  0.4695E+00
     12.398  0.1376E-01  0.4705E+00
     12.472  0.1305E-01  0.4714E+00
     12.546  0.1199E-01  0.4723E+00
     12.620  0.1162E-01  0.4732E+00
     12.693  0.1102E-01  0.4740E+00
     12.767  0.1057E-01  0.4748E+00
     12.841  0.1053E-01  0.4756E+00
     12.915  0.1095E-01  0.4764E+00
     12.989  0.1073E-01  0.4772E+00
     13.063  0.9645E-02  0.4779E+00
     13.137  0.9275E-02  0.4786E+00
     13.210  0.9167E-02  0.4792E+00
     13.284  0.9065E-02  0.4799E+00
     13.358  0.9986E-02  0.4806E+00
     13.432  0.1141E-01  0.4815E+00
     13.506  0.1387E-01  0.4825E+00
     13.580  0.1546E-01  0.4836E+00
     13.654  0.1372E-01  0.4847E+00
     13.728  0.1208E-01  0.4856E+00
     13.801  0.1225E-01  0.4865E+00
     13.875  0.1242E-01  0.4874E+00
     13.949  0.1156E-01  0.4882E+00
     14.023  0.1030E-01  0.4890E+00
     14.097  0.9387E-02  0.4897E+00
     14.171  0.9089E-02  0.4904E+00
     14.245  0.1037E-01  0.4911E+00
     14.318  0.1200E-01  0.4920E+00
     14.392  0.1177E-01  0.4929E+00
     14.466  0.1135E-01  0.4937E+00
     14.540  0.1268E-01  0.4946E+00
     14.614  0.1401E-01  0.4957E+00
     14.688  0.1345E-01  0.4967E+00
     14.762  0.1302E-01  0.4976E+00
     14.835  0.1340E-01  0.4986E+00
     14.909  0.1355E-01  0.4996E+00
     14.983  0.1332E-01  0.5006E+00
     15.057  0.1291E-01  0.5016E+00
     15.131  0.1295E-01  0.5025E+00
     15.205  0.1333E-01  0.5035E+00
     15.279  0.1365E-01  0.5045E+00
     15.352  0.1456E-01  0.5056E+00
     15.426  0.1498E-01  0.5067E+00
     15.500  0.1530E-01  0.5078E+00
     15.574  0.1476E-01  0.5089E+00
     15.648  0.1296E-01  0.5099E+00
     15.722  0.1233E-01  0.5108E+00
     15.796  0.1201E-01  0.5117E+00
     15.870  0.1088E-01  0.5125E+00
     15.943  0.1055E-01  0.5133E+00
     16.017  0.1160E-01  0.5141E+00
     16.091  0.1226E-01  0.5150E+00
     16.165  0.1216E-01  0.5159E+00
     16.239  0.1216E-01  0.5168E+00
     16.313  0.1177E-01  0.5177E+00
     16.387  0.1005E-01  0.5184E+00
     16.460  0.8798E-02  0.5191E+00
     16.534  0.9412E-02  0.5198E+00
     16.608  0.1053E-01  0.5206E+00
     16.682  0.1054E-01  0.5213E+00
     16.756  0.1099E-01  0.5221E+00
     16.830  0.1216E-01  0.5230E+00
     16.904  0.1285E-01  0.5240E+00
     16.977  0.1229E-01  0.5249E+00
     17.051  0.1123E-01  0.5257E+00
     17.125  0.1059E-01  0.5265E+00
     17.199  0.1016E-01  0.5273E+00
     17.273  0.9981E-02  0.5280E+00
     17.347  0.1057E-01  0.5288E+00
     17.421  0.1086E-01  0.5296E+00
     17.494  0.1010E-01  0.5303E+00
     17.568  0.9218E-02  0.5310E+00
     17.642  0.8936E-02  0.5317E+00
     17.716  0.8232E-02  0.5323E+00
     17.790  0.8127E-02  0.5329E+00
     17.864  0.9759E-02  0.5336E+00
     17.938  0.1103E-01  0.5344E+00
     18.012  0.1016E-01  0.5352E+00
     18.085  0.8432E-02  0.5358E+00
     18.159  0.7185E-02  0.5363E+00
     18.233  0.6080E-02  0.5368E+00
     18.307  0.5703E-02  0.5372E+00
     18.381  0.5813E-02  0.5376E+00
     18.455  0.5028E-02  0.5380E+00
     18.529  0.3650E-02  0.5383E+00
     18.602  0.2502E-02  0.5384E+00
     18.676  0.1895E-02  0.5386E+00
     18.750  0.1946E-02  0.5387E+00
     18.824  0.2251E-02  0.5389E+00
     18.898  0.2560E-02  0.5391E+00
     18.972  0.2563E-02  0.5393E+00
     19.046  0.2244E-02  0.5394E+00
     19.119  0.2019E-02  0.5396E+00
     19.193  0.1767E-02  0.5397E+00
     19.267  0.1325E-02  0.5398E+00
     19.341  0.7252E-03  0.5399E+00
     19.415  0.2392E-03  0.5399E+00
     19.489  0.1775E-03  0.5399E+00
     19.563  0.2595E-03  0.5399E+00
     19.636  0.1929E-03  0.5399E+00
     19.710  0.2097E-03  0.5399E+00
     19.784  0.3467E-03  0.5400E+00
     19.858  0.2864E-03  0.5400E+00
     19.932  0.1039E-03  0.5400E+00
     20.006  0.1614E-04  0.5400E+00
     20.080  0.1013E-05  0.5400E+00
     20.154  0.2410E-07  0.5400E+00
     20.227  0.2078E-09  0.5400E+00
     20.301  0.6313E-12  0.5400E+00
     20.375  0.6651E-15  0.5400E+00
     20.449  0.2316E-18  0.5400E+00
     20.523  0.0000E+00  0.5400E+00
     20.597  0.0000E+00  0.5400E+00
     20.671  0.0000E+00  0.5400E+00
     20.744  0.0000E+00  0.5400E+00
     20.818  0.0000E+00  0.5400E+00
