 running on   24 total cores
 distrk:  each k-point on   24 cores,    1 groups
 distr:  one band on    8 cores,    3 groups
 using from now: INCAR     
 vasp.5.4.4.18Apr17-6-g9f103f2a35 (build Jan 14 2019 14:48:31) complex          
  
 POSCAR found type information on POSCAR  Au
 POSCAR found :  1 types and       4 ions
 scaLAPACK will be used
 LDA part: xc-table for Pade appr. of Perdew
 POSCAR found type information on POSCAR  Au
 POSCAR found :  1 types and       4 ions
 POSCAR, INCAR and KPOINTS ok, starting setup
 FFT: planning ...
 WAVECAR not read
 entering main loop
       N       E                     dE             d eps       ncg     rms          rms(c)
DAV:   1     0.279514670566E+03    0.27951E+03   -0.22799E+04 92043   0.153E+03
DAV:   2    -0.871493756858E+01   -0.28823E+03   -0.28054E+03104769   0.334E+02
DAV:   3    -0.137395396320E+02   -0.50246E+01   -0.49956E+01102195   0.466E+01
DAV:   4    -0.137674732105E+02   -0.27934E-01   -0.27925E-01105147   0.358E+00
DAV:   5    -0.137677292514E+02   -0.25604E-03   -0.25603E-03107109   0.358E-01    0.195E+01
RMM:   6    -0.127680393628E+02    0.99969E+00   -0.24110E+00 91152   0.103E+01    0.123E+01
RMM:   7    -0.126903826369E+02    0.77657E-01   -0.40318E-01 91186   0.407E+00    0.483E+00
RMM:   8    -0.126788431768E+02    0.11539E-01   -0.24450E-02 91168   0.104E+00    0.570E-01
RMM:   9    -0.126787478868E+02    0.95290E-04   -0.19432E-04 91195   0.726E-02    0.496E-02
RMM:  10    -0.126787572913E+02   -0.94045E-05   -0.13815E-05 90986   0.302E-02    0.460E-02
RMM:  11    -0.126787603693E+02   -0.30780E-05   -0.44477E-07 49942   0.405E-03    0.173E-03
RMM:  12    -0.126787603447E+02    0.24657E-07   -0.11067E-07 44224   0.220E-03
   1 F= -.12678760E+02 E0= -.12676169E+02  d E =-.126788E+02
 curvature:   0.00 expect dE= 0.000E+00 dE for cont linesearch  0.000E+00
 trial: gam= 0.00000 g(F)=  0.152E-13 g(S)=  0.000E+00 ort = 0.000E+00 (trialstep = 0.100E+01)
 search vector abs. value=  0.100E-09
 reached required accuracy - stopping structural energy minimisation
