<?xml version="1.0" encoding="ISO-8859-1"?>
<modeling>
 <generator>
  <i name="program" type="string">vasp </i>
  <i name="version" type="string">5.4.4.18Apr17-6-g9f103f2a35  </i>
  <i name="subversion" type="string">(build Jan 14 2019 14:48:31) complex            parallel </i>
  <i name="platform" type="string">LinuxIFC </i>
  <i name="date" type="string">2019 09 29 </i>
  <i name="time" type="string">20:33:12 </i>
 </generator>
 <incar>
  <i type="int" name="ISTART">     0</i>
  <i type="string" name="PREC">accurate</i>
  <i type="string" name="ALGO"> Fast</i>
  <i type="int" name="ICHARG">     2</i>
  <i type="int" name="NELMIN">     4</i>
  <i type="int" name="IBRION">     2</i>
  <i name="EDIFF">      0.00000100</i>
  <i name="EDIFFG">     -0.02000000</i>
  <i type="int" name="NSW">   100</i>
  <i type="int" name="ISIF">     2</i>
  <i type="int" name="ISYM">     0</i>
  <i name="ENCUT">    500.00000000</i>
  <i name="POTIM">      0.20000000</i>
  <i type="int" name="ISMEAR">     0</i>
  <i name="SIGMA">      0.10000000</i>
  <i type="logical" name="LWAVE"> F  </i>
  <i type="logical" name="LCHARG"> F  </i>
  <v type="int" name="KPOINT_BSE">    -1     0     0     0</v>
 </incar>
 <structure name="primitive_cell" >
  <crystal>
   <varray name="basis" >
    <v>       3.92589157      -0.00000003      -0.00000006 </v>
    <v>      -0.00000003       4.15438220      -0.22849088 </v>
    <v>      -0.00000006      -0.22849089       4.15438227 </v>
   </varray>
   <i name="volume">     67.55157438 </i>
   <varray name="rec_basis" >
    <v>       0.25471921       0.00000000       0.00000000 </v>
    <v>       0.00000000       0.24144003       0.01327919 </v>
    <v>       0.00000000       0.01327919       0.24144003 </v>
   </varray>
  </crystal>
  <varray name="positions" >
   <v>      -0.00000000       0.00000000       0.00000000 </v>
   <v>       0.00000000       0.50000000      -0.50000000 </v>
   <v>      -0.50000000      -0.00000000       0.50000000 </v>
   <v>       0.50000000      -0.50000000      -0.00000000 </v>
  </varray>
 </structure>
 <varray name="primitive_index" >
  <v type="int" >        1 </v>
  <v type="int" >        2 </v>
  <v type="int" >        3 </v>
  <v type="int" >        4 </v>
 </varray>
 <kpoints>
  <generation param="Gamma">
   <v type="int" name="divisions">      15       15       15 </v>
   <v name="usershift">      0.00000000       0.00000000       0.00000000 </v>
   <v name="genvec1">      0.06666667      -0.00000000      -0.00000000 </v>
   <v name="genvec2">      0.00000000       0.06666667       0.00000000 </v>
   <v name="genvec3">      0.00000000      -0.00000000       0.06666667 </v>
   <v name="shift">      0.00000000       0.00000000       0.00000000 </v>
  </generation>
  <varray name="kpointlist" >
   <v>       0.00000000       0.00000000       0.00000000 </v>
   <v>       0.06666667       0.00000000      -0.00000000 </v>
   <v>       0.13333333      -0.00000000       0.00000000 </v>
   <v>       0.20000000      -0.00000000      -0.00000000 </v>
   <v>       0.26666667      -0.00000000      -0.00000000 </v>
   <v>       0.33333333      -0.00000000      -0.00000000 </v>
   <v>       0.40000000      -0.00000000      -0.00000000 </v>
   <v>       0.46666667      -0.00000000      -0.00000000 </v>
   <v>       0.00000000       0.06666667       0.00000000 </v>
   <v>       0.06666667       0.06666667       0.00000000 </v>
   <v>       0.13333333       0.06666667       0.00000000 </v>
   <v>       0.20000000       0.06666667       0.00000000 </v>
   <v>       0.26666667       0.06666667      -0.00000000 </v>
   <v>       0.33333333       0.06666667       0.00000000 </v>
   <v>       0.40000000       0.06666667      -0.00000000 </v>
   <v>       0.46666667       0.06666667       0.00000000 </v>
   <v>      -0.46666667       0.06666667      -0.00000000 </v>
   <v>      -0.40000000       0.06666667       0.00000000 </v>
   <v>      -0.33333333       0.06666667       0.00000000 </v>
   <v>      -0.26666667       0.06666667       0.00000000 </v>
   <v>      -0.20000000       0.06666667      -0.00000000 </v>
   <v>      -0.13333333       0.06666667      -0.00000000 </v>
   <v>      -0.06666667       0.06666667       0.00000000 </v>
   <v>       0.00000000       0.13333333       0.00000000 </v>
   <v>       0.06666667       0.13333333       0.00000000 </v>
   <v>       0.13333333       0.13333333      -0.00000000 </v>
   <v>       0.20000000       0.13333333       0.00000000 </v>
   <v>       0.26666667       0.13333333       0.00000000 </v>
   <v>       0.33333333       0.13333333      -0.00000000 </v>
   <v>       0.40000000       0.13333333       0.00000000 </v>
   <v>       0.46666667       0.13333333      -0.00000000 </v>
   <v>      -0.46666667       0.13333333       0.00000000 </v>
   <v>      -0.40000000       0.13333333       0.00000000 </v>
   <v>      -0.33333333       0.13333333      -0.00000000 </v>
   <v>      -0.26666667       0.13333333      -0.00000000 </v>
   <v>      -0.20000000       0.13333333      -0.00000000 </v>
   <v>      -0.13333333       0.13333333       0.00000000 </v>
   <v>      -0.06666667       0.13333333       0.00000000 </v>
   <v>      -0.00000000       0.20000000       0.00000000 </v>
   <v>       0.06666667       0.20000000      -0.00000000 </v>
   <v>       0.13333333       0.20000000      -0.00000000 </v>
   <v>       0.20000000       0.20000000       0.00000000 </v>
   <v>       0.26666667       0.20000000      -0.00000000 </v>
   <v>       0.33333333       0.20000000      -0.00000000 </v>
   <v>       0.40000000       0.20000000      -0.00000000 </v>
   <v>       0.46666667       0.20000000      -0.00000000 </v>
   <v>      -0.46666667       0.20000000      -0.00000000 </v>
   <v>      -0.40000000       0.20000000       0.00000000 </v>
   <v>      -0.33333333       0.20000000      -0.00000000 </v>
   <v>      -0.26666667       0.20000000      -0.00000000 </v>
   <v>      -0.20000000       0.20000000      -0.00000000 </v>
   <v>      -0.13333333       0.20000000       0.00000000 </v>
   <v>      -0.06666667       0.20000000      -0.00000000 </v>
   <v>      -0.00000000       0.26666667       0.00000000 </v>
   <v>       0.06666667       0.26666667       0.00000000 </v>
   <v>       0.13333333       0.26666667      -0.00000000 </v>
   <v>       0.20000000       0.26666667      -0.00000000 </v>
   <v>       0.26666667       0.26666667      -0.00000000 </v>
   <v>       0.33333333       0.26666667      -0.00000000 </v>
   <v>       0.40000000       0.26666667       0.00000000 </v>
   <v>       0.46666667       0.26666667      -0.00000000 </v>
   <v>      -0.46666667       0.26666667      -0.00000000 </v>
   <v>      -0.40000000       0.26666667      -0.00000000 </v>
   <v>      -0.33333333       0.26666667      -0.00000000 </v>
   <v>      -0.26666667       0.26666667       0.00000000 </v>
   <v>      -0.20000000       0.26666667       0.00000000 </v>
   <v>      -0.13333333       0.26666667       0.00000000 </v>
   <v>      -0.06666667       0.26666667      -0.00000000 </v>
   <v>      -0.00000000       0.33333333       0.00000000 </v>
   <v>       0.06666667       0.33333333       0.00000000 </v>
   <v>       0.13333333       0.33333333       0.00000000 </v>
   <v>       0.20000000       0.33333333      -0.00000000 </v>
   <v>       0.26666667       0.33333333       0.00000000 </v>
   <v>       0.33333333       0.33333333       0.00000000 </v>
   <v>       0.40000000       0.33333333       0.00000000 </v>
   <v>       0.46666667       0.33333333      -0.00000000 </v>
   <v>      -0.46666667       0.33333333       0.00000000 </v>
   <v>      -0.40000000       0.33333333      -0.00000000 </v>
   <v>      -0.33333333       0.33333333       0.00000000 </v>
   <v>      -0.26666667       0.33333333       0.00000000 </v>
   <v>      -0.20000000       0.33333333      -0.00000000 </v>
   <v>      -0.13333333       0.33333333       0.00000000 </v>
   <v>      -0.06666667       0.33333333      -0.00000000 </v>
   <v>      -0.00000000       0.40000000       0.00000000 </v>
   <v>       0.06666667       0.40000000      -0.00000000 </v>
   <v>       0.13333333       0.40000000      -0.00000000 </v>
   <v>       0.20000000       0.40000000      -0.00000000 </v>
   <v>       0.26666667       0.40000000      -0.00000000 </v>
   <v>       0.33333333       0.40000000      -0.00000000 </v>
   <v>       0.40000000       0.40000000       0.00000000 </v>
   <v>       0.46666667       0.40000000      -0.00000000 </v>
   <v>      -0.46666667       0.40000000       0.00000000 </v>
   <v>      -0.40000000       0.40000000      -0.00000000 </v>
   <v>      -0.33333333       0.40000000      -0.00000000 </v>
   <v>      -0.26666667       0.40000000       0.00000000 </v>
   <v>      -0.20000000       0.40000000      -0.00000000 </v>
   <v>      -0.13333333       0.40000000      -0.00000000 </v>
   <v>      -0.06666667       0.40000000      -0.00000000 </v>
   <v>       0.00000000       0.46666667       0.00000000 </v>
   <v>       0.06666667       0.46666667       0.00000000 </v>
   <v>       0.13333333       0.46666667      -0.00000000 </v>
   <v>       0.20000000       0.46666667      -0.00000000 </v>
   <v>       0.26666667       0.46666667       0.00000000 </v>
   <v>       0.33333333       0.46666667       0.00000000 </v>
   <v>       0.40000000       0.46666667       0.00000000 </v>
   <v>       0.46666667       0.46666667      -0.00000000 </v>
   <v>      -0.46666667       0.46666667       0.00000000 </v>
   <v>      -0.40000000       0.46666667       0.00000000 </v>
   <v>      -0.33333333       0.46666667       0.00000000 </v>
   <v>      -0.26666667       0.46666667       0.00000000 </v>
   <v>      -0.20000000       0.46666667      -0.00000000 </v>
   <v>      -0.13333333       0.46666667      -0.00000000 </v>
   <v>      -0.06666667       0.46666667      -0.00000000 </v>
   <v>      -0.00000000       0.00000000       0.06666667 </v>
   <v>       0.06666667      -0.00000000       0.06666667 </v>
   <v>       0.13333333      -0.00000000       0.06666667 </v>
   <v>       0.20000000      -0.00000000       0.06666667 </v>
   <v>       0.26666667      -0.00000000       0.06666667 </v>
   <v>       0.33333333      -0.00000000       0.06666667 </v>
   <v>       0.40000000      -0.00000000       0.06666667 </v>
   <v>       0.46666667       0.00000000       0.06666667 </v>
   <v>      -0.46666667      -0.00000000       0.06666667 </v>
   <v>      -0.40000000      -0.00000000       0.06666667 </v>
   <v>      -0.33333333      -0.00000000       0.06666667 </v>
   <v>      -0.26666667       0.00000000       0.06666667 </v>
   <v>      -0.20000000       0.00000000       0.06666667 </v>
   <v>      -0.13333333      -0.00000000       0.06666667 </v>
   <v>      -0.06666667       0.00000000       0.06666667 </v>
   <v>      -0.00000000       0.06666667       0.06666667 </v>
   <v>       0.06666667       0.06666667       0.06666667 </v>
   <v>       0.13333333       0.06666667       0.06666667 </v>
   <v>       0.20000000       0.06666667       0.06666667 </v>
   <v>       0.26666667       0.06666667       0.06666667 </v>
   <v>       0.33333333       0.06666667       0.06666667 </v>
   <v>       0.40000000       0.06666667       0.06666667 </v>
   <v>       0.46666667       0.06666667       0.06666667 </v>
   <v>      -0.46666667       0.06666667       0.06666667 </v>
   <v>      -0.40000000       0.06666667       0.06666667 </v>
   <v>      -0.33333333       0.06666667       0.06666667 </v>
   <v>      -0.26666667       0.06666667       0.06666667 </v>
   <v>      -0.20000000       0.06666667       0.06666667 </v>
   <v>      -0.13333333       0.06666667       0.06666667 </v>
   <v>      -0.06666667       0.06666667       0.06666667 </v>
   <v>      -0.00000000       0.13333333       0.06666667 </v>
   <v>       0.06666667       0.13333333       0.06666667 </v>
   <v>       0.13333333       0.13333333       0.06666667 </v>
   <v>       0.20000000       0.13333333       0.06666667 </v>
   <v>       0.26666667       0.13333333       0.06666667 </v>
   <v>       0.33333333       0.13333333       0.06666667 </v>
   <v>       0.40000000       0.13333333       0.06666667 </v>
   <v>       0.46666667       0.13333333       0.06666667 </v>
   <v>      -0.46666667       0.13333333       0.06666667 </v>
   <v>      -0.40000000       0.13333333       0.06666667 </v>
   <v>      -0.33333333       0.13333333       0.06666667 </v>
   <v>      -0.26666667       0.13333333       0.06666667 </v>
   <v>      -0.20000000       0.13333333       0.06666667 </v>
   <v>      -0.13333333       0.13333333       0.06666667 </v>
   <v>      -0.06666667       0.13333333       0.06666667 </v>
   <v>      -0.00000000       0.20000000       0.06666667 </v>
   <v>       0.06666667       0.20000000       0.06666667 </v>
   <v>       0.13333333       0.20000000       0.06666667 </v>
   <v>       0.20000000       0.20000000       0.06666667 </v>
   <v>       0.26666667       0.20000000       0.06666667 </v>
   <v>       0.33333333       0.20000000       0.06666667 </v>
   <v>       0.40000000       0.20000000       0.06666667 </v>
   <v>       0.46666667       0.20000000       0.06666667 </v>
   <v>      -0.46666667       0.20000000       0.06666667 </v>
   <v>      -0.40000000       0.20000000       0.06666667 </v>
   <v>      -0.33333333       0.20000000       0.06666667 </v>
   <v>      -0.26666667       0.20000000       0.06666667 </v>
   <v>      -0.20000000       0.20000000       0.06666667 </v>
   <v>      -0.13333333       0.20000000       0.06666667 </v>
   <v>      -0.06666667       0.20000000       0.06666667 </v>
   <v>      -0.00000000       0.26666667       0.06666667 </v>
   <v>       0.06666667       0.26666667       0.06666667 </v>
   <v>       0.13333333       0.26666667       0.06666667 </v>
   <v>       0.20000000       0.26666667       0.06666667 </v>
   <v>       0.26666667       0.26666667       0.06666667 </v>
   <v>       0.33333333       0.26666667       0.06666667 </v>
   <v>       0.40000000       0.26666667       0.06666667 </v>
   <v>       0.46666667       0.26666667       0.06666667 </v>
   <v>      -0.46666667       0.26666667       0.06666667 </v>
   <v>      -0.40000000       0.26666667       0.06666667 </v>
   <v>      -0.33333333       0.26666667       0.06666667 </v>
   <v>      -0.26666667       0.26666667       0.06666667 </v>
   <v>      -0.20000000       0.26666667       0.06666667 </v>
   <v>      -0.13333333       0.26666667       0.06666667 </v>
   <v>      -0.06666667       0.26666667       0.06666667 </v>
   <v>      -0.00000000       0.33333333       0.06666667 </v>
   <v>       0.06666667       0.33333333       0.06666667 </v>
   <v>       0.13333333       0.33333333       0.06666667 </v>
   <v>       0.20000000       0.33333333       0.06666667 </v>
   <v>       0.26666667       0.33333333       0.06666667 </v>
   <v>       0.33333333       0.33333333       0.06666667 </v>
   <v>       0.40000000       0.33333333       0.06666667 </v>
   <v>       0.46666667       0.33333333       0.06666667 </v>
   <v>      -0.46666667       0.33333333       0.06666667 </v>
   <v>      -0.40000000       0.33333333       0.06666667 </v>
   <v>      -0.33333333       0.33333333       0.06666667 </v>
   <v>      -0.26666667       0.33333333       0.06666667 </v>
   <v>      -0.20000000       0.33333333       0.06666667 </v>
   <v>      -0.13333333       0.33333333       0.06666667 </v>
   <v>      -0.06666667       0.33333333       0.06666667 </v>
   <v>      -0.00000000       0.40000000       0.06666667 </v>
   <v>       0.06666667       0.40000000       0.06666667 </v>
   <v>       0.13333333       0.40000000       0.06666667 </v>
   <v>       0.20000000       0.40000000       0.06666667 </v>
   <v>       0.26666667       0.40000000       0.06666667 </v>
   <v>       0.33333333       0.40000000       0.06666667 </v>
   <v>       0.40000000       0.40000000       0.06666667 </v>
   <v>       0.46666667       0.40000000       0.06666667 </v>
   <v>      -0.46666667       0.40000000       0.06666667 </v>
   <v>      -0.40000000       0.40000000       0.06666667 </v>
   <v>      -0.33333333       0.40000000       0.06666667 </v>
   <v>      -0.26666667       0.40000000       0.06666667 </v>
   <v>      -0.20000000       0.40000000       0.06666667 </v>
   <v>      -0.13333333       0.40000000       0.06666667 </v>
   <v>      -0.06666667       0.40000000       0.06666667 </v>
   <v>       0.00000000       0.46666667       0.06666667 </v>
   <v>       0.06666667       0.46666667       0.06666667 </v>
   <v>       0.13333333       0.46666667       0.06666667 </v>
   <v>       0.20000000       0.46666667       0.06666667 </v>
   <v>       0.26666667       0.46666667       0.06666667 </v>
   <v>       0.33333333       0.46666667       0.06666667 </v>
   <v>       0.40000000       0.46666667       0.06666667 </v>
   <v>       0.46666667       0.46666667       0.06666667 </v>
   <v>      -0.46666667       0.46666667       0.06666667 </v>
   <v>      -0.40000000       0.46666667       0.06666667 </v>
   <v>      -0.33333333       0.46666667       0.06666667 </v>
   <v>      -0.26666667       0.46666667       0.06666667 </v>
   <v>      -0.20000000       0.46666667       0.06666667 </v>
   <v>      -0.13333333       0.46666667       0.06666667 </v>
   <v>      -0.06666667       0.46666667       0.06666667 </v>
   <v>      -0.00000000      -0.46666667       0.06666667 </v>
   <v>       0.06666667      -0.46666667       0.06666667 </v>
   <v>       0.13333333      -0.46666667       0.06666667 </v>
   <v>       0.20000000      -0.46666667       0.06666667 </v>
   <v>       0.26666667      -0.46666667       0.06666667 </v>
   <v>       0.33333333      -0.46666667       0.06666667 </v>
   <v>       0.40000000      -0.46666667       0.06666667 </v>
   <v>       0.46666667      -0.46666667       0.06666667 </v>
   <v>      -0.46666667      -0.46666667       0.06666667 </v>
   <v>      -0.40000000      -0.46666667       0.06666667 </v>
   <v>      -0.33333333      -0.46666667       0.06666667 </v>
   <v>      -0.26666667      -0.46666667       0.06666667 </v>
   <v>      -0.20000000      -0.46666667       0.06666667 </v>
   <v>      -0.13333333      -0.46666667       0.06666667 </v>
   <v>      -0.06666667      -0.46666667       0.06666667 </v>
   <v>       0.00000000      -0.40000000       0.06666667 </v>
   <v>       0.06666667      -0.40000000       0.06666667 </v>
   <v>       0.13333333      -0.40000000       0.06666667 </v>
   <v>       0.20000000      -0.40000000       0.06666667 </v>
   <v>       0.26666667      -0.40000000       0.06666667 </v>
   <v>       0.33333333      -0.40000000       0.06666667 </v>
   <v>       0.40000000      -0.40000000       0.06666667 </v>
   <v>       0.46666667      -0.40000000       0.06666667 </v>
   <v>      -0.46666667      -0.40000000       0.06666667 </v>
   <v>      -0.40000000      -0.40000000       0.06666667 </v>
   <v>      -0.33333333      -0.40000000       0.06666667 </v>
   <v>      -0.26666667      -0.40000000       0.06666667 </v>
   <v>      -0.20000000      -0.40000000       0.06666667 </v>
   <v>      -0.13333333      -0.40000000       0.06666667 </v>
   <v>      -0.06666667      -0.40000000       0.06666667 </v>
   <v>       0.00000000      -0.33333333       0.06666667 </v>
   <v>       0.06666667      -0.33333333       0.06666667 </v>
   <v>       0.13333333      -0.33333333       0.06666667 </v>
   <v>       0.20000000      -0.33333333       0.06666667 </v>
   <v>       0.26666667      -0.33333333       0.06666667 </v>
   <v>       0.33333333      -0.33333333       0.06666667 </v>
   <v>       0.40000000      -0.33333333       0.06666667 </v>
   <v>       0.46666667      -0.33333333       0.06666667 </v>
   <v>      -0.46666667      -0.33333333       0.06666667 </v>
   <v>      -0.40000000      -0.33333333       0.06666667 </v>
   <v>      -0.33333333      -0.33333333       0.06666667 </v>
   <v>      -0.26666667      -0.33333333       0.06666667 </v>
   <v>      -0.20000000      -0.33333333       0.06666667 </v>
   <v>      -0.13333333      -0.33333333       0.06666667 </v>
   <v>      -0.06666667      -0.33333333       0.06666667 </v>
   <v>       0.00000000      -0.26666667       0.06666667 </v>
   <v>       0.06666667      -0.26666667       0.06666667 </v>
   <v>       0.13333333      -0.26666667       0.06666667 </v>
   <v>       0.20000000      -0.26666667       0.06666667 </v>
   <v>       0.26666667      -0.26666667       0.06666667 </v>
   <v>       0.33333333      -0.26666667       0.06666667 </v>
   <v>       0.40000000      -0.26666667       0.06666667 </v>
   <v>       0.46666667      -0.26666667       0.06666667 </v>
   <v>      -0.46666667      -0.26666667       0.06666667 </v>
   <v>      -0.40000000      -0.26666667       0.06666667 </v>
   <v>      -0.33333333      -0.26666667       0.06666667 </v>
   <v>      -0.26666667      -0.26666667       0.06666667 </v>
   <v>      -0.20000000      -0.26666667       0.06666667 </v>
   <v>      -0.13333333      -0.26666667       0.06666667 </v>
   <v>      -0.06666667      -0.26666667       0.06666667 </v>
   <v>      -0.00000000      -0.20000000       0.06666667 </v>
   <v>       0.06666667      -0.20000000       0.06666667 </v>
   <v>       0.13333333      -0.20000000       0.06666667 </v>
   <v>       0.20000000      -0.20000000       0.06666667 </v>
   <v>       0.26666667      -0.20000000       0.06666667 </v>
   <v>       0.33333333      -0.20000000       0.06666667 </v>
   <v>       0.40000000      -0.20000000       0.06666667 </v>
   <v>       0.46666667      -0.20000000       0.06666667 </v>
   <v>      -0.46666667      -0.20000000       0.06666667 </v>
   <v>      -0.40000000      -0.20000000       0.06666667 </v>
   <v>      -0.33333333      -0.20000000       0.06666667 </v>
   <v>      -0.26666667      -0.20000000       0.06666667 </v>
   <v>      -0.20000000      -0.20000000       0.06666667 </v>
   <v>      -0.13333333      -0.20000000       0.06666667 </v>
   <v>      -0.06666667      -0.20000000       0.06666667 </v>
   <v>      -0.00000000      -0.13333333       0.06666667 </v>
   <v>       0.06666667      -0.13333333       0.06666667 </v>
   <v>       0.13333333      -0.13333333       0.06666667 </v>
   <v>       0.20000000      -0.13333333       0.06666667 </v>
   <v>       0.26666667      -0.13333333       0.06666667 </v>
   <v>       0.33333333      -0.13333333       0.06666667 </v>
   <v>       0.40000000      -0.13333333       0.06666667 </v>
   <v>       0.46666667      -0.13333333       0.06666667 </v>
   <v>      -0.46666667      -0.13333333       0.06666667 </v>
   <v>      -0.40000000      -0.13333333       0.06666667 </v>
   <v>      -0.33333333      -0.13333333       0.06666667 </v>
   <v>      -0.26666667      -0.13333333       0.06666667 </v>
   <v>      -0.20000000      -0.13333333       0.06666667 </v>
   <v>      -0.13333333      -0.13333333       0.06666667 </v>
   <v>      -0.06666667      -0.13333333       0.06666667 </v>
   <v>      -0.00000000      -0.06666667       0.06666667 </v>
   <v>       0.06666667      -0.06666667       0.06666667 </v>
   <v>       0.13333333      -0.06666667       0.06666667 </v>
   <v>       0.20000000      -0.06666667       0.06666667 </v>
   <v>       0.26666667      -0.06666667       0.06666667 </v>
   <v>       0.33333333      -0.06666667       0.06666667 </v>
   <v>       0.40000000      -0.06666667       0.06666667 </v>
   <v>       0.46666667      -0.06666667       0.06666667 </v>
   <v>      -0.46666667      -0.06666667       0.06666667 </v>
   <v>      -0.40000000      -0.06666667       0.06666667 </v>
   <v>      -0.33333333      -0.06666667       0.06666667 </v>
   <v>      -0.26666667      -0.06666667       0.06666667 </v>
   <v>      -0.20000000      -0.06666667       0.06666667 </v>
   <v>      -0.13333333      -0.06666667       0.06666667 </v>
   <v>      -0.06666667      -0.06666667       0.06666667 </v>
   <v>      -0.00000000       0.00000000       0.13333333 </v>
   <v>       0.06666667       0.00000000       0.13333333 </v>
   <v>       0.13333333      -0.00000000       0.13333333 </v>
   <v>       0.20000000      -0.00000000       0.13333333 </v>
   <v>       0.26666667       0.00000000       0.13333333 </v>
   <v>       0.33333333       0.00000000       0.13333333 </v>
   <v>       0.40000000      -0.00000000       0.13333333 </v>
   <v>       0.46666667       0.00000000       0.13333333 </v>
   <v>      -0.46666667       0.00000000       0.13333333 </v>
   <v>      -0.40000000       0.00000000       0.13333333 </v>
   <v>      -0.33333333       0.00000000       0.13333333 </v>
   <v>      -0.26666667       0.00000000       0.13333333 </v>
   <v>      -0.20000000      -0.00000000       0.13333333 </v>
   <v>      -0.13333333       0.00000000       0.13333333 </v>
   <v>      -0.06666667       0.00000000       0.13333333 </v>
   <v>       0.00000000       0.06666667       0.13333333 </v>
   <v>       0.06666667       0.06666667       0.13333333 </v>
   <v>       0.13333333       0.06666667       0.13333333 </v>
   <v>       0.20000000       0.06666667       0.13333333 </v>
   <v>       0.26666667       0.06666667       0.13333333 </v>
   <v>       0.33333333       0.06666667       0.13333333 </v>
   <v>       0.40000000       0.06666667       0.13333333 </v>
   <v>       0.46666667       0.06666667       0.13333333 </v>
   <v>      -0.46666667       0.06666667       0.13333333 </v>
   <v>      -0.40000000       0.06666667       0.13333333 </v>
   <v>      -0.33333333       0.06666667       0.13333333 </v>
   <v>      -0.26666667       0.06666667       0.13333333 </v>
   <v>      -0.20000000       0.06666667       0.13333333 </v>
   <v>      -0.13333333       0.06666667       0.13333333 </v>
   <v>      -0.06666667       0.06666667       0.13333333 </v>
   <v>       0.00000000       0.13333333       0.13333333 </v>
   <v>       0.06666667       0.13333333       0.13333333 </v>
   <v>       0.13333333       0.13333333       0.13333333 </v>
   <v>       0.20000000       0.13333333       0.13333333 </v>
   <v>       0.26666667       0.13333333       0.13333333 </v>
   <v>       0.33333333       0.13333333       0.13333333 </v>
   <v>       0.40000000       0.13333333       0.13333333 </v>
   <v>       0.46666667       0.13333333       0.13333333 </v>
   <v>      -0.46666667       0.13333333       0.13333333 </v>
   <v>      -0.40000000       0.13333333       0.13333333 </v>
   <v>      -0.33333333       0.13333333       0.13333333 </v>
   <v>      -0.26666667       0.13333333       0.13333333 </v>
   <v>      -0.20000000       0.13333333       0.13333333 </v>
   <v>      -0.13333333       0.13333333       0.13333333 </v>
   <v>      -0.06666667       0.13333333       0.13333333 </v>
   <v>      -0.00000000       0.20000000       0.13333333 </v>
   <v>       0.06666667       0.20000000       0.13333333 </v>
   <v>       0.13333333       0.20000000       0.13333333 </v>
   <v>       0.20000000       0.20000000       0.13333333 </v>
   <v>       0.26666667       0.20000000       0.13333333 </v>
   <v>       0.33333333       0.20000000       0.13333333 </v>
   <v>       0.40000000       0.20000000       0.13333333 </v>
   <v>       0.46666667       0.20000000       0.13333333 </v>
   <v>      -0.46666667       0.20000000       0.13333333 </v>
   <v>      -0.40000000       0.20000000       0.13333333 </v>
   <v>      -0.33333333       0.20000000       0.13333333 </v>
   <v>      -0.26666667       0.20000000       0.13333333 </v>
   <v>      -0.20000000       0.20000000       0.13333333 </v>
   <v>      -0.13333333       0.20000000       0.13333333 </v>
   <v>      -0.06666667       0.20000000       0.13333333 </v>
   <v>      -0.00000000       0.26666667       0.13333333 </v>
   <v>       0.06666667       0.26666667       0.13333333 </v>
   <v>       0.13333333       0.26666667       0.13333333 </v>
   <v>       0.20000000       0.26666667       0.13333333 </v>
   <v>       0.26666667       0.26666667       0.13333333 </v>
   <v>       0.33333333       0.26666667       0.13333333 </v>
   <v>       0.40000000       0.26666667       0.13333333 </v>
   <v>       0.46666667       0.26666667       0.13333333 </v>
   <v>      -0.46666667       0.26666667       0.13333333 </v>
   <v>      -0.40000000       0.26666667       0.13333333 </v>
   <v>      -0.33333333       0.26666667       0.13333333 </v>
   <v>      -0.26666667       0.26666667       0.13333333 </v>
   <v>      -0.20000000       0.26666667       0.13333333 </v>
   <v>      -0.13333333       0.26666667       0.13333333 </v>
   <v>      -0.06666667       0.26666667       0.13333333 </v>
   <v>      -0.00000000       0.33333333       0.13333333 </v>
   <v>       0.06666667       0.33333333       0.13333333 </v>
   <v>       0.13333333       0.33333333       0.13333333 </v>
   <v>       0.20000000       0.33333333       0.13333333 </v>
   <v>       0.26666667       0.33333333       0.13333333 </v>
   <v>       0.33333333       0.33333333       0.13333333 </v>
   <v>       0.40000000       0.33333333       0.13333333 </v>
   <v>       0.46666667       0.33333333       0.13333333 </v>
   <v>      -0.46666667       0.33333333       0.13333333 </v>
   <v>      -0.40000000       0.33333333       0.13333333 </v>
   <v>      -0.33333333       0.33333333       0.13333333 </v>
   <v>      -0.26666667       0.33333333       0.13333333 </v>
   <v>      -0.20000000       0.33333333       0.13333333 </v>
   <v>      -0.13333333       0.33333333       0.13333333 </v>
   <v>      -0.06666667       0.33333333       0.13333333 </v>
   <v>      -0.00000000       0.40000000       0.13333333 </v>
   <v>       0.06666667       0.40000000       0.13333333 </v>
   <v>       0.13333333       0.40000000       0.13333333 </v>
   <v>       0.20000000       0.40000000       0.13333333 </v>
   <v>       0.26666667       0.40000000       0.13333333 </v>
   <v>       0.33333333       0.40000000       0.13333333 </v>
   <v>       0.40000000       0.40000000       0.13333333 </v>
   <v>       0.46666667       0.40000000       0.13333333 </v>
   <v>      -0.46666667       0.40000000       0.13333333 </v>
   <v>      -0.40000000       0.40000000       0.13333333 </v>
   <v>      -0.33333333       0.40000000       0.13333333 </v>
   <v>      -0.26666667       0.40000000       0.13333333 </v>
   <v>      -0.20000000       0.40000000       0.13333333 </v>
   <v>      -0.13333333       0.40000000       0.13333333 </v>
   <v>      -0.06666667       0.40000000       0.13333333 </v>
   <v>      -0.00000000       0.46666667       0.13333333 </v>
   <v>       0.06666667       0.46666667       0.13333333 </v>
   <v>       0.13333333       0.46666667       0.13333333 </v>
   <v>       0.20000000       0.46666667       0.13333333 </v>
   <v>       0.26666667       0.46666667       0.13333333 </v>
   <v>       0.33333333       0.46666667       0.13333333 </v>
   <v>       0.40000000       0.46666667       0.13333333 </v>
   <v>       0.46666667       0.46666667       0.13333333 </v>
   <v>      -0.46666667       0.46666667       0.13333333 </v>
   <v>      -0.40000000       0.46666667       0.13333333 </v>
   <v>      -0.33333333       0.46666667       0.13333333 </v>
   <v>      -0.26666667       0.46666667       0.13333333 </v>
   <v>      -0.20000000       0.46666667       0.13333333 </v>
   <v>      -0.13333333       0.46666667       0.13333333 </v>
   <v>      -0.06666667       0.46666667       0.13333333 </v>
   <v>      -0.00000000      -0.46666667       0.13333333 </v>
   <v>       0.06666667      -0.46666667       0.13333333 </v>
   <v>       0.13333333      -0.46666667       0.13333333 </v>
   <v>       0.20000000      -0.46666667       0.13333333 </v>
   <v>       0.26666667      -0.46666667       0.13333333 </v>
   <v>       0.33333333      -0.46666667       0.13333333 </v>
   <v>       0.40000000      -0.46666667       0.13333333 </v>
   <v>       0.46666667      -0.46666667       0.13333333 </v>
   <v>      -0.46666667      -0.46666667       0.13333333 </v>
   <v>      -0.40000000      -0.46666667       0.13333333 </v>
   <v>      -0.33333333      -0.46666667       0.13333333 </v>
   <v>      -0.26666667      -0.46666667       0.13333333 </v>
   <v>      -0.20000000      -0.46666667       0.13333333 </v>
   <v>      -0.13333333      -0.46666667       0.13333333 </v>
   <v>      -0.06666667      -0.46666667       0.13333333 </v>
   <v>       0.00000000      -0.40000000       0.13333333 </v>
   <v>       0.06666667      -0.40000000       0.13333333 </v>
   <v>       0.13333333      -0.40000000       0.13333333 </v>
   <v>       0.20000000      -0.40000000       0.13333333 </v>
   <v>       0.26666667      -0.40000000       0.13333333 </v>
   <v>       0.33333333      -0.40000000       0.13333333 </v>
   <v>       0.40000000      -0.40000000       0.13333333 </v>
   <v>       0.46666667      -0.40000000       0.13333333 </v>
   <v>      -0.46666667      -0.40000000       0.13333333 </v>
   <v>      -0.40000000      -0.40000000       0.13333333 </v>
   <v>      -0.33333333      -0.40000000       0.13333333 </v>
   <v>      -0.26666667      -0.40000000       0.13333333 </v>
   <v>      -0.20000000      -0.40000000       0.13333333 </v>
   <v>      -0.13333333      -0.40000000       0.13333333 </v>
   <v>      -0.06666667      -0.40000000       0.13333333 </v>
   <v>       0.00000000      -0.33333333       0.13333333 </v>
   <v>       0.06666667      -0.33333333       0.13333333 </v>
   <v>       0.13333333      -0.33333333       0.13333333 </v>
   <v>       0.20000000      -0.33333333       0.13333333 </v>
   <v>       0.26666667      -0.33333333       0.13333333 </v>
   <v>       0.33333333      -0.33333333       0.13333333 </v>
   <v>       0.40000000      -0.33333333       0.13333333 </v>
   <v>       0.46666667      -0.33333333       0.13333333 </v>
   <v>      -0.46666667      -0.33333333       0.13333333 </v>
   <v>      -0.40000000      -0.33333333       0.13333333 </v>
   <v>      -0.33333333      -0.33333333       0.13333333 </v>
   <v>      -0.26666667      -0.33333333       0.13333333 </v>
   <v>      -0.20000000      -0.33333333       0.13333333 </v>
   <v>      -0.13333333      -0.33333333       0.13333333 </v>
   <v>      -0.06666667      -0.33333333       0.13333333 </v>
   <v>       0.00000000      -0.26666667       0.13333333 </v>
   <v>       0.06666667      -0.26666667       0.13333333 </v>
   <v>       0.13333333      -0.26666667       0.13333333 </v>
   <v>       0.20000000      -0.26666667       0.13333333 </v>
   <v>       0.26666667      -0.26666667       0.13333333 </v>
   <v>       0.33333333      -0.26666667       0.13333333 </v>
   <v>       0.40000000      -0.26666667       0.13333333 </v>
   <v>       0.46666667      -0.26666667       0.13333333 </v>
   <v>      -0.46666667      -0.26666667       0.13333333 </v>
   <v>      -0.40000000      -0.26666667       0.13333333 </v>
   <v>      -0.33333333      -0.26666667       0.13333333 </v>
   <v>      -0.26666667      -0.26666667       0.13333333 </v>
   <v>      -0.20000000      -0.26666667       0.13333333 </v>
   <v>      -0.13333333      -0.26666667       0.13333333 </v>
   <v>      -0.06666667      -0.26666667       0.13333333 </v>
   <v>       0.00000000      -0.20000000       0.13333333 </v>
   <v>       0.06666667      -0.20000000       0.13333333 </v>
   <v>       0.13333333      -0.20000000       0.13333333 </v>
   <v>       0.20000000      -0.20000000       0.13333333 </v>
   <v>       0.26666667      -0.20000000       0.13333333 </v>
   <v>       0.33333333      -0.20000000       0.13333333 </v>
   <v>       0.40000000      -0.20000000       0.13333333 </v>
   <v>       0.46666667      -0.20000000       0.13333333 </v>
   <v>      -0.46666667      -0.20000000       0.13333333 </v>
   <v>      -0.40000000      -0.20000000       0.13333333 </v>
   <v>      -0.33333333      -0.20000000       0.13333333 </v>
   <v>      -0.26666667      -0.20000000       0.13333333 </v>
   <v>      -0.20000000      -0.20000000       0.13333333 </v>
   <v>      -0.13333333      -0.20000000       0.13333333 </v>
   <v>      -0.06666667      -0.20000000       0.13333333 </v>
   <v>      -0.00000000      -0.13333333       0.13333333 </v>
   <v>       0.06666667      -0.13333333       0.13333333 </v>
   <v>       0.13333333      -0.13333333       0.13333333 </v>
   <v>       0.20000000      -0.13333333       0.13333333 </v>
   <v>       0.26666667      -0.13333333       0.13333333 </v>
   <v>       0.33333333      -0.13333333       0.13333333 </v>
   <v>       0.40000000      -0.13333333       0.13333333 </v>
   <v>       0.46666667      -0.13333333       0.13333333 </v>
   <v>      -0.46666667      -0.13333333       0.13333333 </v>
   <v>      -0.40000000      -0.13333333       0.13333333 </v>
   <v>      -0.33333333      -0.13333333       0.13333333 </v>
   <v>      -0.26666667      -0.13333333       0.13333333 </v>
   <v>      -0.20000000      -0.13333333       0.13333333 </v>
   <v>      -0.13333333      -0.13333333       0.13333333 </v>
   <v>      -0.06666667      -0.13333333       0.13333333 </v>
   <v>      -0.00000000      -0.06666667       0.13333333 </v>
   <v>       0.06666667      -0.06666667       0.13333333 </v>
   <v>       0.13333333      -0.06666667       0.13333333 </v>
   <v>       0.20000000      -0.06666667       0.13333333 </v>
   <v>       0.26666667      -0.06666667       0.13333333 </v>
   <v>       0.33333333      -0.06666667       0.13333333 </v>
   <v>       0.40000000      -0.06666667       0.13333333 </v>
   <v>       0.46666667      -0.06666667       0.13333333 </v>
   <v>      -0.46666667      -0.06666667       0.13333333 </v>
   <v>      -0.40000000      -0.06666667       0.13333333 </v>
   <v>      -0.33333333      -0.06666667       0.13333333 </v>
   <v>      -0.26666667      -0.06666667       0.13333333 </v>
   <v>      -0.20000000      -0.06666667       0.13333333 </v>
   <v>      -0.13333333      -0.06666667       0.13333333 </v>
   <v>      -0.06666667      -0.06666667       0.13333333 </v>
   <v>      -0.00000000      -0.00000000       0.20000000 </v>
   <v>       0.06666667      -0.00000000       0.20000000 </v>
   <v>       0.13333333       0.00000000       0.20000000 </v>
   <v>       0.20000000      -0.00000000       0.20000000 </v>
   <v>       0.26666667      -0.00000000       0.20000000 </v>
   <v>       0.33333333       0.00000000       0.20000000 </v>
   <v>       0.40000000      -0.00000000       0.20000000 </v>
   <v>       0.46666667       0.00000000       0.20000000 </v>
   <v>      -0.46666667      -0.00000000       0.20000000 </v>
   <v>      -0.40000000      -0.00000000       0.20000000 </v>
   <v>      -0.33333333      -0.00000000       0.20000000 </v>
   <v>      -0.26666667       0.00000000       0.20000000 </v>
   <v>      -0.20000000       0.00000000       0.20000000 </v>
   <v>      -0.13333333       0.00000000       0.20000000 </v>
   <v>      -0.06666667       0.00000000       0.20000000 </v>
   <v>      -0.00000000       0.06666667       0.20000000 </v>
   <v>       0.06666667       0.06666667       0.20000000 </v>
   <v>       0.13333333       0.06666667       0.20000000 </v>
   <v>       0.20000000       0.06666667       0.20000000 </v>
   <v>       0.26666667       0.06666667       0.20000000 </v>
   <v>       0.33333333       0.06666667       0.20000000 </v>
   <v>       0.40000000       0.06666667       0.20000000 </v>
   <v>       0.46666667       0.06666667       0.20000000 </v>
   <v>      -0.46666667       0.06666667       0.20000000 </v>
   <v>      -0.40000000       0.06666667       0.20000000 </v>
   <v>      -0.33333333       0.06666667       0.20000000 </v>
   <v>      -0.26666667       0.06666667       0.20000000 </v>
   <v>      -0.20000000       0.06666667       0.20000000 </v>
   <v>      -0.13333333       0.06666667       0.20000000 </v>
   <v>      -0.06666667       0.06666667       0.20000000 </v>
   <v>      -0.00000000       0.13333333       0.20000000 </v>
   <v>       0.06666667       0.13333333       0.20000000 </v>
   <v>       0.13333333       0.13333333       0.20000000 </v>
   <v>       0.20000000       0.13333333       0.20000000 </v>
   <v>       0.26666667       0.13333333       0.20000000 </v>
   <v>       0.33333333       0.13333333       0.20000000 </v>
   <v>       0.40000000       0.13333333       0.20000000 </v>
   <v>       0.46666667       0.13333333       0.20000000 </v>
   <v>      -0.46666667       0.13333333       0.20000000 </v>
   <v>      -0.40000000       0.13333333       0.20000000 </v>
   <v>      -0.33333333       0.13333333       0.20000000 </v>
   <v>      -0.26666667       0.13333333       0.20000000 </v>
   <v>      -0.20000000       0.13333333       0.20000000 </v>
   <v>      -0.13333333       0.13333333       0.20000000 </v>
   <v>      -0.06666667       0.13333333       0.20000000 </v>
   <v>      -0.00000000       0.20000000       0.20000000 </v>
   <v>       0.06666667       0.20000000       0.20000000 </v>
   <v>       0.13333333       0.20000000       0.20000000 </v>
   <v>       0.20000000       0.20000000       0.20000000 </v>
   <v>       0.26666667       0.20000000       0.20000000 </v>
   <v>       0.33333333       0.20000000       0.20000000 </v>
   <v>       0.40000000       0.20000000       0.20000000 </v>
   <v>       0.46666667       0.20000000       0.20000000 </v>
   <v>      -0.46666667       0.20000000       0.20000000 </v>
   <v>      -0.40000000       0.20000000       0.20000000 </v>
   <v>      -0.33333333       0.20000000       0.20000000 </v>
   <v>      -0.26666667       0.20000000       0.20000000 </v>
   <v>      -0.20000000       0.20000000       0.20000000 </v>
   <v>      -0.13333333       0.20000000       0.20000000 </v>
   <v>      -0.06666667       0.20000000       0.20000000 </v>
   <v>      -0.00000000       0.26666667       0.20000000 </v>
   <v>       0.06666667       0.26666667       0.20000000 </v>
   <v>       0.13333333       0.26666667       0.20000000 </v>
   <v>       0.20000000       0.26666667       0.20000000 </v>
   <v>       0.26666667       0.26666667       0.20000000 </v>
   <v>       0.33333333       0.26666667       0.20000000 </v>
   <v>       0.40000000       0.26666667       0.20000000 </v>
   <v>       0.46666667       0.26666667       0.20000000 </v>
   <v>      -0.46666667       0.26666667       0.20000000 </v>
   <v>      -0.40000000       0.26666667       0.20000000 </v>
   <v>      -0.33333333       0.26666667       0.20000000 </v>
   <v>      -0.26666667       0.26666667       0.20000000 </v>
   <v>      -0.20000000       0.26666667       0.20000000 </v>
   <v>      -0.13333333       0.26666667       0.20000000 </v>
   <v>      -0.06666667       0.26666667       0.20000000 </v>
   <v>      -0.00000000       0.33333333       0.20000000 </v>
   <v>       0.06666667       0.33333333       0.20000000 </v>
   <v>       0.13333333       0.33333333       0.20000000 </v>
   <v>       0.20000000       0.33333333       0.20000000 </v>
   <v>       0.26666667       0.33333333       0.20000000 </v>
   <v>       0.33333333       0.33333333       0.20000000 </v>
   <v>       0.40000000       0.33333333       0.20000000 </v>
   <v>       0.46666667       0.33333333       0.20000000 </v>
   <v>      -0.46666667       0.33333333       0.20000000 </v>
   <v>      -0.40000000       0.33333333       0.20000000 </v>
   <v>      -0.33333333       0.33333333       0.20000000 </v>
   <v>      -0.26666667       0.33333333       0.20000000 </v>
   <v>      -0.20000000       0.33333333       0.20000000 </v>
   <v>      -0.13333333       0.33333333       0.20000000 </v>
   <v>      -0.06666667       0.33333333       0.20000000 </v>
   <v>      -0.00000000       0.40000000       0.20000000 </v>
   <v>       0.06666667       0.40000000       0.20000000 </v>
   <v>       0.13333333       0.40000000       0.20000000 </v>
   <v>       0.20000000       0.40000000       0.20000000 </v>
   <v>       0.26666667       0.40000000       0.20000000 </v>
   <v>       0.33333333       0.40000000       0.20000000 </v>
   <v>       0.40000000       0.40000000       0.20000000 </v>
   <v>       0.46666667       0.40000000       0.20000000 </v>
   <v>      -0.46666667       0.40000000       0.20000000 </v>
   <v>      -0.40000000       0.40000000       0.20000000 </v>
   <v>      -0.33333333       0.40000000       0.20000000 </v>
   <v>      -0.26666667       0.40000000       0.20000000 </v>
   <v>      -0.20000000       0.40000000       0.20000000 </v>
   <v>      -0.13333333       0.40000000       0.20000000 </v>
   <v>      -0.06666667       0.40000000       0.20000000 </v>
   <v>      -0.00000000       0.46666667       0.20000000 </v>
   <v>       0.06666667       0.46666667       0.20000000 </v>
   <v>       0.13333333       0.46666667       0.20000000 </v>
   <v>       0.20000000       0.46666667       0.20000000 </v>
   <v>       0.26666667       0.46666667       0.20000000 </v>
   <v>       0.33333333       0.46666667       0.20000000 </v>
   <v>       0.40000000       0.46666667       0.20000000 </v>
   <v>       0.46666667       0.46666667       0.20000000 </v>
   <v>      -0.46666667       0.46666667       0.20000000 </v>
   <v>      -0.40000000       0.46666667       0.20000000 </v>
   <v>      -0.33333333       0.46666667       0.20000000 </v>
   <v>      -0.26666667       0.46666667       0.20000000 </v>
   <v>      -0.20000000       0.46666667       0.20000000 </v>
   <v>      -0.13333333       0.46666667       0.20000000 </v>
   <v>      -0.06666667       0.46666667       0.20000000 </v>
   <v>       0.00000000      -0.46666667       0.20000000 </v>
   <v>       0.06666667      -0.46666667       0.20000000 </v>
   <v>       0.13333333      -0.46666667       0.20000000 </v>
   <v>       0.20000000      -0.46666667       0.20000000 </v>
   <v>       0.26666667      -0.46666667       0.20000000 </v>
   <v>       0.33333333      -0.46666667       0.20000000 </v>
   <v>       0.40000000      -0.46666667       0.20000000 </v>
   <v>       0.46666667      -0.46666667       0.20000000 </v>
   <v>      -0.46666667      -0.46666667       0.20000000 </v>
   <v>      -0.40000000      -0.46666667       0.20000000 </v>
   <v>      -0.33333333      -0.46666667       0.20000000 </v>
   <v>      -0.26666667      -0.46666667       0.20000000 </v>
   <v>      -0.20000000      -0.46666667       0.20000000 </v>
   <v>      -0.13333333      -0.46666667       0.20000000 </v>
   <v>      -0.06666667      -0.46666667       0.20000000 </v>
   <v>       0.00000000      -0.40000000       0.20000000 </v>
   <v>       0.06666667      -0.40000000       0.20000000 </v>
   <v>       0.13333333      -0.40000000       0.20000000 </v>
   <v>       0.20000000      -0.40000000       0.20000000 </v>
   <v>       0.26666667      -0.40000000       0.20000000 </v>
   <v>       0.33333333      -0.40000000       0.20000000 </v>
   <v>       0.40000000      -0.40000000       0.20000000 </v>
   <v>       0.46666667      -0.40000000       0.20000000 </v>
   <v>      -0.46666667      -0.40000000       0.20000000 </v>
   <v>      -0.40000000      -0.40000000       0.20000000 </v>
   <v>      -0.33333333      -0.40000000       0.20000000 </v>
   <v>      -0.26666667      -0.40000000       0.20000000 </v>
   <v>      -0.20000000      -0.40000000       0.20000000 </v>
   <v>      -0.13333333      -0.40000000       0.20000000 </v>
   <v>      -0.06666667      -0.40000000       0.20000000 </v>
   <v>      -0.00000000      -0.33333333       0.20000000 </v>
   <v>       0.06666667      -0.33333333       0.20000000 </v>
   <v>       0.13333333      -0.33333333       0.20000000 </v>
   <v>       0.20000000      -0.33333333       0.20000000 </v>
   <v>       0.26666667      -0.33333333       0.20000000 </v>
   <v>       0.33333333      -0.33333333       0.20000000 </v>
   <v>       0.40000000      -0.33333333       0.20000000 </v>
   <v>       0.46666667      -0.33333333       0.20000000 </v>
   <v>      -0.46666667      -0.33333333       0.20000000 </v>
   <v>      -0.40000000      -0.33333333       0.20000000 </v>
   <v>      -0.33333333      -0.33333333       0.20000000 </v>
   <v>      -0.26666667      -0.33333333       0.20000000 </v>
   <v>      -0.20000000      -0.33333333       0.20000000 </v>
   <v>      -0.13333333      -0.33333333       0.20000000 </v>
   <v>      -0.06666667      -0.33333333       0.20000000 </v>
   <v>       0.00000000      -0.26666667       0.20000000 </v>
   <v>       0.06666667      -0.26666667       0.20000000 </v>
   <v>       0.13333333      -0.26666667       0.20000000 </v>
   <v>       0.20000000      -0.26666667       0.20000000 </v>
   <v>       0.26666667      -0.26666667       0.20000000 </v>
   <v>       0.33333333      -0.26666667       0.20000000 </v>
   <v>       0.40000000      -0.26666667       0.20000000 </v>
   <v>       0.46666667      -0.26666667       0.20000000 </v>
   <v>      -0.46666667      -0.26666667       0.20000000 </v>
   <v>      -0.40000000      -0.26666667       0.20000000 </v>
   <v>      -0.33333333      -0.26666667       0.20000000 </v>
   <v>      -0.26666667      -0.26666667       0.20000000 </v>
   <v>      -0.20000000      -0.26666667       0.20000000 </v>
   <v>      -0.13333333      -0.26666667       0.20000000 </v>
   <v>      -0.06666667      -0.26666667       0.20000000 </v>
   <v>      -0.00000000      -0.20000000       0.20000000 </v>
   <v>       0.06666667      -0.20000000       0.20000000 </v>
   <v>       0.13333333      -0.20000000       0.20000000 </v>
   <v>       0.20000000      -0.20000000       0.20000000 </v>
   <v>       0.26666667      -0.20000000       0.20000000 </v>
   <v>       0.33333333      -0.20000000       0.20000000 </v>
   <v>       0.40000000      -0.20000000       0.20000000 </v>
   <v>       0.46666667      -0.20000000       0.20000000 </v>
   <v>      -0.46666667      -0.20000000       0.20000000 </v>
   <v>      -0.40000000      -0.20000000       0.20000000 </v>
   <v>      -0.33333333      -0.20000000       0.20000000 </v>
   <v>      -0.26666667      -0.20000000       0.20000000 </v>
   <v>      -0.20000000      -0.20000000       0.20000000 </v>
   <v>      -0.13333333      -0.20000000       0.20000000 </v>
   <v>      -0.06666667      -0.20000000       0.20000000 </v>
   <v>      -0.00000000      -0.13333333       0.20000000 </v>
   <v>       0.06666667      -0.13333333       0.20000000 </v>
   <v>       0.13333333      -0.13333333       0.20000000 </v>
   <v>       0.20000000      -0.13333333       0.20000000 </v>
   <v>       0.26666667      -0.13333333       0.20000000 </v>
   <v>       0.33333333      -0.13333333       0.20000000 </v>
   <v>       0.40000000      -0.13333333       0.20000000 </v>
   <v>       0.46666667      -0.13333333       0.20000000 </v>
   <v>      -0.46666667      -0.13333333       0.20000000 </v>
   <v>      -0.40000000      -0.13333333       0.20000000 </v>
   <v>      -0.33333333      -0.13333333       0.20000000 </v>
   <v>      -0.26666667      -0.13333333       0.20000000 </v>
   <v>      -0.20000000      -0.13333333       0.20000000 </v>
   <v>      -0.13333333      -0.13333333       0.20000000 </v>
   <v>      -0.06666667      -0.13333333       0.20000000 </v>
   <v>      -0.00000000      -0.06666667       0.20000000 </v>
   <v>       0.06666667      -0.06666667       0.20000000 </v>
   <v>       0.13333333      -0.06666667       0.20000000 </v>
   <v>       0.20000000      -0.06666667       0.20000000 </v>
   <v>       0.26666667      -0.06666667       0.20000000 </v>
   <v>       0.33333333      -0.06666667       0.20000000 </v>
   <v>       0.40000000      -0.06666667       0.20000000 </v>
   <v>       0.46666667      -0.06666667       0.20000000 </v>
   <v>      -0.46666667      -0.06666667       0.20000000 </v>
   <v>      -0.40000000      -0.06666667       0.20000000 </v>
   <v>      -0.33333333      -0.06666667       0.20000000 </v>
   <v>      -0.26666667      -0.06666667       0.20000000 </v>
   <v>      -0.20000000      -0.06666667       0.20000000 </v>
   <v>      -0.13333333      -0.06666667       0.20000000 </v>
   <v>      -0.06666667      -0.06666667       0.20000000 </v>
   <v>      -0.00000000       0.00000000       0.26666667 </v>
   <v>       0.06666667      -0.00000000       0.26666667 </v>
   <v>       0.13333333      -0.00000000       0.26666667 </v>
   <v>       0.20000000      -0.00000000       0.26666667 </v>
   <v>       0.26666667      -0.00000000       0.26666667 </v>
   <v>       0.33333333      -0.00000000       0.26666667 </v>
   <v>       0.40000000      -0.00000000       0.26666667 </v>
   <v>       0.46666667      -0.00000000       0.26666667 </v>
   <v>      -0.46666667      -0.00000000       0.26666667 </v>
   <v>      -0.40000000      -0.00000000       0.26666667 </v>
   <v>      -0.33333333       0.00000000       0.26666667 </v>
   <v>      -0.26666667       0.00000000       0.26666667 </v>
   <v>      -0.20000000       0.00000000       0.26666667 </v>
   <v>      -0.13333333       0.00000000       0.26666667 </v>
   <v>      -0.06666667       0.00000000       0.26666667 </v>
   <v>      -0.00000000       0.06666667       0.26666667 </v>
   <v>       0.06666667       0.06666667       0.26666667 </v>
   <v>       0.13333333       0.06666667       0.26666667 </v>
   <v>       0.20000000       0.06666667       0.26666667 </v>
   <v>       0.26666667       0.06666667       0.26666667 </v>
   <v>       0.33333333       0.06666667       0.26666667 </v>
   <v>       0.40000000       0.06666667       0.26666667 </v>
   <v>       0.46666667       0.06666667       0.26666667 </v>
   <v>      -0.46666667       0.06666667       0.26666667 </v>
   <v>      -0.40000000       0.06666667       0.26666667 </v>
   <v>      -0.33333333       0.06666667       0.26666667 </v>
   <v>      -0.26666667       0.06666667       0.26666667 </v>
   <v>      -0.20000000       0.06666667       0.26666667 </v>
   <v>      -0.13333333       0.06666667       0.26666667 </v>
   <v>      -0.06666667       0.06666667       0.26666667 </v>
   <v>      -0.00000000       0.13333333       0.26666667 </v>
   <v>       0.06666667       0.13333333       0.26666667 </v>
   <v>       0.13333333       0.13333333       0.26666667 </v>
   <v>       0.20000000       0.13333333       0.26666667 </v>
   <v>       0.26666667       0.13333333       0.26666667 </v>
   <v>       0.33333333       0.13333333       0.26666667 </v>
   <v>       0.40000000       0.13333333       0.26666667 </v>
   <v>       0.46666667       0.13333333       0.26666667 </v>
   <v>      -0.46666667       0.13333333       0.26666667 </v>
   <v>      -0.40000000       0.13333333       0.26666667 </v>
   <v>      -0.33333333       0.13333333       0.26666667 </v>
   <v>      -0.26666667       0.13333333       0.26666667 </v>
   <v>      -0.20000000       0.13333333       0.26666667 </v>
   <v>      -0.13333333       0.13333333       0.26666667 </v>
   <v>      -0.06666667       0.13333333       0.26666667 </v>
   <v>       0.00000000       0.20000000       0.26666667 </v>
   <v>       0.06666667       0.20000000       0.26666667 </v>
   <v>       0.13333333       0.20000000       0.26666667 </v>
   <v>       0.20000000       0.20000000       0.26666667 </v>
   <v>       0.26666667       0.20000000       0.26666667 </v>
   <v>       0.33333333       0.20000000       0.26666667 </v>
   <v>       0.40000000       0.20000000       0.26666667 </v>
   <v>       0.46666667       0.20000000       0.26666667 </v>
   <v>      -0.46666667       0.20000000       0.26666667 </v>
   <v>      -0.40000000       0.20000000       0.26666667 </v>
   <v>      -0.33333333       0.20000000       0.26666667 </v>
   <v>      -0.26666667       0.20000000       0.26666667 </v>
   <v>      -0.20000000       0.20000000       0.26666667 </v>
   <v>      -0.13333333       0.20000000       0.26666667 </v>
   <v>      -0.06666667       0.20000000       0.26666667 </v>
   <v>      -0.00000000       0.26666667       0.26666667 </v>
   <v>       0.06666667       0.26666667       0.26666667 </v>
   <v>       0.13333333       0.26666667       0.26666667 </v>
   <v>       0.20000000       0.26666667       0.26666667 </v>
   <v>       0.26666667       0.26666667       0.26666667 </v>
   <v>       0.33333333       0.26666667       0.26666667 </v>
   <v>       0.40000000       0.26666667       0.26666667 </v>
   <v>       0.46666667       0.26666667       0.26666667 </v>
   <v>      -0.46666667       0.26666667       0.26666667 </v>
   <v>      -0.40000000       0.26666667       0.26666667 </v>
   <v>      -0.33333333       0.26666667       0.26666667 </v>
   <v>      -0.26666667       0.26666667       0.26666667 </v>
   <v>      -0.20000000       0.26666667       0.26666667 </v>
   <v>      -0.13333333       0.26666667       0.26666667 </v>
   <v>      -0.06666667       0.26666667       0.26666667 </v>
   <v>      -0.00000000       0.33333333       0.26666667 </v>
   <v>       0.06666667       0.33333333       0.26666667 </v>
   <v>       0.13333333       0.33333333       0.26666667 </v>
   <v>       0.20000000       0.33333333       0.26666667 </v>
   <v>       0.26666667       0.33333333       0.26666667 </v>
   <v>       0.33333333       0.33333333       0.26666667 </v>
   <v>       0.40000000       0.33333333       0.26666667 </v>
   <v>       0.46666667       0.33333333       0.26666667 </v>
   <v>      -0.46666667       0.33333333       0.26666667 </v>
   <v>      -0.40000000       0.33333333       0.26666667 </v>
   <v>      -0.33333333       0.33333333       0.26666667 </v>
   <v>      -0.26666667       0.33333333       0.26666667 </v>
   <v>      -0.20000000       0.33333333       0.26666667 </v>
   <v>      -0.13333333       0.33333333       0.26666667 </v>
   <v>      -0.06666667       0.33333333       0.26666667 </v>
   <v>      -0.00000000       0.40000000       0.26666667 </v>
   <v>       0.06666667       0.40000000       0.26666667 </v>
   <v>       0.13333333       0.40000000       0.26666667 </v>
   <v>       0.20000000       0.40000000       0.26666667 </v>
   <v>       0.26666667       0.40000000       0.26666667 </v>
   <v>       0.33333333       0.40000000       0.26666667 </v>
   <v>       0.40000000       0.40000000       0.26666667 </v>
   <v>       0.46666667       0.40000000       0.26666667 </v>
   <v>      -0.46666667       0.40000000       0.26666667 </v>
   <v>      -0.40000000       0.40000000       0.26666667 </v>
   <v>      -0.33333333       0.40000000       0.26666667 </v>
   <v>      -0.26666667       0.40000000       0.26666667 </v>
   <v>      -0.20000000       0.40000000       0.26666667 </v>
   <v>      -0.13333333       0.40000000       0.26666667 </v>
   <v>      -0.06666667       0.40000000       0.26666667 </v>
   <v>      -0.00000000       0.46666667       0.26666667 </v>
   <v>       0.06666667       0.46666667       0.26666667 </v>
   <v>       0.13333333       0.46666667       0.26666667 </v>
   <v>       0.20000000       0.46666667       0.26666667 </v>
   <v>       0.26666667       0.46666667       0.26666667 </v>
   <v>       0.33333333       0.46666667       0.26666667 </v>
   <v>       0.40000000       0.46666667       0.26666667 </v>
   <v>       0.46666667       0.46666667       0.26666667 </v>
   <v>      -0.46666667       0.46666667       0.26666667 </v>
   <v>      -0.40000000       0.46666667       0.26666667 </v>
   <v>      -0.33333333       0.46666667       0.26666667 </v>
   <v>      -0.26666667       0.46666667       0.26666667 </v>
   <v>      -0.20000000       0.46666667       0.26666667 </v>
   <v>      -0.13333333       0.46666667       0.26666667 </v>
   <v>      -0.06666667       0.46666667       0.26666667 </v>
   <v>       0.00000000      -0.46666667       0.26666667 </v>
   <v>       0.06666667      -0.46666667       0.26666667 </v>
   <v>       0.13333333      -0.46666667       0.26666667 </v>
   <v>       0.20000000      -0.46666667       0.26666667 </v>
   <v>       0.26666667      -0.46666667       0.26666667 </v>
   <v>       0.33333333      -0.46666667       0.26666667 </v>
   <v>       0.40000000      -0.46666667       0.26666667 </v>
   <v>       0.46666667      -0.46666667       0.26666667 </v>
   <v>      -0.46666667      -0.46666667       0.26666667 </v>
   <v>      -0.40000000      -0.46666667       0.26666667 </v>
   <v>      -0.33333333      -0.46666667       0.26666667 </v>
   <v>      -0.26666667      -0.46666667       0.26666667 </v>
   <v>      -0.20000000      -0.46666667       0.26666667 </v>
   <v>      -0.13333333      -0.46666667       0.26666667 </v>
   <v>      -0.06666667      -0.46666667       0.26666667 </v>
   <v>       0.00000000      -0.40000000       0.26666667 </v>
   <v>       0.06666667      -0.40000000       0.26666667 </v>
   <v>       0.13333333      -0.40000000       0.26666667 </v>
   <v>       0.20000000      -0.40000000       0.26666667 </v>
   <v>       0.26666667      -0.40000000       0.26666667 </v>
   <v>       0.33333333      -0.40000000       0.26666667 </v>
   <v>       0.40000000      -0.40000000       0.26666667 </v>
   <v>       0.46666667      -0.40000000       0.26666667 </v>
   <v>      -0.46666667      -0.40000000       0.26666667 </v>
   <v>      -0.40000000      -0.40000000       0.26666667 </v>
   <v>      -0.33333333      -0.40000000       0.26666667 </v>
   <v>      -0.26666667      -0.40000000       0.26666667 </v>
   <v>      -0.20000000      -0.40000000       0.26666667 </v>
   <v>      -0.13333333      -0.40000000       0.26666667 </v>
   <v>      -0.06666667      -0.40000000       0.26666667 </v>
   <v>       0.00000000      -0.33333333       0.26666667 </v>
   <v>       0.06666667      -0.33333333       0.26666667 </v>
   <v>       0.13333333      -0.33333333       0.26666667 </v>
   <v>       0.20000000      -0.33333333       0.26666667 </v>
   <v>       0.26666667      -0.33333333       0.26666667 </v>
   <v>       0.33333333      -0.33333333       0.26666667 </v>
   <v>       0.40000000      -0.33333333       0.26666667 </v>
   <v>       0.46666667      -0.33333333       0.26666667 </v>
   <v>      -0.46666667      -0.33333333       0.26666667 </v>
   <v>      -0.40000000      -0.33333333       0.26666667 </v>
   <v>      -0.33333333      -0.33333333       0.26666667 </v>
   <v>      -0.26666667      -0.33333333       0.26666667 </v>
   <v>      -0.20000000      -0.33333333       0.26666667 </v>
   <v>      -0.13333333      -0.33333333       0.26666667 </v>
   <v>      -0.06666667      -0.33333333       0.26666667 </v>
   <v>      -0.00000000      -0.26666667       0.26666667 </v>
   <v>       0.06666667      -0.26666667       0.26666667 </v>
   <v>       0.13333333      -0.26666667       0.26666667 </v>
   <v>       0.20000000      -0.26666667       0.26666667 </v>
   <v>       0.26666667      -0.26666667       0.26666667 </v>
   <v>       0.33333333      -0.26666667       0.26666667 </v>
   <v>       0.40000000      -0.26666667       0.26666667 </v>
   <v>       0.46666667      -0.26666667       0.26666667 </v>
   <v>      -0.46666667      -0.26666667       0.26666667 </v>
   <v>      -0.40000000      -0.26666667       0.26666667 </v>
   <v>      -0.33333333      -0.26666667       0.26666667 </v>
   <v>      -0.26666667      -0.26666667       0.26666667 </v>
   <v>      -0.20000000      -0.26666667       0.26666667 </v>
   <v>      -0.13333333      -0.26666667       0.26666667 </v>
   <v>      -0.06666667      -0.26666667       0.26666667 </v>
   <v>      -0.00000000      -0.20000000       0.26666667 </v>
   <v>       0.06666667      -0.20000000       0.26666667 </v>
   <v>       0.13333333      -0.20000000       0.26666667 </v>
   <v>       0.20000000      -0.20000000       0.26666667 </v>
   <v>       0.26666667      -0.20000000       0.26666667 </v>
   <v>       0.33333333      -0.20000000       0.26666667 </v>
   <v>       0.40000000      -0.20000000       0.26666667 </v>
   <v>       0.46666667      -0.20000000       0.26666667 </v>
   <v>      -0.46666667      -0.20000000       0.26666667 </v>
   <v>      -0.40000000      -0.20000000       0.26666667 </v>
   <v>      -0.33333333      -0.20000000       0.26666667 </v>
   <v>      -0.26666667      -0.20000000       0.26666667 </v>
   <v>      -0.20000000      -0.20000000       0.26666667 </v>
   <v>      -0.13333333      -0.20000000       0.26666667 </v>
   <v>      -0.06666667      -0.20000000       0.26666667 </v>
   <v>      -0.00000000      -0.13333333       0.26666667 </v>
   <v>       0.06666667      -0.13333333       0.26666667 </v>
   <v>       0.13333333      -0.13333333       0.26666667 </v>
   <v>       0.20000000      -0.13333333       0.26666667 </v>
   <v>       0.26666667      -0.13333333       0.26666667 </v>
   <v>       0.33333333      -0.13333333       0.26666667 </v>
   <v>       0.40000000      -0.13333333       0.26666667 </v>
   <v>       0.46666667      -0.13333333       0.26666667 </v>
   <v>      -0.46666667      -0.13333333       0.26666667 </v>
   <v>      -0.40000000      -0.13333333       0.26666667 </v>
   <v>      -0.33333333      -0.13333333       0.26666667 </v>
   <v>      -0.26666667      -0.13333333       0.26666667 </v>
   <v>      -0.20000000      -0.13333333       0.26666667 </v>
   <v>      -0.13333333      -0.13333333       0.26666667 </v>
   <v>      -0.06666667      -0.13333333       0.26666667 </v>
   <v>       0.00000000      -0.06666667       0.26666667 </v>
   <v>       0.06666667      -0.06666667       0.26666667 </v>
   <v>       0.13333333      -0.06666667       0.26666667 </v>
   <v>       0.20000000      -0.06666667       0.26666667 </v>
   <v>       0.26666667      -0.06666667       0.26666667 </v>
   <v>       0.33333333      -0.06666667       0.26666667 </v>
   <v>       0.40000000      -0.06666667       0.26666667 </v>
   <v>       0.46666667      -0.06666667       0.26666667 </v>
   <v>      -0.46666667      -0.06666667       0.26666667 </v>
   <v>      -0.40000000      -0.06666667       0.26666667 </v>
   <v>      -0.33333333      -0.06666667       0.26666667 </v>
   <v>      -0.26666667      -0.06666667       0.26666667 </v>
   <v>      -0.20000000      -0.06666667       0.26666667 </v>
   <v>      -0.13333333      -0.06666667       0.26666667 </v>
   <v>      -0.06666667      -0.06666667       0.26666667 </v>
   <v>      -0.00000000      -0.00000000       0.33333333 </v>
   <v>       0.06666667      -0.00000000       0.33333333 </v>
   <v>       0.13333333      -0.00000000       0.33333333 </v>
   <v>       0.20000000      -0.00000000       0.33333333 </v>
   <v>       0.26666667      -0.00000000       0.33333333 </v>
   <v>       0.33333333      -0.00000000       0.33333333 </v>
   <v>       0.40000000      -0.00000000       0.33333333 </v>
   <v>       0.46666667      -0.00000000       0.33333333 </v>
   <v>      -0.46666667      -0.00000000       0.33333333 </v>
   <v>      -0.40000000      -0.00000000       0.33333333 </v>
   <v>      -0.33333333       0.00000000       0.33333333 </v>
   <v>      -0.26666667       0.00000000       0.33333333 </v>
   <v>      -0.20000000      -0.00000000       0.33333333 </v>
   <v>      -0.13333333      -0.00000000       0.33333333 </v>
   <v>      -0.06666667      -0.00000000       0.33333333 </v>
   <v>      -0.00000000       0.06666667       0.33333333 </v>
   <v>       0.06666667       0.06666667       0.33333333 </v>
   <v>       0.13333333       0.06666667       0.33333333 </v>
   <v>       0.20000000       0.06666667       0.33333333 </v>
   <v>       0.26666667       0.06666667       0.33333333 </v>
   <v>       0.33333333       0.06666667       0.33333333 </v>
   <v>       0.40000000       0.06666667       0.33333333 </v>
   <v>       0.46666667       0.06666667       0.33333333 </v>
   <v>      -0.46666667       0.06666667       0.33333333 </v>
   <v>      -0.40000000       0.06666667       0.33333333 </v>
   <v>      -0.33333333       0.06666667       0.33333333 </v>
   <v>      -0.26666667       0.06666667       0.33333333 </v>
   <v>      -0.20000000       0.06666667       0.33333333 </v>
   <v>      -0.13333333       0.06666667       0.33333333 </v>
   <v>      -0.06666667       0.06666667       0.33333333 </v>
   <v>      -0.00000000       0.13333333       0.33333333 </v>
   <v>       0.06666667       0.13333333       0.33333333 </v>
   <v>       0.13333333       0.13333333       0.33333333 </v>
   <v>       0.20000000       0.13333333       0.33333333 </v>
   <v>       0.26666667       0.13333333       0.33333333 </v>
   <v>       0.33333333       0.13333333       0.33333333 </v>
   <v>       0.40000000       0.13333333       0.33333333 </v>
   <v>       0.46666667       0.13333333       0.33333333 </v>
   <v>      -0.46666667       0.13333333       0.33333333 </v>
   <v>      -0.40000000       0.13333333       0.33333333 </v>
   <v>      -0.33333333       0.13333333       0.33333333 </v>
   <v>      -0.26666667       0.13333333       0.33333333 </v>
   <v>      -0.20000000       0.13333333       0.33333333 </v>
   <v>      -0.13333333       0.13333333       0.33333333 </v>
   <v>      -0.06666667       0.13333333       0.33333333 </v>
   <v>      -0.00000000       0.20000000       0.33333333 </v>
   <v>       0.06666667       0.20000000       0.33333333 </v>
   <v>       0.13333333       0.20000000       0.33333333 </v>
   <v>       0.20000000       0.20000000       0.33333333 </v>
   <v>       0.26666667       0.20000000       0.33333333 </v>
   <v>       0.33333333       0.20000000       0.33333333 </v>
   <v>       0.40000000       0.20000000       0.33333333 </v>
   <v>       0.46666667       0.20000000       0.33333333 </v>
   <v>      -0.46666667       0.20000000       0.33333333 </v>
   <v>      -0.40000000       0.20000000       0.33333333 </v>
   <v>      -0.33333333       0.20000000       0.33333333 </v>
   <v>      -0.26666667       0.20000000       0.33333333 </v>
   <v>      -0.20000000       0.20000000       0.33333333 </v>
   <v>      -0.13333333       0.20000000       0.33333333 </v>
   <v>      -0.06666667       0.20000000       0.33333333 </v>
   <v>      -0.00000000       0.26666667       0.33333333 </v>
   <v>       0.06666667       0.26666667       0.33333333 </v>
   <v>       0.13333333       0.26666667       0.33333333 </v>
   <v>       0.20000000       0.26666667       0.33333333 </v>
   <v>       0.26666667       0.26666667       0.33333333 </v>
   <v>       0.33333333       0.26666667       0.33333333 </v>
   <v>       0.40000000       0.26666667       0.33333333 </v>
   <v>       0.46666667       0.26666667       0.33333333 </v>
   <v>      -0.46666667       0.26666667       0.33333333 </v>
   <v>      -0.40000000       0.26666667       0.33333333 </v>
   <v>      -0.33333333       0.26666667       0.33333333 </v>
   <v>      -0.26666667       0.26666667       0.33333333 </v>
   <v>      -0.20000000       0.26666667       0.33333333 </v>
   <v>      -0.13333333       0.26666667       0.33333333 </v>
   <v>      -0.06666667       0.26666667       0.33333333 </v>
   <v>      -0.00000000       0.33333333       0.33333333 </v>
   <v>       0.06666667       0.33333333       0.33333333 </v>
   <v>       0.13333333       0.33333333       0.33333333 </v>
   <v>       0.20000000       0.33333333       0.33333333 </v>
   <v>       0.26666667       0.33333333       0.33333333 </v>
   <v>       0.33333333       0.33333333       0.33333333 </v>
   <v>       0.40000000       0.33333333       0.33333333 </v>
   <v>       0.46666667       0.33333333       0.33333333 </v>
   <v>      -0.46666667       0.33333333       0.33333333 </v>
   <v>      -0.40000000       0.33333333       0.33333333 </v>
   <v>      -0.33333333       0.33333333       0.33333333 </v>
   <v>      -0.26666667       0.33333333       0.33333333 </v>
   <v>      -0.20000000       0.33333333       0.33333333 </v>
   <v>      -0.13333333       0.33333333       0.33333333 </v>
   <v>      -0.06666667       0.33333333       0.33333333 </v>
   <v>      -0.00000000       0.40000000       0.33333333 </v>
   <v>       0.06666667       0.40000000       0.33333333 </v>
   <v>       0.13333333       0.40000000       0.33333333 </v>
   <v>       0.20000000       0.40000000       0.33333333 </v>
   <v>       0.26666667       0.40000000       0.33333333 </v>
   <v>       0.33333333       0.40000000       0.33333333 </v>
   <v>       0.40000000       0.40000000       0.33333333 </v>
   <v>       0.46666667       0.40000000       0.33333333 </v>
   <v>      -0.46666667       0.40000000       0.33333333 </v>
   <v>      -0.40000000       0.40000000       0.33333333 </v>
   <v>      -0.33333333       0.40000000       0.33333333 </v>
   <v>      -0.26666667       0.40000000       0.33333333 </v>
   <v>      -0.20000000       0.40000000       0.33333333 </v>
   <v>      -0.13333333       0.40000000       0.33333333 </v>
   <v>      -0.06666667       0.40000000       0.33333333 </v>
   <v>      -0.00000000       0.46666667       0.33333333 </v>
   <v>       0.06666667       0.46666667       0.33333333 </v>
   <v>       0.13333333       0.46666667       0.33333333 </v>
   <v>       0.20000000       0.46666667       0.33333333 </v>
   <v>       0.26666667       0.46666667       0.33333333 </v>
   <v>       0.33333333       0.46666667       0.33333333 </v>
   <v>       0.40000000       0.46666667       0.33333333 </v>
   <v>       0.46666667       0.46666667       0.33333333 </v>
   <v>      -0.46666667       0.46666667       0.33333333 </v>
   <v>      -0.40000000       0.46666667       0.33333333 </v>
   <v>      -0.33333333       0.46666667       0.33333333 </v>
   <v>      -0.26666667       0.46666667       0.33333333 </v>
   <v>      -0.20000000       0.46666667       0.33333333 </v>
   <v>      -0.13333333       0.46666667       0.33333333 </v>
   <v>      -0.06666667       0.46666667       0.33333333 </v>
   <v>      -0.00000000      -0.46666667       0.33333333 </v>
   <v>       0.06666667      -0.46666667       0.33333333 </v>
   <v>       0.13333333      -0.46666667       0.33333333 </v>
   <v>       0.20000000      -0.46666667       0.33333333 </v>
   <v>       0.26666667      -0.46666667       0.33333333 </v>
   <v>       0.33333333      -0.46666667       0.33333333 </v>
   <v>       0.40000000      -0.46666667       0.33333333 </v>
   <v>       0.46666667      -0.46666667       0.33333333 </v>
   <v>      -0.46666667      -0.46666667       0.33333333 </v>
   <v>      -0.40000000      -0.46666667       0.33333333 </v>
   <v>      -0.33333333      -0.46666667       0.33333333 </v>
   <v>      -0.26666667      -0.46666667       0.33333333 </v>
   <v>      -0.20000000      -0.46666667       0.33333333 </v>
   <v>      -0.13333333      -0.46666667       0.33333333 </v>
   <v>      -0.06666667      -0.46666667       0.33333333 </v>
   <v>      -0.00000000      -0.40000000       0.33333333 </v>
   <v>       0.06666667      -0.40000000       0.33333333 </v>
   <v>       0.13333333      -0.40000000       0.33333333 </v>
   <v>       0.20000000      -0.40000000       0.33333333 </v>
   <v>       0.26666667      -0.40000000       0.33333333 </v>
   <v>       0.33333333      -0.40000000       0.33333333 </v>
   <v>       0.40000000      -0.40000000       0.33333333 </v>
   <v>       0.46666667      -0.40000000       0.33333333 </v>
   <v>      -0.46666667      -0.40000000       0.33333333 </v>
   <v>      -0.40000000      -0.40000000       0.33333333 </v>
   <v>      -0.33333333      -0.40000000       0.33333333 </v>
   <v>      -0.26666667      -0.40000000       0.33333333 </v>
   <v>      -0.20000000      -0.40000000       0.33333333 </v>
   <v>      -0.13333333      -0.40000000       0.33333333 </v>
   <v>      -0.06666667      -0.40000000       0.33333333 </v>
   <v>      -0.00000000      -0.33333333       0.33333333 </v>
   <v>       0.06666667      -0.33333333       0.33333333 </v>
   <v>       0.13333333      -0.33333333       0.33333333 </v>
   <v>       0.20000000      -0.33333333       0.33333333 </v>
   <v>       0.26666667      -0.33333333       0.33333333 </v>
   <v>       0.33333333      -0.33333333       0.33333333 </v>
   <v>       0.40000000      -0.33333333       0.33333333 </v>
   <v>       0.46666667      -0.33333333       0.33333333 </v>
   <v>      -0.46666667      -0.33333333       0.33333333 </v>
   <v>      -0.40000000      -0.33333333       0.33333333 </v>
   <v>      -0.33333333      -0.33333333       0.33333333 </v>
   <v>      -0.26666667      -0.33333333       0.33333333 </v>
   <v>      -0.20000000      -0.33333333       0.33333333 </v>
   <v>      -0.13333333      -0.33333333       0.33333333 </v>
   <v>      -0.06666667      -0.33333333       0.33333333 </v>
   <v>       0.00000000      -0.26666667       0.33333333 </v>
   <v>       0.06666667      -0.26666667       0.33333333 </v>
   <v>       0.13333333      -0.26666667       0.33333333 </v>
   <v>       0.20000000      -0.26666667       0.33333333 </v>
   <v>       0.26666667      -0.26666667       0.33333333 </v>
   <v>       0.33333333      -0.26666667       0.33333333 </v>
   <v>       0.40000000      -0.26666667       0.33333333 </v>
   <v>       0.46666667      -0.26666667       0.33333333 </v>
   <v>      -0.46666667      -0.26666667       0.33333333 </v>
   <v>      -0.40000000      -0.26666667       0.33333333 </v>
   <v>      -0.33333333      -0.26666667       0.33333333 </v>
   <v>      -0.26666667      -0.26666667       0.33333333 </v>
   <v>      -0.20000000      -0.26666667       0.33333333 </v>
   <v>      -0.13333333      -0.26666667       0.33333333 </v>
   <v>      -0.06666667      -0.26666667       0.33333333 </v>
   <v>      -0.00000000      -0.20000000       0.33333333 </v>
   <v>       0.06666667      -0.20000000       0.33333333 </v>
   <v>       0.13333333      -0.20000000       0.33333333 </v>
   <v>       0.20000000      -0.20000000       0.33333333 </v>
   <v>       0.26666667      -0.20000000       0.33333333 </v>
   <v>       0.33333333      -0.20000000       0.33333333 </v>
   <v>       0.40000000      -0.20000000       0.33333333 </v>
   <v>       0.46666667      -0.20000000       0.33333333 </v>
   <v>      -0.46666667      -0.20000000       0.33333333 </v>
   <v>      -0.40000000      -0.20000000       0.33333333 </v>
   <v>      -0.33333333      -0.20000000       0.33333333 </v>
   <v>      -0.26666667      -0.20000000       0.33333333 </v>
   <v>      -0.20000000      -0.20000000       0.33333333 </v>
   <v>      -0.13333333      -0.20000000       0.33333333 </v>
   <v>      -0.06666667      -0.20000000       0.33333333 </v>
   <v>      -0.00000000      -0.13333333       0.33333333 </v>
   <v>       0.06666667      -0.13333333       0.33333333 </v>
   <v>       0.13333333      -0.13333333       0.33333333 </v>
   <v>       0.20000000      -0.13333333       0.33333333 </v>
   <v>       0.26666667      -0.13333333       0.33333333 </v>
   <v>       0.33333333      -0.13333333       0.33333333 </v>
   <v>       0.40000000      -0.13333333       0.33333333 </v>
   <v>       0.46666667      -0.13333333       0.33333333 </v>
   <v>      -0.46666667      -0.13333333       0.33333333 </v>
   <v>      -0.40000000      -0.13333333       0.33333333 </v>
   <v>      -0.33333333      -0.13333333       0.33333333 </v>
   <v>      -0.26666667      -0.13333333       0.33333333 </v>
   <v>      -0.20000000      -0.13333333       0.33333333 </v>
   <v>      -0.13333333      -0.13333333       0.33333333 </v>
   <v>      -0.06666667      -0.13333333       0.33333333 </v>
   <v>      -0.00000000      -0.06666667       0.33333333 </v>
   <v>       0.06666667      -0.06666667       0.33333333 </v>
[...]
       <r>    4.1017    1.0000 </r>
       <r>    4.4097    1.0000 </r>
       <r>    4.5934    1.0000 </r>
       <r>    4.7946    1.0000 </r>
       <r>    4.9283    1.0000 </r>
       <r>    5.5666    1.0000 </r>
       <r>    6.0949    1.0000 </r>
       <r>    6.3347    1.0000 </r>
       <r>    6.4077    1.0000 </r>
       <r>    6.5553    1.0000 </r>
       <r>    6.5766    1.0000 </r>
       <r>    7.2105    1.0000 </r>
       <r>    7.3900    1.0000 </r>
       <r>    7.6682    1.0000 </r>
       <r>    7.9806    1.0000 </r>
       <r>   11.6015    0.0000 </r>
       <r>   12.0953    0.0000 </r>
       <r>   14.7488    0.0000 </r>
       <r>   16.2345    0.0000 </r>
       <r>   17.0269    0.0000 </r>
      </set>
      <set comment="kpoint 1686">
       <r>    2.1450    1.0000 </r>
       <r>    2.6360    1.0000 </r>
       <r>    3.6879    1.0000 </r>
       <r>    3.7660    1.0000 </r>
       <r>    3.8037    1.0000 </r>
       <r>    3.9287    1.0000 </r>
       <r>    3.9669    1.0000 </r>
       <r>    4.0445    1.0000 </r>
       <r>    4.4739    1.0000 </r>
       <r>    4.7597    1.0000 </r>
       <r>    4.7941    1.0000 </r>
       <r>    5.0103    1.0000 </r>
       <r>    5.6131    1.0000 </r>
       <r>    6.1438    1.0000 </r>
       <r>    6.3867    1.0000 </r>
       <r>    6.4355    1.0000 </r>
       <r>    6.6349    1.0000 </r>
       <r>    6.6402    1.0000 </r>
       <r>    7.3133    1.0000 </r>
       <r>    7.4936    1.0000 </r>
       <r>    7.5457    1.0000 </r>
       <r>    7.5965    1.0000 </r>
       <r>   12.4414    0.0000 </r>
       <r>   12.9582    0.0000 </r>
       <r>   14.4454    0.0000 </r>
       <r>   15.8275    0.0000 </r>
       <r>   16.7646    0.0000 </r>
      </set>
      <set comment="kpoint 1687">
       <r>    1.9647    1.0000 </r>
       <r>    2.4712    1.0000 </r>
       <r>    3.6345    1.0000 </r>
       <r>    3.6399    1.0000 </r>
       <r>    3.6882    1.0000 </r>
       <r>    3.8564    1.0000 </r>
       <r>    3.9889    1.0000 </r>
       <r>    4.1006    1.0000 </r>
       <r>    4.6005    1.0000 </r>
       <r>    4.7094    1.0000 </r>
       <r>    5.0575    1.0000 </r>
       <r>    5.1012    1.0000 </r>
       <r>    5.7043    1.0000 </r>
       <r>    6.1596    1.0000 </r>
       <r>    6.3878    1.0000 </r>
       <r>    6.4005    1.0000 </r>
       <r>    6.5822    1.0000 </r>
       <r>    6.6206    1.0000 </r>
       <r>    7.0902    1.0000 </r>
       <r>    7.2199    1.0000 </r>
       <r>    7.7477    1.0000 </r>
       <r>    7.7707    1.0000 </r>
       <r>   13.0414    0.0000 </r>
       <r>   13.7982    0.0000 </r>
       <r>   14.5644    0.0000 </r>
       <r>   15.4431    0.0000 </r>
       <r>   16.7332    0.0000 </r>
      </set>
      <set comment="kpoint 1688">
       <r>    1.8496    1.0000 </r>
       <r>    2.3638    1.0000 </r>
       <r>    3.5454    1.0000 </r>
       <r>    3.5805    1.0000 </r>
       <r>    3.6190    1.0000 </r>
       <r>    3.8130    1.0000 </r>
       <r>    3.9924    1.0000 </r>
       <r>    4.1964    1.0000 </r>
       <r>    4.6497    1.0000 </r>
       <r>    4.7226    1.0000 </r>
       <r>    5.1707    1.0000 </r>
       <r>    5.3357    1.0000 </r>
       <r>    5.8557    1.0000 </r>
       <r>    6.1564    1.0000 </r>
       <r>    6.3179    1.0000 </r>
       <r>    6.3286    1.0000 </r>
       <r>    6.3586    1.0000 </r>
       <r>    6.5026    1.0000 </r>
       <r>    7.0405    1.0000 </r>
       <r>    7.0942    1.0000 </r>
       <r>    7.8920    1.0000 </r>
       <r>    7.9272    1.0000 </r>
       <r>   13.1592    0.0000 </r>
       <r>   14.4142    0.0000 </r>
       <r>   15.2196    0.0000 </r>
       <r>   15.3158    0.0000 </r>
       <r>   16.8803    0.0000 </r>
      </set>
     </set>
    </set>
   </array>
  </eigenvalues>
  <separator name="orbital magnetization" >
   <v name="MAGDIPOLOUT">      0.00000000      0.00000000      0.00000000</v>
  </separator>
  <dos>
   <i name="efermi">      9.62468990 </i>
   <total>
    <array>
     <dimension dim="1">gridpoints</dimension>
     <dimension dim="2">spin</dimension>
     <field>energy</field>
     <field>total</field>
     <field>integrated</field>
     <set>
      <set comment="spin 1">
       <r>    -1.3404     0.0000     0.0000 </r>
       <r>    -1.2665     0.0000     0.0000 </r>
       <r>    -1.1927     0.0000     0.0000 </r>
       <r>    -1.1188     0.0000     0.0000 </r>
       <r>    -1.0449     0.0000     0.0000 </r>
       <r>    -0.9711     0.0000     0.0000 </r>
       <r>    -0.8972     0.0000     0.0000 </r>
       <r>    -0.8233     0.0000     0.0000 </r>
       <r>    -0.7495     0.0000     0.0000 </r>
       <r>    -0.6756     0.0000     0.0000 </r>
       <r>    -0.6018     0.0000     0.0000 </r>
       <r>    -0.5279     0.0000     0.0000 </r>
       <r>    -0.4540     0.0007     0.0001 </r>
       <r>    -0.3802     0.0068     0.0006 </r>
       <r>    -0.3063     0.0305     0.0028 </r>
       <r>    -0.2324     0.0712     0.0081 </r>
       <r>    -0.1586     0.1074     0.0160 </r>
       <r>    -0.0847     0.1483     0.0270 </r>
       <r>    -0.0109     0.1783     0.0401 </r>
       <r>     0.0630     0.1768     0.0532 </r>
       <r>     0.1369     0.2088     0.0686 </r>
       <r>     0.2107     0.2580     0.0877 </r>
       <r>     0.2846     0.2623     0.1070 </r>
       <r>     0.3585     0.2601     0.1262 </r>
       <r>     0.4323     0.2811     0.1470 </r>
       <r>     0.5062     0.3015     0.1693 </r>
       <r>     0.5800     0.3445     0.1947 </r>
       <r>     0.6539     0.3894     0.2235 </r>
       <r>     0.7278     0.3736     0.2511 </r>
       <r>     0.8016     0.3414     0.2763 </r>
       <r>     0.8755     0.3702     0.3036 </r>
       <r>     0.9493     0.4531     0.3371 </r>
       <r>     1.0232     0.4946     0.3736 </r>
       <r>     1.0971     0.4902     0.4099 </r>
       <r>     1.1709     0.4829     0.4455 </r>
       <r>     1.2448     0.4944     0.4820 </r>
       <r>     1.3187     0.5273     0.5210 </r>
       <r>     1.3925     0.5819     0.5640 </r>
       <r>     1.4664     0.6047     0.6086 </r>
       <r>     1.5402     0.6700     0.6581 </r>
       <r>     1.6141     0.7258     0.7117 </r>
       <r>     1.6880     0.7184     0.7648 </r>
       <r>     1.7618     0.7340     0.8190 </r>
       <r>     1.8357     0.8147     0.8792 </r>
       <r>     1.9096     0.9585     0.9500 </r>
       <r>     1.9834     1.1146     1.0323 </r>
       <r>     2.0573     1.2693     1.1261 </r>
       <r>     2.1311     1.5464     1.2403 </r>
       <r>     2.2050     1.7569     1.3700 </r>
       <r>     2.2789     1.8205     1.5045 </r>
       <r>     2.3527     2.0878     1.6587 </r>
       <r>     2.4266     2.6669     1.8557 </r>
       <r>     2.5005     3.2694     2.0972 </r>
       <r>     2.5743     3.8448     2.3812 </r>
       <r>     2.6482     4.4465     2.7096 </r>
       <r>     2.7220     5.0442     3.0822 </r>
       <r>     2.7959     5.5516     3.4922 </r>
       <r>     2.8698     6.0105     3.9362 </r>
       <r>     2.9436     6.5189     4.4177 </r>
       <r>     3.0175     6.8298     4.9221 </r>
       <r>     3.0914     6.6988     5.4169 </r>
       <r>     3.1652     6.6604     5.9089 </r>
       <r>     3.2391     6.7421     6.4069 </r>
       <r>     3.3129     6.5827     6.8931 </r>
       <r>     3.3868     6.3576     7.3627 </r>
       <r>     3.4607     6.4479     7.8389 </r>
       <r>     3.5345     6.4321     8.3140 </r>
       <r>     3.6084     6.0865     8.7636 </r>
       <r>     3.6822     5.8327     9.1944 </r>
       <r>     3.7561     5.4894     9.5998 </r>
       <r>     3.8300     5.4194    10.0001 </r>
       <r>     3.9038     5.8997    10.4359 </r>
       <r>     3.9777     6.6096    10.9241 </r>
       <r>     4.0516     7.2893    11.4625 </r>
       <r>     4.1254     8.0775    12.0591 </r>
       <r>     4.1993     8.8606    12.7136 </r>
       <r>     4.2731     9.1147    13.3868 </r>
       <r>     4.3470     8.8449    14.0401 </r>
       <r>     4.4209     8.1907    14.6451 </r>
       <r>     4.4947     7.5788    15.2049 </r>
       <r>     4.5686     7.2249    15.7385 </r>
       <r>     4.6425     7.1054    16.2634 </r>
       <r>     4.7163     7.3595    16.8069 </r>
       <r>     4.7902     8.1935    17.4121 </r>
       <r>     4.8640     9.0991    18.0842 </r>
       <r>     4.9379     9.4049    18.7789 </r>
       <r>     5.0118     9.0938    19.4506 </r>
       <r>     5.0856     8.2931    20.0631 </r>
       <r>     5.1595     7.5121    20.6180 </r>
       <r>     5.2334     7.2962    21.1569 </r>
       <r>     5.3072     7.6767    21.7239 </r>
       <r>     5.3811     8.2137    22.3306 </r>
       <r>     5.4549     8.3204    22.9452 </r>
       <r>     5.5288     7.9075    23.5292 </r>
       <r>     5.6027     7.6171    24.0918 </r>
       <r>     5.6765     7.5863    24.6522 </r>
       <r>     5.7504     7.5621    25.2107 </r>
       <r>     5.8243     7.6971    25.7793 </r>
       <r>     5.8981     7.6752    26.3462 </r>
       <r>     5.9720     7.4001    26.8928 </r>
       <r>     6.0458     7.3738    27.4374 </r>
       <r>     6.1197     7.9476    28.0244 </r>
       <r>     6.1936     8.5296    28.6544 </r>
       <r>     6.2674     8.6513    29.2934 </r>
       <r>     6.3413     8.4971    29.9211 </r>
       <r>     6.4151     8.0977    30.5192 </r>
       <r>     6.4890     7.6125    31.0814 </r>
       <r>     6.5629     7.4329    31.6304 </r>
       <r>     6.6367     7.3748    32.1752 </r>
       <r>     6.7106     7.2110    32.7078 </r>
       <r>     6.7845     7.2038    33.2399 </r>
       <r>     6.8583     7.3699    33.7842 </r>
       <r>     6.9322     7.4411    34.3338 </r>
       <r>     7.0060     7.4241    34.8822 </r>
       <r>     7.0799     7.5975    35.4434 </r>
       <r>     7.1538     7.7892    36.0187 </r>
       <r>     7.2276     8.1234    36.6187 </r>
       <r>     7.3015     8.4291    37.2413 </r>
       <r>     7.3754     8.0363    37.8349 </r>
       <r>     7.4492     7.2831    38.3728 </r>
       <r>     7.5231     7.3782    38.9178 </r>
       <r>     7.5969     8.1437    39.5193 </r>
       <r>     7.6708     8.3858    40.1387 </r>
       <r>     7.7447     7.8321    40.7172 </r>
       <r>     7.8185     6.8184    41.2208 </r>
       <r>     7.8924     5.3804    41.6182 </r>
       <r>     7.9663     4.1617    41.9256 </r>
       <r>     8.0401     3.1693    42.1597 </r>
       <r>     8.1140     2.0398    42.3104 </r>
       <r>     8.1878     1.2358    42.4017 </r>
       <r>     8.2617     0.9872    42.4746 </r>
       <r>     8.3356     0.9271    42.5430 </r>
       <r>     8.4094     0.9314    42.6118 </r>
       <r>     8.4833     1.1463    42.6965 </r>
       <r>     8.5572     1.3286    42.7946 </r>
       <r>     8.6310     1.2104    42.8840 </r>
       <r>     8.7049     1.0356    42.9605 </r>
       <r>     8.7787     1.0254    43.0363 </r>
       <r>     8.8526     1.0553    43.1142 </r>
       <r>     8.9265     1.0977    43.1953 </r>
       <r>     9.0003     1.2015    43.2840 </r>
       <r>     9.0742     1.1530    43.3692 </r>
       <r>     9.1480     1.0112    43.4439 </r>
       <r>     9.2219     0.9423    43.5135 </r>
       <r>     9.2958     0.9715    43.5853 </r>
       <r>     9.3696     1.1445    43.6698 </r>
       <r>     9.4435     1.3540    43.7698 </r>
       <r>     9.5174     1.3893    43.8724 </r>
       <r>     9.5912     1.2363    43.9637 </r>
       <r>     9.6651     1.0287    44.0397 </r>
       <r>     9.7389     0.8661    44.1037 </r>
       <r>     9.8128     0.8025    44.1630 </r>
       <r>     9.8867     0.8533    44.2260 </r>
       <r>     9.9605     1.1043    44.3076 </r>
       <r>    10.0344     1.4064    44.4114 </r>
       <r>    10.1083     1.4559    44.5190 </r>
       <r>    10.1821     1.2197    44.6091 </r>
       <r>    10.2560     1.0047    44.6833 </r>
       <r>    10.3298     1.0383    44.7600 </r>
       <r>    10.4037     1.0120    44.8347 </r>
       <r>    10.4776     0.8734    44.8992 </r>
       <r>    10.5514     0.9749    44.9712 </r>
       <r>    10.6253     1.2606    45.0643 </r>
       <r>    10.6992     1.2739    45.1584 </r>
       <r>    10.7730     1.1319    45.2420 </r>
       <r>    10.8469     1.1004    45.3233 </r>
       <r>    10.9207     1.0686    45.4022 </r>
       <r>    10.9946     0.9593    45.4731 </r>
       <r>    11.0685     0.9223    45.5412 </r>
       <r>    11.1423     1.0723    45.6204 </r>
       <r>    11.2162     1.2176    45.7104 </r>
       <r>    11.2901     1.1681    45.7966 </r>
       <r>    11.3639     1.0741    45.8760 </r>
       <r>    11.4378     1.0423    45.9530 </r>
       <r>    11.5116     1.0119    46.0277 </r>
       <r>    11.5855     0.9763    46.0998 </r>
       <r>    11.6594     1.0248    46.1755 </r>
       <r>    11.7332     1.0187    46.2508 </r>
       <r>    11.8071     0.9678    46.3222 </r>
       <r>    11.8809     0.9506    46.3924 </r>
       <r>    11.9548     1.0420    46.4694 </r>
       <r>    12.0287     1.2081    46.5586 </r>
       <r>    12.1025     1.2846    46.6535 </r>
       <r>    12.1764     1.3352    46.7522 </r>
       <r>    12.2503     1.3170    46.8494 </r>
       <r>    12.3241     1.3036    46.9457 </r>
       <r>    12.3980     1.3756    47.0473 </r>
       <r>    12.4718     1.3048    47.1437 </r>
       <r>    12.5457     1.1987    47.2322 </r>
       <r>    12.6196     1.1620    47.3181 </r>
       <r>    12.6934     1.1022    47.3995 </r>
       <r>    12.7673     1.0574    47.4776 </r>
       <r>    12.8412     1.0533    47.5554 </r>
       <r>    12.9150     1.0949    47.6362 </r>
       <r>    12.9889     1.0725    47.7155 </r>
       <r>    13.0627     0.9645    47.7867 </r>
       <r>    13.1366     0.9275    47.8552 </r>
       <r>    13.2105     0.9167    47.9229 </r>
       <r>    13.2843     0.9065    47.9899 </r>
       <r>    13.3582     0.9986    48.0636 </r>
       <r>    13.4321     1.1410    48.1479 </r>
       <r>    13.5059     1.3870    48.2504 </r>
       <r>    13.5798     1.5462    48.3646 </r>
       <r>    13.6536     1.3717    48.4659 </r>
       <r>    13.7275     1.2077    48.5551 </r>
       <r>    13.8014     1.2246    48.6455 </r>
       <r>    13.8752     1.2422    48.7373 </r>
       <r>    13.9491     1.1560    48.8227 </r>
       <r>    14.0229     1.0305    48.8988 </r>
       <r>    14.0968     0.9387    48.9681 </r>
       <r>    14.1707     0.9089    49.0352 </r>
       <r>    14.2445     1.0368    49.1118 </r>
       <r>    14.3184     1.1996    49.2004 </r>
       <r>    14.3923     1.1774    49.2874 </r>
       <r>    14.4661     1.1347    49.3712 </r>
       <r>    14.5400     1.2684    49.4649 </r>
       <r>    14.6138     1.4015    49.5684 </r>
       <r>    14.6877     1.3454    49.6678 </r>
       <r>    14.7616     1.3017    49.7639 </r>
       <r>    14.8354     1.3401    49.8629 </r>
       <r>    14.9093     1.3550    49.9630 </r>
       <r>    14.9832     1.3322    50.0614 </r>
       <r>    15.0570     1.2905    50.1567 </r>
       <r>    15.1309     1.2955    50.2524 </r>
       <r>    15.2047     1.3329    50.3509 </r>
       <r>    15.2786     1.3649    50.4517 </r>
       <r>    15.3525     1.4561    50.5592 </r>
       <r>    15.4263     1.4976    50.6698 </r>
       <r>    15.5002     1.5303    50.7829 </r>
       <r>    15.5741     1.4759    50.8919 </r>
       <r>    15.6479     1.2959    50.9876 </r>
       <r>    15.7218     1.2334    51.0787 </r>
       <r>    15.7956     1.2013    51.1674 </r>
       <r>    15.8695     1.0884    51.2478 </r>
       <r>    15.9434     1.0550    51.3257 </r>
       <r>    16.0172     1.1596    51.4114 </r>
       <r>    16.0911     1.2262    51.5020 </r>
       <r>    16.1650     1.2161    51.5918 </r>
       <r>    16.2388     1.2160    51.6816 </r>
       <r>    16.3127     1.1767    51.7685 </r>
       <r>    16.3865     1.0053    51.8428 </r>
       <r>    16.4604     0.8798    51.9078 </r>
       <r>    16.5343     0.9412    51.9773 </r>
       <r>    16.6081     1.0534    52.0551 </r>
       <r>    16.6820     1.0536    52.1329 </r>
       <r>    16.7558     1.0991    52.2141 </r>
       <r>    16.8297     1.2164    52.3039 </r>
       <r>    16.9036     1.2853    52.3989 </r>
       <r>    16.9774     1.2295    52.4897 </r>
       <r>    17.0513     1.1235    52.5727 </r>
       <r>    17.1252     1.0593    52.6509 </r>
       <r>    17.1990     1.0158    52.7259 </r>
       <r>    17.2729     0.9981    52.7997 </r>
       <r>    17.3467     1.0573    52.8778 </r>
       <r>    17.4206     1.0855    52.9579 </r>
       <r>    17.4945     1.0095    53.0325 </r>
       <r>    17.5683     0.9218    53.1006 </r>
       <r>    17.6422     0.8936    53.1666 </r>
       <r>    17.7161     0.8232    53.2274 </r>
       <r>    17.7899     0.8127    53.2874 </r>
       <r>    17.8638     0.9759    53.3595 </r>
       <r>    17.9376     1.1033    53.4410 </r>
       <r>    18.0115     1.0162    53.5161 </r>
       <r>    18.0854     0.8432    53.5783 </r>
       <r>    18.1592     0.7185    53.6314 </r>
       <r>    18.2331     0.6080    53.6763 </r>
       <r>    18.3070     0.5703    53.7184 </r>
       <r>    18.3808     0.5813    53.7614 </r>
       <r>    18.4547     0.5028    53.7985 </r>
       <r>    18.5285     0.3650    53.8255 </r>
       <r>    18.6024     0.2502    53.8440 </r>
       <r>    18.6763     0.1895    53.8579 </r>
       <r>    18.7501     0.1946    53.8723 </r>
       <r>    18.8240     0.2251    53.8889 </r>
       <r>    18.8979     0.2560    53.9079 </r>
       <r>    18.9717     0.2563    53.9268 </r>
       <r>    19.0456     0.2244    53.9434 </r>
       <r>    19.1194     0.2019    53.9583 </r>
       <r>    19.1933     0.1767    53.9713 </r>
       <r>    19.2672     0.1325    53.9811 </r>
       <r>    19.3410     0.0725    53.9865 </r>
       <r>    19.4149     0.0239    53.9882 </r>
       <r>    19.4887     0.0177    53.9895 </r>
       <r>    19.5626     0.0259    53.9915 </r>
       <r>    19.6365     0.0193    53.9929 </r>
       <r>    19.7103     0.0210    53.9944 </r>
       <r>    19.7842     0.0347    53.9970 </r>
       <r>    19.8581     0.0286    53.9991 </r>
       <r>    19.9319     0.0104    53.9999 </r>
       <r>    20.0058     0.0016    54.0000 </r>
       <r>    20.0796     0.0001    54.0000 </r>
       <r>    20.1535     0.0000    54.0000 </r>
       <r>    20.2274     0.0000    54.0000 </r>
       <r>    20.3012     0.0000    54.0000 </r>
       <r>    20.3751     0.0000    54.0000 </r>
       <r>    20.4490     0.0000    54.0000 </r>
       <r>    20.5228     0.0000    54.0000 </r>
       <r>    20.5967     0.0000    54.0000 </r>
       <r>    20.6705     0.0000    54.0000 </r>
       <r>    20.7444     0.0000    54.0000 </r>
       <r>    20.8183     0.0000    54.0000 </r>
      </set>
     </set>
    </array>
   </total>
  </dos>
 </calculation>
 <structure name="finalpos" >
  <crystal>
   <varray name="basis" >
    <v>       3.92589157      -0.00000003      -0.00000006 </v>
    <v>      -0.00000003       4.15438220      -0.22849088 </v>
    <v>      -0.00000006      -0.22849089       4.15438227 </v>
   </varray>
   <i name="volume">     67.55157438 </i>
   <varray name="rec_basis" >
    <v>       0.25471921       0.00000000       0.00000000 </v>
    <v>       0.00000000       0.24144003       0.01327919 </v>
    <v>       0.00000000       0.01327919       0.24144003 </v>
   </varray>
  </crystal>
  <varray name="positions" >
   <v>       1.00000000       0.00000000       0.00000000 </v>
   <v>       0.00000000       0.50000000       0.50000000 </v>
   <v>       0.50000000       1.00000000       0.50000000 </v>
   <v>       0.50000000       0.50000000       1.00000000 </v>
  </varray>
 </structure>
</modeling>
