   8   8   0   0
  0.5819323E+01  0.3609341E-09  0.3609341E-09  0.3573605E-09  0.5000000E-15
  1.000000000000000E-004
  CAR 
 unknown system                          
     23.96527572    -12.19860506  301     10.82949944      1.00000000
    -12.199  0.0000E+00  0.0000E+00
    -12.078  0.0000E+00  0.0000E+00
    -11.958  0.0000E+00  0.0000E+00
    -11.837  0.0000E+00  0.0000E+00
    -11.716  0.0000E+00  0.0000E+00
    -11.596  0.0000E+00  0.0000E+00
    -11.475  0.0000E+00  0.0000E+00
    -11.355  0.0000E+00  0.0000E+00
    -11.234  0.0000E+00  0.0000E+00
    -11.114  0.0000E+00  0.0000E+00
    -10.993  0.0000E+00  0.0000E+00
    -10.873  0.0000E+00  0.0000E+00
    -10.752  0.5841E-11  0.7041E-12
    -10.632  0.7264E-05  0.8756E-06
    -10.511  0.5469E-03  0.6680E-04
    -10.390  0.1759E-02  0.2788E-03
    -10.270  0.2226E-02  0.5472E-03
    -10.149  0.3314E-02  0.9467E-03
    -10.029  0.2403E-02  0.1236E-02
     -9.908  0.4531E-02  0.1783E-02
     -9.788  0.3433E-02  0.2196E-02
     -9.667  0.4140E-02  0.2695E-02
     -9.547  0.5044E-02  0.3304E-02
     -9.426  0.5047E-02  0.3912E-02
     -9.305  0.5424E-02  0.4566E-02
     -9.185  0.3947E-02  0.5042E-02
     -9.064  0.7061E-02  0.5893E-02
     -8.944  0.6390E-02  0.6663E-02
     -8.823  0.5542E-02  0.7331E-02
     -8.703  0.4766E-02  0.7906E-02
     -8.582  0.7846E-02  0.8851E-02
     -8.462  0.7938E-02  0.9808E-02
     -8.341  0.6160E-02  0.1055E-01
     -8.221  0.7497E-02  0.1145E-01
     -8.100  0.6665E-02  0.1226E-01
     -7.979  0.8744E-02  0.1331E-01
     -7.859  0.5573E-02  0.1398E-01
     -7.738  0.1042E-01  0.1524E-01
     -7.618  0.9784E-02  0.1642E-01
     -7.497  0.5834E-02  0.1712E-01
     -7.377  0.8086E-02  0.1810E-01
     -7.256  0.7891E-02  0.1905E-01
     -7.136  0.1212E-01  0.2051E-01
     -7.015  0.9449E-02  0.2165E-01
     -6.895  0.8894E-02  0.2272E-01
     -6.774  0.8482E-02  0.2374E-01
     -6.653  0.1048E-01  0.2501E-01
     -6.533  0.8817E-02  0.2607E-01
     -6.412  0.1194E-01  0.2751E-01
     -6.292  0.9245E-02  0.2862E-01
     -6.171  0.1229E-01  0.3010E-01
     -6.051  0.9662E-02  0.3127E-01
     -5.930  0.1383E-01  0.3294E-01
     -5.810  0.1020E-01  0.3416E-01
     -5.689  0.7896E-02  0.3512E-01
     -5.569  0.1181E-01  0.3654E-01
     -5.448  0.1675E-01  0.3856E-01
     -5.327  0.1174E-01  0.3997E-01
     -5.207  0.1356E-01  0.4161E-01
     -5.086  0.1442E-01  0.4335E-01
     -4.966  0.1150E-01  0.4473E-01
     -4.845  0.1611E-01  0.4668E-01
     -4.725  0.1579E-01  0.4858E-01
     -4.604  0.1783E-01  0.5073E-01
     -4.484  0.1182E-01  0.5215E-01
     -4.363  0.1343E-01  0.5377E-01
     -4.243  0.1694E-01  0.5581E-01
     -4.122  0.1816E-01  0.5800E-01
     -4.001  0.7817E-02  0.5895E-01
     -3.881  0.1288E-01  0.6050E-01
     -3.760  0.8891E-02  0.6157E-01
     -3.640  0.1403E-01  0.6326E-01
     -3.519  0.1721E-01  0.6534E-01
     -3.399  0.9111E-02  0.6644E-01
     -3.278  0.8050E-02  0.6741E-01
     -3.158  0.1336E-01  0.6902E-01
     -3.037  0.1052E-01  0.7028E-01
     -2.917  0.1233E-01  0.7177E-01
     -2.796  0.6931E-02  0.7261E-01
     -2.675  0.6337E-02  0.7337E-01
     -2.555  0.7545E-02  0.7428E-01
     -2.434  0.9815E-02  0.7546E-01
     -2.314  0.1286E-01  0.7701E-01
     -2.193  0.1292E-01  0.7857E-01
     -2.073  0.1450E-01  0.8032E-01
     -1.952  0.8706E-02  0.8137E-01
     -1.832  0.7220E-02  0.8224E-01
     -1.711  0.7496E-02  0.8314E-01
     -1.591  0.1100E-01  0.8447E-01
     -1.470  0.1009E-01  0.8568E-01
     -1.349  0.1011E-01  0.8690E-01
     -1.229  0.1740E-01  0.8900E-01
     -1.108  0.1922E-01  0.9132E-01
     -0.988  0.1800E-01  0.9349E-01
     -0.867  0.2477E-01  0.9647E-01
     -0.747  0.2044E-01  0.9894E-01
     -0.626  0.2397E-01  0.1018E+00
     -0.506  0.1344E-01  0.1034E+00
     -0.385  0.2301E-01  0.1062E+00
     -0.265  0.2833E-01  0.1096E+00
     -0.144  0.2034E-01  0.1121E+00
     -0.023  0.1402E-01  0.1138E+00
      0.097  0.1314E-01  0.1154E+00
      0.218  0.9840E-02  0.1165E+00
      0.338  0.1242E-01  0.1180E+00
      0.459  0.1289E-01  0.1196E+00
      0.579  0.1245E-01  0.1211E+00
      0.700  0.1260E-01  0.1226E+00
      0.820  0.1799E-01  0.1248E+00
      0.941  0.9321E-02  0.1259E+00
      1.061  0.8650E-02  0.1270E+00
      1.182  0.1046E-01  0.1282E+00
      1.303  0.1374E-01  0.1299E+00
      1.423  0.7411E-02  0.1308E+00
      1.544  0.9650E-02  0.1319E+00
      1.664  0.1791E-01  0.1341E+00
      1.785  0.1568E-01  0.1360E+00
      1.905  0.2360E-01  0.1388E+00
      2.026  0.1442E-01  0.1406E+00
      2.146  0.2127E-01  0.1431E+00
      2.267  0.2271E-01  0.1459E+00
      2.387  0.2962E-01  0.1494E+00
      2.508  0.1617E-01  0.1514E+00
      2.629  0.1513E-01  0.1532E+00
      2.749  0.1714E-01  0.1553E+00
      2.870  0.1967E-01  0.1576E+00
      2.990  0.3243E-01  0.1616E+00
      3.111  0.2620E-01  0.1647E+00
      3.231  0.1483E-01  0.1665E+00
      3.352  0.1503E-01  0.1683E+00
      3.472  0.2318E-01  0.1711E+00
      3.593  0.2725E-01  0.1744E+00
      3.714  0.2775E-01  0.1777E+00
      3.834  0.2174E-01  0.1804E+00
      3.955  0.2205E-01  0.1830E+00
      4.075  0.2002E-01  0.1854E+00
      4.196  0.3112E-01  0.1892E+00
      4.316  0.3842E-01  0.1938E+00
      4.437  0.2580E-01  0.1969E+00
      4.557  0.3001E-01  0.2005E+00
      4.678  0.3060E-01  0.2042E+00
      4.798  0.2700E-01  0.2075E+00
      4.919  0.3032E-01  0.2111E+00
      5.040  0.4459E-01  0.2165E+00
      5.160  0.3685E-01  0.2210E+00
      5.281  0.2241E-01  0.2237E+00
      5.401  0.1923E-01  0.2260E+00
      5.522  0.2954E-01  0.2295E+00
      5.642  0.3809E-01  0.2341E+00
      5.763  0.4099E-01  0.2391E+00
      5.883  0.1996E-01  0.2415E+00
      6.004  0.2652E-01  0.2447E+00
      6.124  0.2895E-01  0.2482E+00
      6.245  0.2911E-01  0.2517E+00
      6.366  0.2865E-01  0.2551E+00
      6.486  0.3389E-01  0.2592E+00
      6.607  0.2247E-01  0.2619E+00
      6.727  0.2437E-01  0.2649E+00
      6.848  0.2981E-01  0.2684E+00
      6.968  0.3352E-01  0.2725E+00
      7.089  0.2277E-01  0.2752E+00
      7.209  0.2547E-01  0.2783E+00
      7.330  0.2295E-01  0.2811E+00
      7.450  0.2646E-01  0.2843E+00
      7.571  0.3247E-01  0.2882E+00
      7.692  0.2833E-01  0.2916E+00
      7.812  0.1639E-01  0.2936E+00
      7.933  0.1971E-01  0.2959E+00
      8.053  0.2348E-01  0.2988E+00
      8.174  0.2044E-01  0.3012E+00
      8.294  0.1864E-01  0.3035E+00
      8.415  0.1001E-01  0.3047E+00
      8.535  0.8684E-02  0.3057E+00
      8.656  0.1623E-01  0.3077E+00
      8.776  0.1517E-01  0.3095E+00
      8.897  0.1063E-01  0.3108E+00
      9.018  0.8677E-02  0.3118E+00
      9.138  0.6723E-02  0.3127E+00
      9.259  0.8452E-02  0.3137E+00
      9.379  0.1168E-01  0.3151E+00
      9.500  0.6347E-02  0.3159E+00
      9.620  0.5405E-02  0.3165E+00
      9.741  0.5706E-02  0.3172E+00
      9.861  0.5585E-02  0.3179E+00
      9.982  0.5231E-02  0.3185E+00
     10.102  0.3339E-02  0.3189E+00
     10.223  0.4408E-02  0.3194E+00
     10.344  0.1716E-02  0.3196E+00
     10.464  0.2365E-02  0.3199E+00
     10.585  0.6013E-03  0.3200E+00
     10.705  0.6710E-04  0.3200E+00
     10.826  0.1677E-08  0.3200E+00
     10.946  0.0000E+00  0.3200E+00
     11.067  0.0000E+00  0.3200E+00
     11.187  0.0000E+00  0.3200E+00
     11.308  0.0000E+00  0.3200E+00
     11.428  0.0000E+00  0.3200E+00
     11.549  0.0000E+00  0.3200E+00
     11.670  0.0000E+00  0.3200E+00
     11.790  0.0000E+00  0.3200E+00
     11.911  0.0000E+00  0.3200E+00
     12.031  0.0000E+00  0.3200E+00
     12.152  0.0000E+00  0.3200E+00
     12.272  0.0000E+00  0.3200E+00
     12.393  0.0000E+00  0.3200E+00
     12.513  0.0000E+00  0.3200E+00
     12.634  0.0000E+00  0.3200E+00
     12.754  0.0000E+00  0.3200E+00
     12.875  0.0000E+00  0.3200E+00
     12.996  0.0000E+00  0.3200E+00
     13.116  0.0000E+00  0.3200E+00
     13.237  0.0000E+00  0.3200E+00
     13.357  0.0000E+00  0.3200E+00
     13.478  0.0000E+00  0.3200E+00
     13.598  0.0000E+00  0.3200E+00
     13.719  0.0000E+00  0.3200E+00
     13.839  0.0000E+00  0.3200E+00
     13.960  0.0000E+00  0.3200E+00
     14.080  0.0000E+00  0.3200E+00
     14.201  0.0000E+00  0.3200E+00
     14.322  0.6690E-15  0.3200E+00
     14.442  0.9526E-07  0.3200E+00
     14.563  0.3514E-03  0.3200E+00
     14.683  0.1387E-02  0.3202E+00
     14.804  0.1682E-02  0.3204E+00
     14.924  0.3666E-02  0.3209E+00
     15.045  0.5315E-02  0.3215E+00
     15.165  0.4378E-02  0.3220E+00
     15.286  0.1066E-01  0.3233E+00
     15.406  0.8149E-02  0.3243E+00
     15.527  0.7489E-02  0.3252E+00
     15.648  0.1177E-01  0.3266E+00
     15.768  0.8825E-02  0.3277E+00
     15.889  0.1903E-01  0.3300E+00
     16.009  0.1663E-01  0.3320E+00
     16.130  0.1679E-01  0.3340E+00
     16.250  0.1670E-01  0.3360E+00
     16.371  0.1469E-01  0.3378E+00
     16.491  0.1836E-01  0.3400E+00
     16.612  0.1636E-01  0.3420E+00
     16.732  0.2533E-01  0.3450E+00
     16.853  0.2296E-01  0.3478E+00
     16.974  0.2266E-01  0.3505E+00
     17.094  0.2122E-01  0.3531E+00
     17.215  0.1979E-01  0.3555E+00
     17.335  0.2256E-01  0.3582E+00
     17.456  0.2963E-01  0.3618E+00
     17.576  0.2447E-01  0.3647E+00
     17.697  0.2289E-01  0.3675E+00
     17.817  0.2380E-01  0.3703E+00
     17.938  0.2913E-01  0.3738E+00
     18.059  0.3272E-01  0.3778E+00
     18.179  0.4230E-01  0.3829E+00
     18.300  0.3452E-01  0.3871E+00
     18.420  0.3383E-01  0.3911E+00
     18.541  0.2989E-01  0.3947E+00
     18.661  0.3612E-01  0.3991E+00
     18.782  0.4631E-01  0.4047E+00
     18.902  0.4187E-01  0.4097E+00
     19.023  0.4926E-01  0.4157E+00
     19.143  0.4404E-01  0.4210E+00
     19.264  0.4886E-01  0.4269E+00
     19.385  0.3395E-01  0.4309E+00
     19.505  0.2803E-01  0.4343E+00
     19.626  0.3122E-01  0.4381E+00
     19.746  0.2155E-01  0.4407E+00
     19.867  0.2738E-01  0.4440E+00
     19.987  0.2940E-01  0.4475E+00
     20.108  0.3136E-01  0.4513E+00
     20.228  0.3269E-01  0.4553E+00
     20.349  0.2501E-01  0.4583E+00
     20.469  0.3172E-01  0.4621E+00
     20.590  0.2315E-01  0.4649E+00
     20.711  0.1959E-01  0.4672E+00
     20.831  0.1779E-01  0.4694E+00
     20.952  0.1621E-01  0.4713E+00
     21.072  0.1515E-01  0.4732E+00
     21.193  0.1901E-01  0.4755E+00
     21.313  0.1127E-01  0.4768E+00
     21.434  0.1137E-01  0.4782E+00
     21.554  0.5492E-02  0.4789E+00
     21.675  0.4341E-02  0.4794E+00
     21.795  0.1590E-02  0.4796E+00
     21.916  0.6712E-03  0.4796E+00
     22.037  0.4101E-03  0.4797E+00
     22.157  0.1136E-02  0.4798E+00
     22.278  0.9257E-03  0.4799E+00
     22.398  0.4469E-03  0.4800E+00
     22.519  0.7262E-05  0.4800E+00
     22.639  0.5841E-11  0.4800E+00
     22.760  0.0000E+00  0.4800E+00
     22.880  0.0000E+00  0.4800E+00
     23.001  0.0000E+00  0.4800E+00
     23.121  0.0000E+00  0.4800E+00
     23.242  0.0000E+00  0.4800E+00
     23.363  0.0000E+00  0.4800E+00
     23.483  0.0000E+00  0.4800E+00
     23.604  0.0000E+00  0.4800E+00
     23.724  0.0000E+00  0.4800E+00
     23.845  0.0000E+00  0.4800E+00
     23.965  0.0000E+00  0.4800E+00
