 running on   24 total cores
 distrk:  each k-point on   24 cores,    1 groups
 distr:  one band on    1 cores,   24 groups
 using from now: INCAR     
 vasp.5.4.4.18Apr17-6-g9f103f2a35 (build Jan 14 2019 14:48:31) complex          
  
 POSCAR found type information on POSCAR  C 
 POSCAR found :  1 types and       8 ions
 scaLAPACK will be used

 ----------------------------------------------------------------------------- 
|                                                                             |
|           W    W    AA    RRRRR   N    N  II  N    N   GGGG   !!!           |
|           W    W   A  A   R    R  NN   N  II  NN   N  G    G  !!!           |
|           W    W  A    A  R    R  N N  N  II  N N  N  G       !!!           |
|           W WW W  AAAAAA  RRRRR   N  N N  II  N  N N  G  GGG   !            |
|           WW  WW  A    A  R   R   N   NN  II  N   NN  G    G                |
|           W    W  A    A  R    R  N    N  II  N    N   GGGG   !!!           |
|                                                                             |
|      For optimal performance we recommend to set                            |
|        NCORE= 4 - approx SQRT( number of cores)                             |
|      NCORE specifies how many cores store one orbital (NPAR=cpu/NCORE).     |
|      This setting can  greatly improve the performance of VASP for DFT.     |
|      The default,   NCORE=1            might be grossly inefficient         |
|      on modern multi-core architectures or massively parallel machines.     |
|      Do your own testing !!!!                                               |
|      Unfortunately you need to use the default for GW and RPA calculations. |
|      (for HF NCORE is supported but not extensively tested yet)             |
|                                                                             |
 ----------------------------------------------------------------------------- 

 WARNING: for PREC=h ENMAX is automatically increase by 25 %
        this was not the case for versions prior to vasp.4.4
 LDA part: xc-table for Pade appr. of Perdew
 POSCAR found type information on POSCAR  C 
 POSCAR found :  1 types and       8 ions
 POSCAR, INCAR and KPOINTS ok, starting setup
 FFT: planning ...
 WAVECAR not read
 entering main loop
       N       E                     dE             d eps       ncg     rms          rms(c)
DAV:   1     0.100151287986E+03    0.10015E+03   -0.25835E+04  9408   0.199E+03
DAV:   2    -0.722829125285E+02   -0.17243E+03   -0.16967E+03 15144   0.223E+02
DAV:   3    -0.750809572624E+02   -0.27980E+01   -0.27980E+01 11040   0.404E+01
DAV:   4    -0.750996308322E+02   -0.18674E-01   -0.18674E-01 17448   0.255E+00
DAV:   5    -0.750996340255E+02   -0.31933E-05   -0.31933E-05 10800   0.380E-02    0.161E+01
DAV:   6    -0.733842796998E+02    0.17154E+01   -0.12969E+00 11232   0.603E+00    0.105E+01
DAV:   7    -0.728102241355E+02    0.57406E+00   -0.16908E+00 13848   0.697E+00    0.216E+00
DAV:   8    -0.728087386616E+02    0.14855E-02   -0.23387E-02 15144   0.116E+00    0.118E-01
DAV:   9    -0.728089343864E+02   -0.19572E-03   -0.45476E-04 13800   0.141E-01    0.616E-02
DAV:  10    -0.728090581905E+02   -0.12380E-03   -0.11924E-04 14448   0.860E-02    0.475E-03
DAV:  11    -0.728090593049E+02   -0.11144E-05   -0.15638E-06 14472   0.975E-03    0.277E-03
DAV:  12    -0.728090596709E+02   -0.36604E-06   -0.73596E-08 14568   0.243E-03    0.151E-04
DAV:  13    -0.728090596804E+02   -0.94842E-08   -0.14937E-10 14520   0.953E-05
   1 F= -.72809060E+02 E0= -.72809060E+02  d E =-.728091E+02
 curvature:   0.00 expect dE= 0.000E+00 dE for cont linesearch  0.000E+00
 trial: gam= 0.00000 g(F)=  0.432E-60 g(S)=  0.000E+00 ort = 0.000E+00 (trialstep = 0.100E+01)
 search vector abs. value=  0.100E-09
 reached required accuracy - stopping structural energy minimisation
