<?xml version="1.0" encoding="ISO-8859-1"?>
<modeling>
 <generator>
  <i name="program" type="string">vasp </i>
  <i name="version" type="string">5.4.4.18Apr17-6-g9f103f2a35  </i>
  <i name="subversion" type="string">(build Jan 14 2019 14:48:31) complex            parallel </i>
  <i name="platform" type="string">LinuxIFC </i>
  <i name="date" type="string">2019 08 26 </i>
  <i name="time" type="string">21:13:34 </i>
 </generator>
 <incar>
  <i type="int" name="ISTART">     0</i>
  <i type="string" name="PREC">high     (precision level)</i>
  <i type="logical" name="ADDGRID"> T  </i>
  <i type="int" name="NELM">    40</i>
  <i type="int" name="NELMIN">     4</i>
  <i type="int" name="IBRION">     2</i>
  <i name="EDIFF">      0.00000001</i>
  <i name="EDIFFG">     -0.01000000</i>
  <i type="int" name="NSW">   100</i>
  <i type="int" name="ISIF">     2</i>
  <i type="logical" name="LREAL"> F  </i>
  <i type="int" name="ISMEAR">     0</i>
  <i name="SIGMA">      0.05000000</i>
  <i type="logical" name="LWAVE"> F  </i>
  <i type="logical" name="LCHARG"> F  </i>
  <v type="int" name="KPOINT_BSE">    -1     0     0     0</v>
  <i type="int" name="NELM">    40</i>
 </incar>
 <structure name="primitive_cell" >
  <crystal>
   <varray name="basis" >
    <v>       1.80467056       0.00000000       1.78680254 </v>
    <v>      -1.80467056       0.00000000       1.78680254 </v>
    <v>       0.00000000      -1.80467056      -1.78680254 </v>
   </varray>
   <i name="volume">     11.63864505 </i>
   <varray name="rec_basis" >
    <v>       0.27705888      -0.27705888       0.27982947 </v>
    <v>      -0.27705888      -0.27705888       0.27982947 </v>
    <v>       0.00000000      -0.55411776       0.00000000 </v>
   </varray>
  </crystal>
  <varray name="positions" >
   <v>       0.25000000      -0.25000000      -0.50000000 </v>
   <v>       0.00000000       0.00000000       0.00000000 </v>
  </varray>
 </structure>
 <varray name="primitive_index" >
  <v type="int" >        1 </v>
  <v type="int" >        2 </v>
 </varray>
 <kpoints>
  <generation param="Monkhorst-Pack">
   <v type="int" name="divisions">      14       14       14 </v>
   <v name="usershift">      0.00000000       0.00000000       0.00000000 </v>
   <v name="genvec1">      0.07142857       0.00000000       0.00000000 </v>
   <v name="genvec2">      0.00000000       0.07142857       0.00000000 </v>
   <v name="genvec3">      0.00000000       0.00000000       0.07142857 </v>
   <v name="shift">      0.50000000       0.50000000       0.50000000 </v>
  </generation>
  <varray name="kpointlist" >
   <v>       0.03571429       0.03571429       0.03571429 </v>
   <v>       0.10714286       0.03571429       0.03571429 </v>
   <v>       0.17857143       0.03571429       0.03571429 </v>
   <v>       0.25000000       0.03571429       0.03571429 </v>
   <v>       0.32142857       0.03571429       0.03571429 </v>
   <v>       0.39285714       0.03571429       0.03571429 </v>
   <v>       0.46428571       0.03571429       0.03571429 </v>
   <v>       0.10714286       0.10714286       0.03571429 </v>
   <v>       0.17857143       0.10714286       0.03571429 </v>
   <v>       0.25000000       0.10714286       0.03571429 </v>
   <v>       0.32142857       0.10714286       0.03571429 </v>
   <v>       0.39285714       0.10714286       0.03571429 </v>
   <v>       0.46428571       0.10714286       0.03571429 </v>
   <v>       0.17857143       0.17857143       0.03571429 </v>
   <v>       0.25000000       0.17857143       0.03571429 </v>
   <v>       0.32142857       0.17857143       0.03571429 </v>
   <v>       0.39285714       0.17857143       0.03571429 </v>
   <v>       0.46428571       0.17857143       0.03571429 </v>
   <v>       0.25000000       0.25000000       0.03571429 </v>
   <v>       0.32142857       0.25000000       0.03571429 </v>
   <v>       0.39285714       0.25000000       0.03571429 </v>
   <v>       0.46428571       0.25000000       0.03571429 </v>
   <v>       0.32142857       0.32142857       0.03571429 </v>
   <v>       0.39285714       0.32142857       0.03571429 </v>
   <v>       0.46428571       0.32142857       0.03571429 </v>
   <v>       0.39285714       0.39285714       0.03571429 </v>
   <v>       0.46428571       0.39285714       0.03571429 </v>
   <v>       0.46428571       0.46428571       0.03571429 </v>
   <v>       0.03571429       0.03571429       0.10714286 </v>
   <v>       0.10714286       0.03571429       0.10714286 </v>
   <v>       0.17857143       0.03571429       0.10714286 </v>
   <v>       0.25000000       0.03571429       0.10714286 </v>
   <v>       0.32142857       0.03571429       0.10714286 </v>
   <v>       0.39285714       0.03571429       0.10714286 </v>
   <v>       0.46428571       0.03571429       0.10714286 </v>
   <v>       0.10714286       0.10714286       0.10714286 </v>
   <v>       0.17857143       0.10714286       0.10714286 </v>
   <v>       0.25000000       0.10714286       0.10714286 </v>
   <v>       0.32142857       0.10714286       0.10714286 </v>
   <v>       0.39285714       0.10714286       0.10714286 </v>
   <v>       0.46428571       0.10714286       0.10714286 </v>
   <v>       0.17857143       0.17857143       0.10714286 </v>
   <v>       0.25000000       0.17857143       0.10714286 </v>
   <v>       0.32142857       0.17857143       0.10714286 </v>
   <v>       0.39285714       0.17857143       0.10714286 </v>
   <v>       0.46428571       0.17857143       0.10714286 </v>
   <v>       0.25000000       0.25000000       0.10714286 </v>
   <v>       0.32142857       0.25000000       0.10714286 </v>
   <v>       0.39285714       0.25000000       0.10714286 </v>
   <v>       0.46428571       0.25000000       0.10714286 </v>
   <v>       0.32142857       0.32142857       0.10714286 </v>
   <v>       0.39285714       0.32142857       0.10714286 </v>
   <v>       0.46428571       0.32142857       0.10714286 </v>
   <v>       0.39285714       0.39285714       0.10714286 </v>
   <v>       0.46428571       0.39285714       0.10714286 </v>
   <v>       0.46428571       0.46428571       0.10714286 </v>
   <v>       0.03571429       0.03571429       0.17857143 </v>
   <v>       0.10714286       0.03571429       0.17857143 </v>
   <v>       0.17857143       0.03571429       0.17857143 </v>
   <v>       0.25000000       0.03571429       0.17857143 </v>
   <v>       0.32142857       0.03571429       0.17857143 </v>
   <v>       0.39285714       0.03571429       0.17857143 </v>
   <v>       0.46428571       0.03571429       0.17857143 </v>
   <v>       0.10714286       0.10714286       0.17857143 </v>
   <v>       0.17857143       0.10714286       0.17857143 </v>
   <v>       0.25000000       0.10714286       0.17857143 </v>
   <v>       0.32142857       0.10714286       0.17857143 </v>
   <v>       0.39285714       0.10714286       0.17857143 </v>
   <v>       0.46428571       0.10714286       0.17857143 </v>
   <v>       0.17857143       0.17857143       0.17857143 </v>
   <v>       0.25000000       0.17857143       0.17857143 </v>
   <v>       0.32142857       0.17857143       0.17857143 </v>
   <v>       0.39285714       0.17857143       0.17857143 </v>
   <v>       0.46428571       0.17857143       0.17857143 </v>
   <v>       0.25000000       0.25000000       0.17857143 </v>
   <v>       0.32142857       0.25000000       0.17857143 </v>
   <v>       0.39285714       0.25000000       0.17857143 </v>
   <v>       0.46428571       0.25000000       0.17857143 </v>
   <v>       0.32142857       0.32142857       0.17857143 </v>
   <v>       0.39285714       0.32142857       0.17857143 </v>
   <v>       0.46428571       0.32142857       0.17857143 </v>
   <v>       0.39285714       0.39285714       0.17857143 </v>
   <v>       0.46428571       0.39285714       0.17857143 </v>
   <v>       0.46428571       0.46428571       0.17857143 </v>
   <v>       0.03571429       0.03571429       0.25000000 </v>
   <v>       0.10714286       0.03571429       0.25000000 </v>
   <v>       0.17857143       0.03571429       0.25000000 </v>
   <v>       0.25000000       0.03571429       0.25000000 </v>
   <v>       0.32142857       0.03571429       0.25000000 </v>
   <v>       0.39285714       0.03571429       0.25000000 </v>
   <v>       0.46428571       0.03571429       0.25000000 </v>
   <v>       0.10714286       0.10714286       0.25000000 </v>
   <v>       0.17857143       0.10714286       0.25000000 </v>
   <v>       0.25000000       0.10714286       0.25000000 </v>
   <v>       0.32142857       0.10714286       0.25000000 </v>
   <v>       0.39285714       0.10714286       0.25000000 </v>
   <v>       0.46428571       0.10714286       0.25000000 </v>
   <v>       0.17857143       0.17857143       0.25000000 </v>
   <v>       0.25000000       0.17857143       0.25000000 </v>
   <v>       0.32142857       0.17857143       0.25000000 </v>
   <v>       0.39285714       0.17857143       0.25000000 </v>
   <v>       0.46428571       0.17857143       0.25000000 </v>
   <v>       0.25000000       0.25000000       0.25000000 </v>
   <v>       0.32142857       0.25000000       0.25000000 </v>
   <v>       0.39285714       0.25000000       0.25000000 </v>
   <v>       0.46428571       0.25000000       0.25000000 </v>
   <v>       0.32142857       0.32142857       0.25000000 </v>
   <v>       0.39285714       0.32142857       0.25000000 </v>
   <v>       0.46428571       0.32142857       0.25000000 </v>
   <v>       0.39285714       0.39285714       0.25000000 </v>
   <v>       0.46428571       0.39285714       0.25000000 </v>
   <v>       0.46428571       0.46428571       0.25000000 </v>
   <v>       0.03571429       0.03571429       0.32142857 </v>
   <v>       0.10714286       0.03571429       0.32142857 </v>
   <v>       0.17857143       0.03571429       0.32142857 </v>
   <v>       0.25000000       0.03571429       0.32142857 </v>
   <v>       0.32142857       0.03571429       0.32142857 </v>
   <v>       0.39285714       0.03571429       0.32142857 </v>
   <v>       0.46428571       0.03571429       0.32142857 </v>
   <v>       0.10714286       0.10714286       0.32142857 </v>
   <v>       0.17857143       0.10714286       0.32142857 </v>
   <v>       0.25000000       0.10714286       0.32142857 </v>
   <v>       0.32142857       0.10714286       0.32142857 </v>
   <v>       0.39285714       0.10714286       0.32142857 </v>
   <v>       0.46428571       0.10714286       0.32142857 </v>
   <v>       0.17857143       0.17857143       0.32142857 </v>
   <v>       0.25000000       0.17857143       0.32142857 </v>
   <v>       0.32142857       0.17857143       0.32142857 </v>
   <v>       0.39285714       0.17857143       0.32142857 </v>
   <v>       0.46428571       0.17857143       0.32142857 </v>
   <v>       0.25000000       0.25000000       0.32142857 </v>
   <v>       0.32142857       0.25000000       0.32142857 </v>
   <v>       0.39285714       0.25000000       0.32142857 </v>
   <v>       0.46428571       0.25000000       0.32142857 </v>
   <v>       0.32142857       0.32142857       0.32142857 </v>
   <v>       0.39285714       0.32142857       0.32142857 </v>
   <v>       0.46428571       0.32142857       0.32142857 </v>
   <v>       0.39285714       0.39285714       0.32142857 </v>
   <v>       0.46428571       0.39285714       0.32142857 </v>
   <v>       0.46428571       0.46428571       0.32142857 </v>
   <v>       0.03571429       0.03571429       0.39285714 </v>
   <v>       0.10714286       0.03571429       0.39285714 </v>
   <v>       0.17857143       0.03571429       0.39285714 </v>
   <v>       0.25000000       0.03571429       0.39285714 </v>
   <v>       0.32142857       0.03571429       0.39285714 </v>
   <v>       0.39285714       0.03571429       0.39285714 </v>
   <v>       0.46428571       0.03571429       0.39285714 </v>
   <v>       0.10714286       0.10714286       0.39285714 </v>
   <v>       0.17857143       0.10714286       0.39285714 </v>
   <v>       0.25000000       0.10714286       0.39285714 </v>
   <v>       0.32142857       0.10714286       0.39285714 </v>
   <v>       0.39285714       0.10714286       0.39285714 </v>
   <v>       0.46428571       0.10714286       0.39285714 </v>
   <v>       0.17857143       0.17857143       0.39285714 </v>
   <v>       0.25000000       0.17857143       0.39285714 </v>
   <v>       0.32142857       0.17857143       0.39285714 </v>
   <v>       0.39285714       0.17857143       0.39285714 </v>
   <v>       0.46428571       0.17857143       0.39285714 </v>
   <v>       0.25000000       0.25000000       0.39285714 </v>
   <v>       0.32142857       0.25000000       0.39285714 </v>
   <v>       0.39285714       0.25000000       0.39285714 </v>
   <v>       0.46428571       0.25000000       0.39285714 </v>
   <v>       0.32142857       0.32142857       0.39285714 </v>
   <v>       0.39285714       0.32142857       0.39285714 </v>
   <v>       0.46428571       0.32142857       0.39285714 </v>
   <v>       0.39285714       0.39285714       0.39285714 </v>
   <v>       0.46428571       0.39285714       0.39285714 </v>
   <v>       0.46428571       0.46428571       0.39285714 </v>
   <v>       0.03571429       0.03571429       0.46428571 </v>
   <v>       0.10714286       0.03571429       0.46428571 </v>
   <v>       0.17857143       0.03571429       0.46428571 </v>
   <v>       0.25000000       0.03571429       0.46428571 </v>
   <v>       0.32142857       0.03571429       0.46428571 </v>
   <v>       0.39285714       0.03571429       0.46428571 </v>
   <v>       0.46428571       0.03571429       0.46428571 </v>
   <v>       0.10714286       0.10714286       0.46428571 </v>
   <v>       0.17857143       0.10714286       0.46428571 </v>
   <v>       0.25000000       0.10714286       0.46428571 </v>
   <v>       0.32142857       0.10714286       0.46428571 </v>
   <v>       0.39285714       0.10714286       0.46428571 </v>
   <v>       0.46428571       0.10714286       0.46428571 </v>
   <v>       0.17857143       0.17857143       0.46428571 </v>
   <v>       0.25000000       0.17857143       0.46428571 </v>
   <v>       0.32142857       0.17857143       0.46428571 </v>
   <v>       0.39285714       0.17857143       0.46428571 </v>
   <v>       0.46428571       0.17857143       0.46428571 </v>
   <v>       0.25000000       0.25000000       0.46428571 </v>
   <v>       0.32142857       0.25000000       0.46428571 </v>
   <v>       0.39285714       0.25000000       0.46428571 </v>
   <v>       0.46428571       0.25000000       0.46428571 </v>
   <v>       0.32142857       0.32142857       0.46428571 </v>
   <v>       0.39285714       0.32142857       0.46428571 </v>
   <v>       0.46428571       0.32142857       0.46428571 </v>
   <v>       0.39285714       0.39285714       0.46428571 </v>
   <v>       0.46428571       0.39285714       0.46428571 </v>
   <v>       0.46428571       0.46428571       0.46428571 </v>
  </varray>
  <varray name="weights" >
   <v>       0.00291545 </v>
   <v>       0.00583090 </v>
   <v>       0.00583090 </v>
   <v>       0.00583090 </v>
   <v>       0.00583090 </v>
   <v>       0.00583090 </v>
   <v>       0.00583090 </v>
   <v>       0.00291545 </v>
   <v>       0.00583090 </v>
   <v>       0.00583090 </v>
   <v>       0.00583090 </v>
   <v>       0.00583090 </v>
   <v>       0.00583090 </v>
   <v>       0.00291545 </v>
   <v>       0.00583090 </v>
   <v>       0.00583090 </v>
   <v>       0.00583090 </v>
   <v>       0.00583090 </v>
   <v>       0.00291545 </v>
   <v>       0.00583090 </v>
   <v>       0.00583090 </v>
   <v>       0.00583090 </v>
   <v>       0.00291545 </v>
   <v>       0.00583090 </v>
   <v>       0.00583090 </v>
   <v>       0.00291545 </v>
   <v>       0.00583090 </v>
   <v>       0.00291545 </v>
   <v>       0.00291545 </v>
   <v>       0.00583090 </v>
   <v>       0.00583090 </v>
   <v>       0.00583090 </v>
   <v>       0.00583090 </v>
   <v>       0.00583090 </v>
   <v>       0.00583090 </v>
   <v>       0.00291545 </v>
   <v>       0.00583090 </v>
   <v>       0.00583090 </v>
   <v>       0.00583090 </v>
   <v>       0.00583090 </v>
   <v>       0.00583090 </v>
   <v>       0.00291545 </v>
   <v>       0.00583090 </v>
   <v>       0.00583090 </v>
   <v>       0.00583090 </v>
   <v>       0.00583090 </v>
   <v>       0.00291545 </v>
   <v>       0.00583090 </v>
   <v>       0.00583090 </v>
   <v>       0.00583090 </v>
   <v>       0.00291545 </v>
   <v>       0.00583090 </v>
   <v>       0.00583090 </v>
   <v>       0.00291545 </v>
   <v>       0.00583090 </v>
   <v>       0.00291545 </v>
   <v>       0.00291545 </v>
   <v>       0.00583090 </v>
   <v>       0.00583090 </v>
   <v>       0.00583090 </v>
   <v>       0.00583090 </v>
   <v>       0.00583090 </v>
   <v>       0.00583090 </v>
   <v>       0.00291545 </v>
   <v>       0.00583090 </v>
   <v>       0.00583090 </v>
   <v>       0.00583090 </v>
   <v>       0.00583090 </v>
   <v>       0.00583090 </v>
   <v>       0.00291545 </v>
   <v>       0.00583090 </v>
   <v>       0.00583090 </v>
   <v>       0.00583090 </v>
   <v>       0.00583090 </v>
   <v>       0.00291545 </v>
   <v>       0.00583090 </v>
   <v>       0.00583090 </v>
   <v>       0.00583090 </v>
   <v>       0.00291545 </v>
   <v>       0.00583090 </v>
   <v>       0.00583090 </v>
   <v>       0.00291545 </v>
   <v>       0.00583090 </v>
   <v>       0.00291545 </v>
   <v>       0.00291545 </v>
   <v>       0.00583090 </v>
   <v>       0.00583090 </v>
   <v>       0.00583090 </v>
   <v>       0.00583090 </v>
   <v>       0.00583090 </v>
   <v>       0.00583090 </v>
   <v>       0.00291545 </v>
   <v>       0.00583090 </v>
   <v>       0.00583090 </v>
   <v>       0.00583090 </v>
   <v>       0.00583090 </v>
   <v>       0.00583090 </v>
   <v>       0.00291545 </v>
   <v>       0.00583090 </v>
   <v>       0.00583090 </v>
   <v>       0.00583090 </v>
   <v>       0.00583090 </v>
   <v>       0.00291545 </v>
   <v>       0.00583090 </v>
   <v>       0.00583090 </v>
   <v>       0.00583090 </v>
   <v>       0.00291545 </v>
   <v>       0.00583090 </v>
   <v>       0.00583090 </v>
   <v>       0.00291545 </v>
   <v>       0.00583090 </v>
   <v>       0.00291545 </v>
   <v>       0.00291545 </v>
   <v>       0.00583090 </v>
   <v>       0.00583090 </v>
   <v>       0.00583090 </v>
   <v>       0.00583090 </v>
   <v>       0.00583090 </v>
   <v>       0.00583090 </v>
   <v>       0.00291545 </v>
   <v>       0.00583090 </v>
   <v>       0.00583090 </v>
   <v>       0.00583090 </v>
   <v>       0.00583090 </v>
   <v>       0.00583090 </v>
   <v>       0.00291545 </v>
   <v>       0.00583090 </v>
   <v>       0.00583090 </v>
   <v>       0.00583090 </v>
   <v>       0.00583090 </v>
   <v>       0.00291545 </v>
   <v>       0.00583090 </v>
   <v>       0.00583090 </v>
   <v>       0.00583090 </v>
   <v>       0.00291545 </v>
   <v>       0.00583090 </v>
   <v>       0.00583090 </v>
   <v>       0.00291545 </v>
   <v>       0.00583090 </v>
   <v>       0.00291545 </v>
   <v>       0.00291545 </v>
   <v>       0.00583090 </v>
   <v>       0.00583090 </v>
   <v>       0.00583090 </v>
   <v>       0.00583090 </v>
   <v>       0.00583090 </v>
   <v>       0.00583090 </v>
   <v>       0.00291545 </v>
   <v>       0.00583090 </v>
   <v>       0.00583090 </v>
   <v>       0.00583090 </v>
   <v>       0.00583090 </v>
   <v>       0.00583090 </v>
   <v>       0.00291545 </v>
   <v>       0.00583090 </v>
   <v>       0.00583090 </v>
   <v>       0.00583090 </v>
   <v>       0.00583090 </v>
   <v>       0.00291545 </v>
   <v>       0.00583090 </v>
   <v>       0.00583090 </v>
   <v>       0.00583090 </v>
   <v>       0.00291545 </v>
   <v>       0.00583090 </v>
   <v>       0.00583090 </v>
   <v>       0.00291545 </v>
   <v>       0.00583090 </v>
   <v>       0.00291545 </v>
   <v>       0.00291545 </v>
   <v>       0.00583090 </v>
   <v>       0.00583090 </v>
   <v>       0.00583090 </v>
   <v>       0.00583090 </v>
   <v>       0.00583090 </v>
   <v>       0.00583090 </v>
   <v>       0.00291545 </v>
   <v>       0.00583090 </v>
   <v>       0.00583090 </v>
   <v>       0.00583090 </v>
   <v>       0.00583090 </v>
   <v>       0.00583090 </v>
   <v>       0.00291545 </v>
   <v>       0.00583090 </v>
   <v>       0.00583090 </v>
   <v>       0.00583090 </v>
   <v>       0.00583090 </v>
   <v>       0.00291545 </v>
   <v>       0.00583090 </v>
   <v>       0.00583090 </v>
   <v>       0.00583090 </v>
   <v>       0.00291545 </v>
   <v>       0.00583090 </v>
   <v>       0.00583090 </v>
   <v>       0.00291545 </v>
   <v>       0.00583090 </v>
   <v>       0.00291545 </v>
  </varray>
 </kpoints>
 <parameters>
  <separator name="general" >
   <i type="string" name="SYSTEM">unknown system</i>
   <i type="logical" name="LCOMPAT"> F  </i>
  </separator>
  <separator name="electronic" >
   <i type="string" name="PREC">high</i>
   <i name="ENMAX">    875.00000000</i>
   <i name="ENAUG">    946.76800000</i>
   <i name="EDIFF">      0.00000001</i>
   <i type="int" name="IALGO">    38</i>
   <i type="int" name="IWAVPR">    11</i>
   <i type="int" name="NBANDS">    24</i>
   <i name="NELECT">     32.00000000</i>
   <i type="int" name="TURBO">     0</i>
   <i type="int" name="IRESTART">     0</i>
   <i type="int" name="NREBOOT">     0</i>
   <i type="int" name="NMIN">     0</i>
   <i name="EREF">      0.00000000</i>
   <separator name="electronic smearing" >
    <i type="int" name="ISMEAR">     0</i>
    <i name="SIGMA">      0.05000000</i>
    <i name="KSPACING">      0.50000000</i>
    <i type="logical" name="KGAMMA"> T  </i>
   </separator>
   <separator name="electronic projectors" >
    <i type="logical" name="LREAL"> F  </i>
    <v name="ROPT">      0.00000000</v>
    <i type="int" name="LMAXPAW">  -100</i>
    <i type="int" name="LMAXMIX">     2</i>
    <i type="logical" name="NLSPLINE"> F  </i>
   </separator>
   <separator name="electronic startup" >
    <i type="int" name="ISTART">     0</i>
    <i type="int" name="ICHARG">     2</i>
    <i type="int" name="INIWAV">     1</i>
   </separator>
   <separator name="electronic spin" >
    <i type="int" name="ISPIN">     1</i>
    <i type="logical" name="LNONCOLLINEAR"> F  </i>
    <v name="MAGMOM">      1.00000000      1.00000000      1.00000000      1.00000000      1.00000000      1.00000000      1.00000000      1.00000000</v>
    <i name="NUPDOWN">     -1.00000000</i>
    <i type="logical" name="LSORBIT"> F  </i>
    <v name="SAXIS">      0.00000000      0.00000000      1.00000000</v>
    <i type="logical" name="LSPIRAL"> F  </i>
    <v name="QSPIRAL">      0.00000000      0.00000000      0.00000000</v>
    <i type="logical" name="LZEROZ"> F  </i>
   </separator>
   <separator name="electronic exchange-correlation" >
    <i type="logical" name="LASPH"> F  </i>
    <i type="logical" name="LMETAGGA"> F  </i>
   </separator>
   <separator name="electronic convergence" >
    <i type="int" name="NELM">    40</i>
    <i type="int" name="NELMDL">    -5</i>
    <i type="int" name="NELMIN">     4</i>
    <i name="ENINI">    875.00000000</i>
    <separator name="electronic convergence detail" >
     <i type="logical" name="LDIAG"> T  </i>
     <i type="logical" name="LSUBROT"> F  </i>
     <i name="WEIMIN">      0.00100000</i>
     <i name="EBREAK">      0.00000000</i>
     <i name="DEPER">      0.30000000</i>
     <i type="int" name="NRMM">     4</i>
     <i name="TIME">      0.40000000</i>
    </separator>
   </separator>
   <separator name="electronic mixer" >
    <i name="AMIX">      0.40000000</i>
    <i name="BMIX">      1.00000000</i>
    <i name="AMIN">      0.10000000</i>
    <i name="AMIX_MAG">      1.60000000</i>
    <i name="BMIX_MAG">      1.00000000</i>
    <separator name="electronic mixer details" >
     <i type="int" name="IMIX">     4</i>
     <i type="logical" name="MIXFIRST"> F  </i>
     <i type="int" name="MAXMIX">   -45</i>
     <i name="WC">    100.00000000</i>
     <i type="int" name="INIMIX">     1</i>
     <i type="int" name="MIXPRE">     1</i>
     <i type="int" name="MREMOVE">     5</i>
    </separator>
   </separator>
   <separator name="electronic dipolcorrection" >
    <i type="logical" name="LDIPOL"> F  </i>
    <i type="logical" name="LMONO"> F  </i>
    <i type="int" name="IDIPOL">     0</i>
    <i name="EPSILON">      1.00000000</i>
    <v name="DIPOL">   -100.00000000   -100.00000000   -100.00000000</v>
    <i name="EFIELD">      0.00000000</i>
   </separator>
  </separator>
  <separator name="grids" >
   <i type="int" name="NGX">    36</i>
   <i type="int" name="NGY">    36</i>
   <i type="int" name="NGZ">    36</i>
   <i type="int" name="NGXF">    48</i>
   <i type="int" name="NGYF">    48</i>
   <i type="int" name="NGZF">    48</i>
   <i type="logical" name="ADDGRID"> T  </i>
  </separator>
  <separator name="ionic" >
   <i type="int" name="NSW">   100</i>
   <i type="int" name="IBRION">     2</i>
   <i type="int" name="MDALGO">     0</i>
   <i type="int" name="ISIF">     2</i>
   <i name="PSTRESS">      0.00000000</i>
   <i name="EDIFFG">     -0.01000000</i>
   <i type="int" name="NFREE">     1</i>
   <i name="POTIM">      0.50000000</i>
   <i name="SMASS">     -3.00000000</i>
   <i name="SCALEE">      1.00000000</i>
  </separator>
  <separator name="ionic md" >
   <i name="TEBEG">      0.00010000</i>
   <i name="TEEND">      0.00010000</i>
   <i type="int" name="NBLOCK">     1</i>
   <i type="int" name="KBLOCK">   100</i>
   <i type="int" name="NPACO">   256</i>
   <i name="APACO">     16.00000000</i>
  </separator>
  <separator name="symmetry" >
   <i type="int" name="ISYM">     2</i>
   <i name="SYMPREC">      0.00001000</i>
  </separator>
  <separator name="dos" >
   <i type="int" name="LORBIT">     0</i>
   <v name="RWIGS">     -1.00000000</v>
   <i type="int" name="NEDOS">   301</i>
   <i name="EMIN">     10.00000000</i>
   <i name="EMAX">    -10.00000000</i>
   <i name="EFERMI">      0.00000000</i>
  </separator>
  <separator name="writing" >
   <i type="int" name="NWRITE">     2</i>
   <i type="logical" name="LWAVE"> F  </i>
   <i type="logical" name="LDOWNSAMPLE"> F  </i>
   <i type="logical" name="LCHARG"> F  </i>
   <i type="logical" name="LPARD"> F  </i>
   <i type="logical" name="LVTOT"> F  </i>
   <i type="logical" name="LVHAR"> F  </i>
   <i type="logical" name="LELF"> F  </i>
   <i type="logical" name="LOPTICS"> F  </i>
   <v name="STM">      0.00000000      0.00000000      0.00000000      0.00000000      0.00000000      0.00000000      0.00000000</v>
  </separator>
  <separator name="performance" >
   <i type="int" name="NPAR">    24</i>
   <i type="int" name="NSIM">     4</i>
   <i type="int" name="NBLK">    -1</i>
   <i type="logical" name="LPLANE"> T  </i>
   <i type="logical" name="LSCALAPACK"> T  </i>
   <i type="logical" name="LSCAAWARE"> F  </i>
   <i type="logical" name="LSCALU"> F  </i>
   <i type="logical" name="LASYNC"> F  </i>
   <i type="logical" name="LORBITALREAL"> F  </i>
  </separator>
  <separator name="miscellaneous" >
   <i type="int" name="IDIOT">     3</i>
   <i type="int" name="ISPECIAL">     0</i>
   <i type="logical" name="LMUSIC"> F  </i>
   <v name="POMASS">     12.01100000</v>
   <v name="DARWINR">      0.00000000</v>
   <v name="DARWINV">      1.00000000</v>
   <i type="logical" name="LCORR"> T  </i>
  </separator>
  <i type="logical" name="GGA_COMPAT"> T  </i>
  <i type="logical" name="LBERRY"> F  </i>
  <i type="int" name="ICORELEVEL">     0</i>
  <i type="logical" name="LDAU"> F  </i>
  <i type="int" name="I_CONSTRAINED_M">     0</i>
  <separator name="electronic exchange-correlation" >
   <i type="string" name="GGA">--</i>
   <i type="int" name="VOSKOWN">     0</i>
   <i type="logical" name="LHFCALC"> F  </i>
   <i type="string" name="PRECFOCK"></i>
   <i type="logical" name="LSYMGRAD"> F  </i>
   <i type="logical" name="LHFONE"> F  </i>
   <i type="logical" name="LRHFCALC"> F  </i>
   <i type="logical" name="LTHOMAS"> F  </i>
   <i type="logical" name="LMODELHF"> F  </i>
   <i name="ENCUT4O">     -1.00000000</i>
   <i type="int" name="EXXOEP">     0</i>
   <i type="int" name="FOURORBIT">     0</i>
   <i name="AEXX">      0.00000000</i>
   <i name="HFALPHA">      0.00000000</i>
   <i name="MCALPHA">      0.00000000</i>
   <i name="ALDAX">      1.00000000</i>
   <i name="AGGAX">      1.00000000</i>
   <i name="ALDAC">      1.00000000</i>
   <i name="AGGAC">      1.00000000</i>
   <i type="int" name="NKREDX">     1</i>
   <i type="int" name="NKREDY">     1</i>
   <i type="int" name="NKREDZ">     1</i>
   <i type="logical" name="SHIFTRED"> F  </i>
   <i type="logical" name="ODDONLY"> F  </i>
   <i type="logical" name="EVENONLY"> F  </i>
   <i type="int" name="LMAXFOCK">     0</i>
   <i type="int" name="NMAXFOCKAE">     0</i>
   <i type="logical" name="LFOCKAEDFT"> F  </i>
   <i name="HFSCREEN">      0.00000000</i>
   <i name="HFSCREENC">      0.00000000</i>
   <i type="int" name="NBANDSGWLOW">     0</i>
  </separator>
  <separator name="vdW DFT" >
   <i type="logical" name="LUSE_VDW"> F  </i>
   <i name="Zab_VDW">     -0.84910000</i>
   <i name="PARAM1">      0.12340000</i>
   <i name="PARAM2">      1.00000000</i>
   <i name="PARAM3">      0.00000000</i>
  </separator>
  <separator name="model GW" >
   <i type="int" name="MODEL_GW">     0</i>
   <i name="MODEL_EPS0">      3.49159351</i>
   <i name="MODEL_ALPHA">      1.00000000</i>
  </separator>
  <separator name="linear response parameters" >
   <i type="logical" name="LEPSILON"> F  </i>
   <i type="logical" name="LRPA"> F  </i>
   <i type="logical" name="LNABLA"> F  </i>
   <i type="logical" name="LVEL"> F  </i>
   <i type="int" name="KINTER">     0</i>
   <i name="CSHIFT">      0.10000000</i>
   <i name="OMEGAMAX">     -1.00000000</i>
   <i name="DEG_THRESHOLD">      0.00200000</i>
   <i name="RTIME">     -0.10000000</i>
   <i name="WPLASMAI">      0.00000000</i>
   <v name="DFIELD">      0.00000000      0.00000000      0.00000000</v>
   <v name="WPLASMA">      0.00000000      0.00000000      0.00000000      0.00000000      0.00000000      0.00000000      0.00000000      0.00000000      0.00000000</v>
  </separator>
  <separator name="orbital magnetization" >
   <i type="logical" name="NUCIND"> F  </i>
   <v name="MAGPOS">      0.00000000      0.00000000      0.00000000</v>
   <i type="logical" name="LNICSALL"> T  </i>
   <i type="logical" name="ORBITALMAG"> F  </i>
   <i type="logical" name="LMAGBLOCH"> F  </i>
   <i type="logical" name="LCHIMAG"> F  </i>
   <i type="logical" name="LGAUGE"> T  </i>
   <i type="int" name="MAGATOM">     0</i>
   <v name="MAGDIPOL">      0.00000000      0.00000000      0.00000000</v>
   <v name="AVECCONST">      0.00000000      0.00000000      0.00000000</v>
  </separator>
  <separator name="response functions" >
   <i type="logical" name="LADDER"> F  </i>
   <i type="logical" name="LRPAFORCE"> F  </i>
   <i type="logical" name="LFXC"> F  </i>
   <i type="logical" name="LHARTREE"> T  </i>
   <i type="int" name="IBSE">     0</i>
   <v type="int" name="KPOINT">    -1     0     0     0</v>
   <i type="logical" name="LTCTE"> F  </i>
   <i type="logical" name="LTETE"> F  </i>
   <i type="logical" name="LTRIPLET"> F  </i>
   <i type="logical" name="LFXCEPS"> F  </i>
   <i type="logical" name="LFXHEG"> F  </i>
   <i type="int" name="NATURALO">     2</i>
   <i type="logical" name="L2ORDER"> F  </i>
   <i type="logical" name="LMP2LT"> F  </i>
   <i type="logical" name="LUSEW"> F  </i>
   <i name="ENCUTGW">     -2.00000000</i>
   <i name="ENCUTGWSOFT">     -2.00000000</i>
   <i name="ENCUTLF">     -1.00000000</i>
   <i type="int" name="LMAXMP2">    -1</i>
   <i name="SCISSOR">      0.00000000</i>
   <i type="int" name="NOMEGA">     0</i>
   <i type="int" name="NOMEGAR">     0</i>
   <i type="int" name="NBANDSGW">    -1</i>
   <i type="int" name="NBANDSO">    -1</i>
   <i type="int" name="NBANDSV">    -1</i>
   <i type="int" name="NELM">    40</i>
   <i type="int" name="NELMHF">     1</i>
   <i type="int" name="DIM">     3</i>
   <i type="int" name="ANTIRES">     0</i>
   <i name="OMEGAMAX">    -30.00000000</i>
   <i name="OMEGAMIN">    -30.00000000</i>
   <i name="OMEGATL">   -200.00000000</i>
   <i type="int" name="OMEGAGRID">   140</i>
   <i name="CSHIFT">     -0.10000000</i>
   <i type="logical" name="SELFENERGY"> F  </i>
   <i type="logical" name="LSPECTRAL"> F  </i>
   <i type="logical" name="LSPECTRALGW"> F  </i>
   <i type="logical" name="LSINGLES"> F  </i>
   <i type="logical" name="LFERMIGW"> F  </i>
   <i type="logical" name="ODDONLYGW"> F  </i>
   <i type="logical" name="EVENONLYGW"> F  </i>
   <i type="int" name="NKREDLFX">     1</i>
   <i type="int" name="NKREDLFY">     1</i>
   <i type="int" name="NKREDLFZ">     1</i>
   <i type="int" name="MAXMEM">  2800</i>
   <i type="int" name="TELESCOPE">     0</i>
   <i type="int" name="TAUPAR">     1</i>
   <i type="int" name="OMEGAPAR">    -1</i>
   <i name="LAMBDA">      1.00000000</i>
  </separator>
  <separator name="External order field" >
   <i name="OFIELD_KAPPA">      0.00000000</i>
   <v name="OFIELD_K">      0.00000000      0.00000000      0.00000000</v>
   <i name="OFIELD_Q6_NEAR">      0.00000000</i>
   <i name="OFIELD_Q6_FAR">      0.00000000</i>
   <i name="OFIELD_A">      0.00000000</i>
  </separator>
 </parameters>
 <atominfo>
  <atoms>       8 </atoms>
  <types>       1 </types>
  <array name="atoms" >
   <dimension dim="1">ion</dimension>
   <field type="string">element</field>
   <field type="int">atomtype</field>
   <set>
    <rc><c>C </c><c>   1</c></rc>
    <rc><c>C </c><c>   1</c></rc>
    <rc><c>C </c><c>   1</c></rc>
    <rc><c>C </c><c>   1</c></rc>
    <rc><c>C </c><c>   1</c></rc>
    <rc><c>C </c><c>   1</c></rc>
    <rc><c>C </c><c>   1</c></rc>
    <rc><c>C </c><c>   1</c></rc>
   </set>
  </array>
  <array name="atomtypes" >
   <dimension dim="1">type</dimension>
   <field type="int">atomspertype</field>
   <field type="string">element</field>
   <field>mass</field>
   <field>valence</field>
   <field type="string">pseudopotential</field>
   <set>
    <rc><c>   8</c><c>C </c><c>     12.01100000</c><c>      4.00000000</c><c>  PAW_PBE C_h 06Feb2004                 </c></rc>
   </set>
  </array>
 </atominfo>
 <structure name="initialpos" >
  <crystal>
   <varray name="basis" >
    <v>       3.60934112       0.00000000       0.00000000 </v>
    <v>       0.00000000       3.60934112       0.00000000 </v>
    <v>       0.00000000       0.00000000       3.57360507 </v>
   </varray>
   <i name="volume">     46.55458020 </i>
   <varray name="rec_basis" >
    <v>       0.27705888       0.00000000       0.00000000 </v>
    <v>       0.00000000       0.27705888       0.00000000 </v>
    <v>       0.00000000       0.00000000       0.27982947 </v>
   </varray>
  </crystal>
  <varray name="positions" >
   <v>       0.25000000       0.25000000       0.25000000 </v>
   <v>       0.00000000       0.00000000       0.00000000 </v>
   <v>       0.25000000       0.75000000       0.75000000 </v>
   <v>       0.00000000       0.50000000       0.50000000 </v>
   <v>       0.75000000       0.25000000       0.75000000 </v>
   <v>       0.50000000       0.00000000       0.50000000 </v>
   <v>       0.75000000       0.75000000       0.25000000 </v>
   <v>       0.50000000       0.50000000       0.00000000 </v>
  </varray>
 </structure>
 <calculation>
  <scstep>
   <time name="dav">    3.14    3.23</time>
   <time name="total">    3.17    3.30</time>
   <energy>
    <i name="alphaZ">     75.36374727 </i>
    <i name="ewald">  -1380.02153317 </i>
    <i name="hartreedc">    -72.23057924 </i>
    <i name="XCdc">     61.54680390 </i>
    <i name="pawpsdc">    914.77613359 </i>
    <i name="pawaedc">   -872.73161751 </i>
    <i name="eentropy">     -0.00132785 </i>
    <i name="bandstr">    196.23688835 </i>
    <i name="atom">   1177.21277265 </i>
    <i name="e_fr_energy">    100.15128799 </i>
    <i name="e_wo_entrp">    100.15261584 </i>
    <i name="e_0_energy">    100.15195191 </i>
   </energy>
  </scstep>
  <scstep>
   <time name="dav">    5.35    5.38</time>
   <time name="total">    5.35    5.38</time>
   <energy>
    <i name="e_fr_energy">    -72.28291253 </i>
    <i name="e_wo_entrp">    -72.28291253 </i>
    <i name="e_0_energy">    -72.28291253 </i>
   </energy>
  </scstep>
  <scstep>
   <time name="dav">    3.81    3.83</time>
   <time name="total">    3.81    3.83</time>
   <energy>
    <i name="e_fr_energy">    -75.08095726 </i>
    <i name="e_wo_entrp">    -75.08095726 </i>
    <i name="e_0_energy">    -75.08095726 </i>
   </energy>
  </scstep>
  <scstep>
   <time name="dav">    6.59    6.61</time>
   <time name="total">    6.59    6.61</time>
   <energy>
    <i name="e_fr_energy">    -75.09963083 </i>
    <i name="e_wo_entrp">    -75.09963083 </i>
    <i name="e_0_energy">    -75.09963083 </i>
   </energy>
  </scstep>
  <scstep>
   <time name="dav">    3.72    3.73</time>
   <time name="total">    3.88    3.93</time>
   <energy>
    <i name="e_fr_energy">    -75.09963403 </i>
    <i name="e_wo_entrp">    -75.09963403 </i>
    <i name="e_0_energy">    -75.09963403 </i>
   </energy>
  </scstep>
  <scstep>
   <time name="dav">    3.84    3.85</time>
   <time name="total">    4.01    4.04</time>
   <energy>
    <i name="e_fr_energy">    -73.38427970 </i>
    <i name="e_wo_entrp">    -73.38427970 </i>
    <i name="e_0_energy">    -73.38427970 </i>
   </energy>
  </scstep>
  <scstep>
   <time name="dav">    5.02    5.13</time>
   <time name="total">    5.19    5.31</time>
   <energy>
    <i name="e_fr_energy">    -72.81022414 </i>
    <i name="e_wo_entrp">    -72.81022414 </i>
    <i name="e_0_energy">    -72.81022414 </i>
   </energy>
  </scstep>
  <scstep>
   <time name="dav">    5.61    5.64</time>
   <time name="total">    5.78    5.82</time>
   <energy>
    <i name="e_fr_energy">    -72.80873866 </i>
    <i name="e_wo_entrp">    -72.80873866 </i>
    <i name="e_0_energy">    -72.80873866 </i>
   </energy>
  </scstep>
  <scstep>
   <time name="dav">    5.01    5.02</time>
   <time name="total">    5.17    5.19</time>
   <energy>
    <i name="e_fr_energy">    -72.80893439 </i>
    <i name="e_wo_entrp">    -72.80893439 </i>
    <i name="e_0_energy">    -72.80893439 </i>
   </energy>
  </scstep>
  <scstep>
   <time name="dav">    5.30    5.31</time>
   <time name="total">    5.47    5.48</time>
   <energy>
    <i name="e_fr_energy">    -72.80905819 </i>
    <i name="e_wo_entrp">    -72.80905819 </i>
    <i name="e_0_energy">    -72.80905819 </i>
   </energy>
  </scstep>
  <scstep>
   <time name="dav">    5.28    5.29</time>
   <time name="total">    5.44    5.46</time>
   <energy>
    <i name="e_fr_energy">    -72.80905930 </i>
    <i name="e_wo_entrp">    -72.80905930 </i>
    <i name="e_0_energy">    -72.80905930 </i>
   </energy>
  </scstep>
  <scstep>
   <time name="dav">    5.35    5.36</time>
   <time name="total">    5.51    5.53</time>
   <energy>
    <i name="e_fr_energy">    -72.80905967 </i>
    <i name="e_wo_entrp">    -72.80905967 </i>
    <i name="e_0_energy">    -72.80905967 </i>
   </energy>
  </scstep>
  <scstep>
   <time name="dav">    5.32    5.34</time>
   <time name="total">    5.34    5.36</time>
   <energy>
    <i name="alphaZ">     75.36374727 </i>
    <i name="ewald">  -1380.02153317 </i>
    <i name="hartreedc">   -106.69437711 </i>
    <i name="XCdc">     64.51111021 </i>
    <i name="pawpsdc">  13734.35702250 </i>
    <i name="pawaedc"> -13692.78503566 </i>
    <i name="eentropy">     -0.00000000 </i>
    <i name="bandstr">     55.24723363 </i>
    <i name="atom">   1177.21277265 </i>
    <i name="e_fr_energy">    -72.80905968 </i>
    <i name="e_wo_entrp">    -72.80905968 </i>
    <i name="e_0_energy">    -72.80905968 </i>
   </energy>
  </scstep>
  <structure>
   <crystal>
    <varray name="basis" >
     <v>       3.60934112       0.00000000       0.00000000 </v>
     <v>       0.00000000       3.60934112       0.00000000 </v>
     <v>       0.00000000       0.00000000       3.57360507 </v>
    </varray>
    <i name="volume">     46.55458020 </i>
    <varray name="rec_basis" >
     <v>       0.27705888       0.00000000       0.00000000 </v>
     <v>       0.00000000       0.27705888       0.00000000 </v>
     <v>       0.00000000       0.00000000       0.27982947 </v>
    </varray>
   </crystal>
   <varray name="positions" >
    <v>       0.25000000       0.25000000       0.25000000 </v>
    <v>       0.00000000       0.00000000       0.00000000 </v>
    <v>       0.25000000       0.75000000       0.75000000 </v>
    <v>       0.00000000       0.50000000       0.50000000 </v>
    <v>       0.75000000       0.25000000       0.75000000 </v>
    <v>       0.50000000       0.00000000       0.50000000 </v>
    <v>       0.75000000       0.75000000       0.25000000 </v>
    <v>       0.50000000       0.50000000       0.00000000 </v>
   </varray>
  </structure>
  <varray name="forces" >
   <v>      -0.00000000       0.00000000      -0.00000000 </v>
   <v>       0.00000000      -0.00000000       0.00000000 </v>
   <v>      -0.00000000       0.00000000       0.00000000 </v>
   <v>      -0.00000000      -0.00000000       0.00000000 </v>
   <v>       0.00000000       0.00000000      -0.00000000 </v>
   <v>       0.00000000      -0.00000000       0.00000000 </v>
   <v>      -0.00000000       0.00000000       0.00000000 </v>
   <v>       0.00000000       0.00000000      -0.00000000 </v>
  </varray>
  <varray name="stress" >
   <v>    -125.79429106       0.00000000       0.00000000 </v>
   <v>       0.00000000    -125.79429106       0.00000000 </v>
   <v>       0.00000000       0.00000000     -36.60238959 </v>
  </varray>
  <energy>
   <i name="e_fr_energy">    -72.80905968 </i>
   <i name="e_wo_entrp">    -72.80905968 </i>
   <i name="e_0_energy">     -0.00000000 </i>
  </energy>
  <time name="totalsc">   68.37   69.01</time>
  <eigenvalues>
   <array>
    <dimension dim="1">band</dimension>
    <dimension dim="2">kpoint</dimension>
    <dimension dim="3">spin</dimension>
    <field>eigene</field>
    <field>occ</field>
    <set>
     <set comment="spin 1">
      <set comment="kpoint 1">
       <r>  -10.5548    1.0000 </r>
       <r>   -2.6271    1.0000 </r>
       <r>   -2.6271    1.0000 </r>
       <r>   -2.4852    1.0000 </r>
       <r>   -1.5143    1.0000 </r>
       <r>   -1.5143    1.0000 </r>
       <r>   -1.3581    1.0000 </r>
       <r>    4.1974    1.0000 </r>
       <r>    4.3354    1.0000 </r>
       <r>    4.3375    1.0000 </r>
       <r>    4.3375    1.0000 </r>
       <r>    4.4789    1.0000 </r>
       <r>    4.4789    1.0000 </r>
       <r>   10.2755    1.0000 </r>
       <r>   10.4308    1.0000 </r>
       <r>   10.5462    1.0000 </r>
       <r>   15.0177    0.0000 </r>
       <r>   15.2498    0.0000 </r>
       <r>   15.2498    0.0000 </r>
       <r>   15.4028    0.0000 </r>
       <r>   15.6279    0.0000 </r>
       <r>   15.6279    0.0000 </r>
       <r>   16.0881    0.0000 </r>
       <r>   16.1946    0.0000 </r>
      </set>
      <set comment="kpoint 2">
       <r>  -10.4629    1.0000 </r>
       <r>   -3.6915    1.0000 </r>
       <r>   -2.5640    1.0000 </r>
       <r>   -2.4247    1.0000 </r>
       <r>   -1.4636    1.0000 </r>
       <r>   -1.3115    1.0000 </r>
       <r>   -0.3652    1.0000 </r>
       <r>    3.8859    1.0000 </r>
       <r>    4.0203    1.0000 </r>
       <r>    4.2747    1.0000 </r>
       <r>    4.4188    1.0000 </r>
       <r>    4.4297    1.0000 </r>
       <r>    4.5682    1.0000 </r>
       <r>    9.8403    1.0000 </r>
       <r>   10.1504    1.0000 </r>
       <r>   10.3493    1.0000 </r>
       <r>   15.0169    0.0000 </r>
       <r>   15.2998    0.0000 </r>
       <r>   15.5274    0.0000 </r>
       <r>   15.8515    0.0000 </r>
       <r>   16.0735    0.0000 </r>
       <r>   16.0788    0.0000 </r>
       <r>   16.1265    0.0000 </r>
       <r>   16.5133    0.0000 </r>
      </set>
      <set comment="kpoint 3">
       <r>  -10.2793    1.0000 </r>
       <r>   -4.6982    1.0000 </r>
       <r>   -2.4422    1.0000 </r>
       <r>   -2.3086    1.0000 </r>
       <r>   -1.3682    1.0000 </r>
       <r>   -1.2256    1.0000 </r>
       <r>    0.8063    1.0000 </r>
       <r>    3.4649    1.0000 </r>
       <r>    3.5899    1.0000 </r>
       <r>    4.0429    1.0000 </r>
       <r>    4.1843    1.0000 </r>
       <r>    4.6142    1.0000 </r>
       <r>    4.7463    1.0000 </r>
       <r>    9.2268    1.0000 </r>
       <r>    9.5769    1.0000 </r>
       <r>    9.9643    1.0000 </r>
       <r>   14.8688    0.0000 </r>
       <r>   15.8957    0.0000 </r>
       <r>   15.9940    0.0000 </r>
       <r>   16.1186    0.0000 </r>
       <r>   16.6272    0.0000 </r>
       <r>   16.6461    0.0000 </r>
       <r>   16.8551    0.0000 </r>
       <r>   17.2220    0.0000 </r>
      </set>
      <set comment="kpoint 4">
       <r>  -10.0046    1.0000 </r>
       <r>   -5.6393    1.0000 </r>
       <r>   -2.2715    1.0000 </r>
       <r>   -2.1482    1.0000 </r>
       <r>   -1.2421    1.0000 </r>
       <r>   -1.1163    1.0000 </r>
       <r>    1.9828    1.0000 </r>
       <r>    3.0121    1.0000 </r>
       <r>    3.1215    1.0000 </r>
       <r>    3.7062    1.0000 </r>
       <r>    3.8390    1.0000 </r>
       <r>    4.8912    1.0000 </r>
       <r>    5.0116    1.0000 </r>
       <r>    8.5235    1.0000 </r>
       <r>    8.8982    1.0000 </r>
       <r>    9.3855    1.0000 </r>
       <r>   14.8035    0.0000 </r>
       <r>   15.8135    0.0000 </r>
       <r>   16.7636    0.0000 </r>
       <r>   16.9821    0.0000 </r>
       <r>   17.3451    0.0000 </r>
       <r>   17.6328    0.0000 </r>
       <r>   17.8593    0.0000 </r>
       <r>   18.1079    0.0000 </r>
      </set>
      <set comment="kpoint 5">
       <r>   -9.6394    1.0000 </r>
       <r>   -6.5088    1.0000 </r>
       <r>   -2.0703    1.0000 </r>
       <r>   -1.9649    1.0000 </r>
       <r>   -1.1083    1.0000 </r>
       <r>   -1.0091    1.0000 </r>
       <r>    2.6023    1.0000 </r>
       <r>    2.6877    1.0000 </r>
       <r>    3.1436    1.0000 </r>
       <r>    3.3451    1.0000 </r>
       <r>    3.4599    1.0000 </r>
       <r>    5.2622    1.0000 </r>
       <r>    5.3623    1.0000 </r>
       <r>    7.7845    1.0000 </r>
       <r>    8.1952    1.0000 </r>
       <r>    8.6647    1.0000 </r>
       <r>   14.8130    0.0000 </r>
       <r>   15.6058    0.0000 </r>
       <r>   17.8326    0.0000 </r>
       <r>   18.0457    0.0000 </r>
       <r>   18.1717    0.0000 </r>
       <r>   18.7899    0.0000 </r>
       <r>   19.0120    0.0000 </r>
       <r>   19.0928    0.0000 </r>
      </set>
      <set comment="kpoint 6">
       <r>   -9.1848    1.0000 </r>
       <r>   -7.3016    1.0000 </r>
       <r>   -1.8715    1.0000 </r>
       <r>   -1.7963    1.0000 </r>
       <r>   -0.9969    1.0000 </r>
       <r>   -0.9348    1.0000 </r>
       <r>    2.3013    1.0000 </r>
       <r>    2.3542    1.0000 </r>
       <r>    3.0419    1.0000 </r>
       <r>    3.1239    1.0000 </r>
       <r>    4.2620    1.0000 </r>
       <r>    5.7312    1.0000 </r>
       <r>    5.7972    1.0000 </r>
       <r>    7.0261    1.0000 </r>
       <r>    7.5117    1.0000 </r>
       <r>    7.8594    1.0000 </r>
       <r>   14.8879    0.0000 </r>
       <r>   15.3920    0.0000 </r>
       <r>   19.0238    0.0000 </r>
       <r>   19.1191    0.0000 </r>
       <r>   19.2269    0.0000 </r>
       <r>   20.0134    0.0000 </r>
       <r>   20.1292    0.0000 </r>
       <r>   20.2763    0.0000 </r>
      </set>
      <set comment="kpoint 7">
       <r>   -8.6424    1.0000 </r>
       <r>   -8.0138    1.0000 </r>
       <r>   -1.7284    1.0000 </r>
       <r>   -1.7001    1.0000 </r>
       <r>   -0.9310    1.0000 </r>
       <r>   -0.9105    1.0000 </r>
       <r>    2.1524    1.0000 </r>
       <r>    2.1697    1.0000 </r>
       <r>    2.8779    1.0000 </r>
       <r>    2.9085    1.0000 </r>
       <r>    5.3007    1.0000 </r>
       <r>    6.2187    1.0000 </r>
       <r>    6.2847    1.0000 </r>
       <r>    6.3398    1.0000 </r>
       <r>    6.8720    1.0000 </r>
       <r>    7.0498    1.0000 </r>
       <r>   15.0178    0.0000 </r>
       <r>   15.1905    0.0000 </r>
       <r>   20.1636    0.0000 </r>
       <r>   20.2059    0.0000 </r>
       <r>   20.3620    0.0000 </r>
       <r>   21.0492    0.0000 </r>
       <r>   21.1419    0.0000 </r>
       <r>   21.1769    0.0000 </r>
      </set>
      <set comment="kpoint 8">
       <r>  -10.3711    1.0000 </r>
       <r>   -3.6197    1.0000 </r>
       <r>   -3.6197    1.0000 </r>
       <r>   -2.3713    1.0000 </r>
       <r>   -1.2689    1.0000 </r>
       <r>   -0.3346    1.0000 </r>
       <r>   -0.3346    1.0000 </r>
       <r>    3.3872    1.0000 </r>
       <r>    4.1206    1.0000 </r>
       <r>    4.1206    1.0000 </r>
       <r>    4.4879    1.0000 </r>
       <r>    4.5115    1.0000 </r>
       <r>    4.5115    1.0000 </r>
       <r>    9.2944    1.0000 </r>
       <r>    9.9204    1.0000 </r>
       <r>   10.3172    1.0000 </r>
       <r>   15.2621    0.0000 </r>
       <r>   15.3532    0.0000 </r>
       <r>   15.3532    0.0000 </r>
       <r>   16.3735    0.0000 </r>
       <r>   16.4621    0.0000 </r>
       <r>   16.4621    0.0000 </r>
       <r>   16.5413    0.0000 </r>
       <r>   16.7315    0.0000 </r>
      </set>
      <set comment="kpoint 9">
       <r>  -10.1877    1.0000 </r>
       <r>   -4.6206    1.0000 </r>
       <r>   -3.4788    1.0000 </r>
       <r>   -2.2732    1.0000 </r>
       <r>   -1.1903    1.0000 </r>
       <r>   -0.2841    1.0000 </r>
       <r>    0.8047    1.0000 </r>
       <r>    2.8573    1.0000 </r>
       <r>    3.6997    1.0000 </r>
       <r>    4.2927    1.0000 </r>
       <r>    4.3228    1.0000 </r>
       <r>    4.5030    1.0000 </r>
       <r>    4.6978    1.0000 </r>
       <r>    8.6247    1.0000 </r>
       <r>    9.3676    1.0000 </r>
       <r>   10.1019    1.0000 </r>
       <r>   15.2257    0.0000 </r>
       <r>   15.5687    0.0000 </r>
       <r>   15.9979    0.0000 </r>
       <r>   16.3378    0.0000 </r>
       <r>   17.0069    0.0000 </r>
       <r>   17.1772    0.0000 </r>
       <r>   17.3585    0.0000 </r>
       <r>   17.4067    0.0000 </r>
      </set>
      <set comment="kpoint 10">
       <r>   -9.9133    1.0000 </r>
       <r>   -5.5576    1.0000 </r>
       <r>   -3.2746    1.0000 </r>
       <r>   -2.1531    1.0000 </r>
       <r>   -1.0874    1.0000 </r>
       <r>   -0.2366    1.0000 </r>
       <r>    1.9283    1.0000 </r>
       <r>    2.3767    1.0000 </r>
       <r>    3.2378    1.0000 </r>
       <r>    3.9841    1.0000 </r>
       <r>    4.3477    1.0000 </r>
       <r>    4.6293    1.0000 </r>
       <r>    4.9814    1.0000 </r>
       <r>    7.8967    1.0000 </r>
       <r>    8.7038    1.0000 </r>
       <r>    9.6456    1.0000 </r>
       <r>   15.1713    0.0000 </r>
       <r>   16.1764    0.0000 </r>
       <r>   16.2102    0.0000 </r>
       <r>   16.8975    0.0000 </r>
       <r>   17.6843    0.0000 </r>
       <r>   18.1266    0.0000 </r>
       <r>   18.1324    0.0000 </r>
       <r>   18.2808    0.0000 </r>
      </set>
      <set comment="kpoint 11">
       <r>   -9.5486    1.0000 </r>
       <r>   -6.4242    1.0000 </r>
       <r>   -3.0180    1.0000 </r>
       <r>   -2.0570    1.0000 </r>
       <r>   -0.9679    1.0000 </r>
       <r>   -0.2270    1.0000 </r>
       <r>    2.0237    1.0000 </r>
       <r>    2.7950    1.0000 </r>
       <r>    3.0017    1.0000 </r>
       <r>    3.6780    1.0000 </r>
       <r>    4.0871    1.0000 </r>
       <r>    5.0395    1.0000 </r>
       <r>    5.3748    1.0000 </r>
       <r>    7.1497    1.0000 </r>
       <r>    8.0101    1.0000 </r>
       <r>    9.0035    1.0000 </r>
       <r>   15.1872    0.0000 </r>
       <r>   15.9773    0.0000 </r>
       <r>   17.1197    0.0000 </r>
       <r>   17.9854    0.0000 </r>
       <r>   18.4902    0.0000 </r>
       <r>   18.9975    0.0000 </r>
       <r>   19.2355    0.0000 </r>
       <r>   19.2900    0.0000 </r>
      </set>
      <set comment="kpoint 12">
       <r>   -9.0946    1.0000 </r>
       <r>   -7.2149    1.0000 </r>
       <r>   -2.7275    1.0000 </r>
       <r>   -2.0543    1.0000 </r>
       <r>   -0.8204    1.0000 </r>
       <r>   -0.2914    1.0000 </r>
       <r>    1.8594    1.0000 </r>
       <r>    2.4081    1.0000 </r>
       <r>    3.4701    1.0000 </r>
       <r>    3.7977    1.0000 </r>
       <r>    3.9851    1.0000 </r>
       <r>    5.5363    1.0000 </r>
       <r>    5.9088    1.0000 </r>
       <r>    6.4013    1.0000 </r>
       <r>    7.3299    1.0000 </r>
       <r>    8.2378    1.0000 </r>
       <r>   15.2658    0.0000 </r>
       <r>   15.7682    0.0000 </r>
       <r>   18.2129    0.0000 </r>
       <r>   19.1852    0.0000 </r>
       <r>   19.4161    0.0000 </r>
       <r>   19.9413    0.0000 </r>
       <r>   20.3347    0.0000 </r>
       <r>   20.3555    0.0000 </r>
      </set>
      <set comment="kpoint 13">
       <r>   -8.5530    1.0000 </r>
       <r>   -7.9256    1.0000 </r>
       <r>   -2.4346    1.0000 </r>
       <r>   -2.1896    1.0000 </r>
       <r>   -0.6337    1.0000 </r>
       <r>   -0.4387    1.0000 </r>
       <r>    1.8972    1.0000 </r>
       <r>    2.0978    1.0000 </r>
       <r>    3.4283    1.0000 </r>
       <r>    3.5546    1.0000 </r>
       <r>    4.8581    1.0000 </r>
       <r>    5.6474    1.0000 </r>
       <r>    6.0883    1.0000 </r>
       <r>    6.6055    1.0000 </r>
       <r>    6.6861    1.0000 </r>
       <r>    7.4124    1.0000 </r>
       <r>   15.3971    0.0000 </r>
       <r>   15.5692    0.0000 </r>
       <r>   19.3844    0.0000 </r>
       <r>   20.1910    0.0000 </r>
       <r>   20.4371    0.0000 </r>
       <r>   20.7999    0.0000 </r>
       <r>   20.9207    0.0000 </r>
       <r>   21.4264    0.0000 </r>
      </set>
      <set comment="kpoint 14">
       <r>  -10.0048    1.0000 </r>
       <r>   -4.4670    1.0000 </r>
       <r>   -4.4670    1.0000 </r>
       <r>   -2.2220    1.0000 </r>
       <r>   -1.1227    1.0000 </r>
       <r>    0.7850    1.0000 </r>
       <r>    0.7850    1.0000 </r>
       <r>    2.2973    1.0000 </r>
       <r>    3.9188    1.0000 </r>
       <r>    3.9188    1.0000 </r>
       <r>    4.5182    1.0000 </r>
       <r>    4.5182    1.0000 </r>
       <r>    4.7881    1.0000 </r>
       <r>    7.9262    1.0000 </r>
       <r>    8.8496    1.0000 </r>
       <r>   10.0805    1.0000 </r>
       <r>   15.5733    0.0000 </r>
       <r>   15.8980    0.0000 </r>
       <r>   15.8980    0.0000 </r>
       <r>   16.7306    0.0000 </r>
       <r>   17.5821    0.0000 </r>
       <r>   17.6792    0.0000 </r>
       <r>   17.6792    0.0000 </r>
       <r>   17.7096    0.0000 </r>
      </set>
      <set comment="kpoint 15">
       <r>   -9.7310    1.0000 </r>
       <r>   -5.3955    1.0000 </r>
       <r>   -4.2415    1.0000 </r>
       <r>   -2.2027    1.0000 </r>
       <r>   -1.0201    1.0000 </r>
       <r>    0.7157    1.0000 </r>
       <r>    1.7999    1.0000 </r>
       <r>    1.8684    1.0000 </r>
       <r>    3.4619    1.0000 </r>
       <r>    4.2417    1.0000 </r>
       <r>    4.2954    1.0000 </r>
       <r>    4.8750    1.0000 </r>
       <r>    4.8819    1.0000 </r>
       <r>    7.1895    1.0000 </r>
       <r>    8.2122    1.0000 </r>
       <r>    9.7982    1.0000 </r>
       <r>   15.8582    0.0000 </r>
       <r>   15.9399    0.0000 </r>
       <r>   16.7631    0.0000 </r>
       <r>   16.8213    0.0000 </r>
       <r>   18.2125    0.0000 </r>
       <r>   18.2928    0.0000 </r>
       <r>   18.3190    0.0000 </r>
       <r>   18.5841    0.0000 </r>
      </set>
      <set comment="kpoint 16">
       <r>   -9.3672    1.0000 </r>
       <r>   -6.2559    1.0000 </r>
       <r>   -3.9507    1.0000 </r>
       <r>   -2.2853    1.0000 </r>
       <r>   -0.8617    1.0000 </r>
       <r>    0.5635    1.0000 </r>
       <r>    1.6403    1.0000 </r>
       <r>    2.7224    1.0000 </r>
       <r>    2.9949    1.0000 </r>
       <r>    4.1304    1.0000 </r>
       <r>    4.6512    1.0000 </r>
       <r>    4.7921    1.0000 </r>
       <r>    5.4137    1.0000 </r>
       <r>    6.4467    1.0000 </r>
       <r>    7.5383    1.0000 </r>
       <r>    9.2824    1.0000 </r>
       <r>   15.8815    0.0000 </r>
       <r>   16.6217    0.0000 </r>
       <r>   16.6322    0.0000 </r>
       <r>   17.9264    0.0000 </r>
       <r>   18.8680    0.0000 </r>
       <r>   19.0865    0.0000 </r>
       <r>   19.2621    0.0000 </r>
       <r>   19.6129    0.0000 </r>
      </set>
      <set comment="kpoint 17">
       <r>   -8.9146    1.0000 </r>
       <r>   -7.0422    1.0000 </r>
       <r>   -3.6060    1.0000 </r>
       <r>   -2.5099    1.0000 </r>
       <r>   -0.6267    1.0000 </r>
       <r>    0.3175    1.0000 </r>
       <r>    1.6357    1.0000 </r>
       <r>    2.5451    1.0000 </r>
       <r>    3.5402    1.0000 </r>
       <r>    4.0927    1.0000 </r>
       <r>    4.6029    1.0000 </r>
       <r>    5.1261    1.0000 </r>
       <r>    5.7151    1.0000 </r>
       <r>    6.1169    1.0000 </r>
       <r>    6.8730    1.0000 </r>
       <r>    8.5907    1.0000 </r>
       <r>   15.9620    0.0000 </r>
       <r>   16.4388    0.0000 </r>
       <r>   17.5750    0.0000 </r>
       <r>   19.1379    0.0000 </r>
       <r>   19.6332    0.0000 </r>
       <r>   19.9706    0.0000 </r>
       <r>   20.3248    0.0000 </r>
       <r>   20.4248    0.0000 </r>
      </set>
      <set comment="kpoint 18">
       <r>   -8.3747    1.0000 </r>
       <r>   -7.7497    1.0000 </r>
       <r>   -3.2265    1.0000 </r>
       <r>   -2.8443    1.0000 </r>
       <r>   -0.3256    1.0000 </r>
       <r>    0.0050    1.0000 </r>
       <r>    1.8212    1.0000 </r>
       <r>    2.1411    1.0000 </r>
       <r>    4.1891    1.0000 </r>
       <r>    4.2834    1.0000 </r>
       <r>    4.3792    1.0000 </r>
       <r>    4.9979    1.0000 </r>
       <r>    5.6571    1.0000 </r>
       <r>    6.2414    1.0000 </r>
       <r>    6.9358    1.0000 </r>
       <r>    7.7862    1.0000 </r>
       <r>   16.0903    0.0000 </r>
       <r>   16.2544    0.0000 </r>
       <r>   18.6721    0.0000 </r>
       <r>   19.7369    0.0000 </r>
       <r>   20.4697    0.0000 </r>
       <r>   20.5601    0.0000 </r>
       <r>   20.9408    0.0000 </r>
       <r>   21.3622    0.0000 </r>
      </set>
      <set comment="kpoint 19">
       <r>   -9.4583    1.0000 </r>
       <r>   -5.1554    1.0000 </r>
       <r>   -5.1554    1.0000 </r>
       <r>   -2.3635    1.0000 </r>
       <r>   -0.8888    1.0000 </r>
       <r>    1.5643    1.0000 </r>
       <r>    1.5740    1.0000 </r>
       <r>    1.5740    1.0000 </r>
       <r>    3.7754    1.0000 </r>
       <r>    3.7754    1.0000 </r>
       <r>    4.8019    1.0000 </r>
       <r>    4.8019    1.0000 </r>
       <r>    5.2251    1.0000 </r>
       <r>    6.4560    1.0000 </r>
       <r>    7.5992    1.0000 </r>
       <r>    9.7092    1.0000 </r>
       <r>   16.0119    0.0000 </r>
       <r>   16.7928    0.0000 </r>
       <r>   16.7928    0.0000 </r>
       <r>   17.2634    0.0000 </r>
       <r>   18.4232    0.0000 </r>
       <r>   18.5550    0.0000 </r>
       <r>   19.1705    0.0000 </r>
       <r>   19.1705    0.0000 </r>
      </set>
      <set comment="kpoint 20">
       <r>   -9.0960    1.0000 </r>
       <r>   -6.0058    1.0000 </r>
       <r>   -4.8420    1.0000 </r>
       <r>   -2.6713    1.0000 </r>
       <r>   -0.6699    1.0000 </r>
       <r>    1.2479    1.0000 </r>
       <r>    1.4939    1.0000 </r>
       <r>    2.3280    1.0000 </r>
       <r>    3.2733    1.0000 </r>
       <r>    4.1602    1.0000 </r>
       <r>    4.8042    1.0000 </r>
       <r>    5.3768    1.0000 </r>
       <r>    5.5007    1.0000 </r>
       <r>    5.7248    1.0000 </r>
       <r>    6.9461    1.0000 </r>
       <r>    9.3627    1.0000 </r>
       <r>   16.4348    0.0000 </r>
       <r>   16.8183    0.0000 </r>
       <r>   17.3766    0.0000 </r>
       <r>   17.9029    0.0000 </r>
       <r>   18.7859    0.0000 </r>
       <r>   19.3024    0.0000 </r>
       <r>   19.8725    0.0000 </r>
       <r>   20.0793    0.0000 </r>
      </set>
      <set comment="kpoint 21">
       <r>   -8.6454    1.0000 </r>
       <r>   -6.7849    1.0000 </r>
       <r>   -4.4626    1.0000 </r>
       <r>   -3.0916    1.0000 </r>
       <r>   -0.3647    1.0000 </r>
       <r>    0.8501    1.0000 </r>
       <r>    1.6284    1.0000 </r>
       <r>    2.7734    1.0000 </r>
       <r>    3.0095    1.0000 </r>
       <r>    4.6083    1.0000 </r>
       <r>    4.8989    1.0000 </r>
       <r>    5.0126    1.0000 </r>
       <r>    5.3583    1.0000 </r>
       <r>    6.2987    1.0000 </r>
       <r>    6.3320    1.0000 </r>
       <r>    8.7922    1.0000 </r>
       <r>   16.8930    0.0000 </r>
       <r>   17.1653    0.0000 </r>
       <r>   17.2864    0.0000 </r>
       <r>   19.1103    0.0000 </r>
       <r>   19.2908    0.0000 </r>
       <r>   20.2286    0.0000 </r>
       <r>   20.3127    0.0000 </r>
       <r>   20.6354    0.0000 </r>
      </set>
      <set comment="kpoint 22">
       <r>   -8.1084    1.0000 </r>
       <r>   -7.4871    1.0000 </r>
       <r>   -4.0291    1.0000 </r>
       <r>   -3.5612    1.0000 </r>
       <r>    0.0082    1.0000 </r>
       <r>    0.4236    1.0000 </r>
       <r>    1.9159    1.0000 </r>
       <r>    2.3099    1.0000 </r>
       <r>    3.6645    1.0000 </r>
       <r>    4.3267    1.0000 </r>
       <r>    5.0568    1.0000 </r>
       <r>    5.1175    1.0000 </r>
       <r>    5.2297    1.0000 </r>
       <r>    5.6839    1.0000 </r>
       <r>    7.2098    1.0000 </r>
       <r>    8.0533    1.0000 </r>
       <r>   17.0072    0.0000 </r>
       <r>   17.1462    0.0000 </r>
       <r>   18.1215    0.0000 </r>
       <r>   19.1846    0.0000 </r>
       <r>   19.9067    0.0000 </r>
       <r>   20.4582    0.0000 </r>
       <r>   20.5794    0.0000 </r>
       <r>   21.4038    0.0000 </r>
      </set>
      <set comment="kpoint 23">
       <r>   -8.7358    1.0000 </r>
       <r>   -5.6770    1.0000 </r>
       <r>   -5.6770    1.0000 </r>
       <r>   -3.1742    1.0000 </r>
       <r>   -0.3912    1.0000 </r>
       <r>    1.5611    1.0000 </r>
       <r>    1.8582    1.0000 </r>
       <r>    1.8582    1.0000 </r>
       <r>    3.6244    1.0000 </r>
       <r>    3.6244    1.0000 </r>
       <r>    5.0096    1.0000 </r>
       <r>    5.6334    1.0000 </r>
       <r>    5.6334    1.0000 </r>
       <r>    5.7818    1.0000 </r>
       <r>    6.3116    1.0000 </r>
       <r>    9.2026    1.0000 </r>
       <r>   16.5684    0.0000 </r>
       <r>   17.9218    0.0000 </r>
       <r>   17.9218    0.0000 </r>
       <r>   17.9662    0.0000 </r>
       <r>   18.8178    0.0000 </r>
       <r>   19.6202    0.0000 </r>
       <r>   20.4624    0.0000 </r>
       <r>   20.4624    0.0000 </r>
      </set>
      <set comment="kpoint 24">
       <r>   -8.2883    1.0000 </r>
       <r>   -6.4453    1.0000 </r>
       <r>   -5.2744    1.0000 </r>
       <r>   -3.7292    1.0000 </r>
       <r>   -0.0352    1.0000 </r>
       <r>    1.3555    1.0000 </r>
       <r>    1.7928    1.0000 </r>
       <r>    2.4422    1.0000 </r>
       <r>    3.0886    1.0000 </r>
       <r>    4.0459    1.0000 </r>
       <r>    4.3179    1.0000 </r>
       <r>    5.6812    1.0000 </r>
       <r>    5.7901    1.0000 </r>
       <r>    5.9875    1.0000 </r>
       <r>    6.5274    1.0000 </r>
       <r>    8.7980    1.0000 </r>
       <r>   17.0334    0.0000 </r>
       <r>   17.9785    0.0000 </r>
       <r>   18.1632    0.0000 </r>
       <r>   18.9978    0.0000 </r>
       <r>   19.1066    0.0000 </r>
       <r>   19.7911    0.0000 </r>
       <r>   20.2650    0.0000 </r>
       <r>   20.3984    0.0000 </r>
      </set>
      <set comment="kpoint 25">
       <r>   -7.7554    1.0000 </r>
       <r>   -7.1398    1.0000 </r>
       <r>   -4.8061    1.0000 </r>
       <r>   -4.2842    1.0000 </r>
       <r>    0.3854    1.0000 </r>
       <r>    0.8556    1.0000 </r>
       <r>    2.1454    1.0000 </r>
       <r>    2.5863    1.0000 </r>
       <r>    3.0361    1.0000 </r>
       <r>    3.6591    1.0000 </r>
       <r>    4.5343    1.0000 </r>
       <r>    5.0829    1.0000 </r>
       <r>    5.9354    1.0000 </r>
       <r>    6.0204    1.0000 </r>
       <r>    7.4010    1.0000 </r>
       <r>    8.1796    1.0000 </r>
       <r>   17.7804    0.0000 </r>
       <r>   18.0599    0.0000 </r>
       <r>   18.1410    0.0000 </r>
       <r>   18.7204    0.0000 </r>
       <r>   19.3260    0.0000 </r>
       <r>   19.7737    0.0000 </r>
       <r>   20.3960    0.0000 </r>
       <r>   21.4301    0.0000 </r>
      </set>
      <set comment="kpoint 26">
       <r>   -7.8450    1.0000 </r>
       <r>   -6.0269    1.0000 </r>
       <r>   -6.0269    1.0000 </r>
       <r>   -4.3694    1.0000 </r>
       <r>    0.3599    1.0000 </r>
       <r>    1.8722    1.0000 </r>
       <r>    1.8722    1.0000 </r>
       <r>    2.0873    1.0000 </r>
       <r>    3.4841    1.0000 </r>
       <r>    3.4841    1.0000 </r>
       <r>    3.6477    1.0000 </r>
       <r>    5.0667    1.0000 </r>
       <r>    6.4334    1.0000 </r>
       <r>    6.6767    1.0000 </r>
       <r>    6.6767    1.0000 </r>
       <r>    8.5796    1.0000 </r>
       <r>   17.2113    0.0000 </r>
       <r>   18.8248    0.0000 </r>
       <r>   18.8286    0.0000 </r>
       <r>   19.1072    0.0000 </r>
       <r>   19.1072    0.0000 </r>
       <r>   19.3667    0.0000 </r>
       <r>   19.3667    0.0000 </r>
       <r>   20.7748    0.0000 </r>
      </set>
      <set comment="kpoint 27">
       <r>   -7.3178    1.0000 </r>
       <r>   -6.7103    1.0000 </r>
       <r>   -5.5352    1.0000 </r>
       <r>   -4.9784    1.0000 </r>
       <r>    0.8158    1.0000 </r>
       <r>    1.3241    1.0000 </r>
       <r>    2.4221    1.0000 </r>
       <r>    2.4823    1.0000 </r>
       <r>    2.9548    1.0000 </r>
       <r>    3.0138    1.0000 </r>
       <r>    3.9524    1.0000 </r>
       <r>    4.4842    1.0000 </r>
       <r>    6.6774    1.0000 </r>
       <r>    6.7428    1.0000 </r>
       <r>    7.4797    1.0000 </r>
       <r>    8.1314    1.0000 </r>
       <r>   17.6920    0.0000 </r>
       <r>   18.4209    0.0000 </r>
       <r>   18.8161    0.0000 </r>
       <r>   18.9716    0.0000 </r>
       <r>   19.1108    0.0000 </r>
       <r>   19.1827    0.0000 </r>
       <r>   20.3292    0.0000 </r>
       <r>   21.3808    0.0000 </r>
      </set>
      <set comment="kpoint 28">
       <r>   -6.7988    1.0000 </r>
       <r>   -6.2025    1.0000 </r>
       <r>   -6.2025    1.0000 </r>
       <r>   -5.6223    1.0000 </r>
       <r>    1.3017    1.0000 </r>
       <r>    1.8398    1.0000 </r>
       <r>    1.8398    1.0000 </r>
       <r>    2.4044    1.0000 </r>
       <r>    2.9069    1.0000 </r>
       <r>    3.4027    1.0000 </r>
       <r>    3.4027    1.0000 </r>
       <r>    3.9174    1.0000 </r>
       <r>    7.1462    1.0000 </r>
       <r>    7.4078    1.0000 </r>
       <r>    7.4078    1.0000 </r>
       <r>    7.8781    1.0000 </r>
       <r>   17.8800    0.0000 </r>
       <r>   18.3306    0.0000 </r>
       <r>   18.3306    0.0000 </r>
       <r>   18.4685    0.0000 </r>
       <r>   19.8345    0.0000 </r>
       <r>   20.1916    0.0000 </r>
       <r>   20.1916    0.0000 </r>
       <r>   20.9586    0.0000 </r>
      </set>
      <set comment="kpoint 29">
       <r>  -10.4610    1.0000 </r>
       <r>   -3.5652    1.0000 </r>
       <r>   -2.5633    1.0000 </r>
       <r>   -2.5633    1.0000 </r>
       <r>   -1.4633    1.0000 </r>
       <r>   -1.4633    1.0000 </r>
       <r>   -0.1968    1.0000 </r>
       <r>    4.0131    1.0000 </r>
       <r>    4.0131    1.0000 </r>
       <r>    4.2919    1.0000 </r>
       <r>    4.4113    1.0000 </r>
       <r>    4.4113    1.0000 </r>
       <r>    4.4262    1.0000 </r>
       <r>    9.8372    1.0000 </r>
       <r>   10.0789    1.0000 </r>
       <r>   10.4254    1.0000 </r>
       <r>   14.7800    0.0000 </r>
       <r>   15.5382    0.0000 </r>
       <r>   15.5382    0.0000 </r>
       <r>   15.8623    0.0000 </r>
       <r>   16.0031    0.0000 </r>
       <r>   16.0890    0.0000 </r>
       <r>   16.0890    0.0000 </r>
       <r>   16.6212    0.0000 </r>
      </set>
      <set comment="kpoint 30">
       <r>  -10.3692    1.0000 </r>
       <r>   -3.6186    1.0000 </r>
       <r>   -3.4950    1.0000 </r>
       <r>   -2.5064    1.0000 </r>
       <r>   -1.4160    1.0000 </r>
       <r>   -0.3353    1.0000 </r>
       <r>   -0.1738    1.0000 </r>
       <r>    3.5026    1.0000 </r>
       <r>    3.9891    1.0000 </r>
       <r>    4.1124    1.0000 </r>
       <r>    4.3706    1.0000 </r>
       <r>    4.5056    1.0000 </r>
       <r>    4.6321    1.0000 </r>
       <r>    9.3073    1.0000 </r>
       <r>    9.8244    1.0000 </r>
       <r>   10.4023    1.0000 </r>
       <r>   15.1197    0.0000 </r>
       <r>   15.3637    0.0000 </r>
       <r>   15.4915    0.0000 </r>
       <r>   16.2493    0.0000 </r>
       <r>   16.3024    0.0000 </r>
       <r>   16.4722    0.0000 </r>
       <r>   16.6708    0.0000 </r>
       <r>   16.7838    0.0000 </r>
      </set>
      <set comment="kpoint 31">
       <r>  -10.1859    1.0000 </r>
       <r>   -4.6192    1.0000 </r>
       <r>   -3.3574    1.0000 </r>
       <r>   -2.4003    1.0000 </r>
       <r>   -1.3274    1.0000 </r>
       <r>   -0.1403    1.0000 </r>
       <r>    0.8027    1.0000 </r>
       <r>    2.9549    1.0000 </r>
       <r>    3.5779    1.0000 </r>
       <r>    4.1597    1.0000 </r>
       <r>    4.3119    1.0000 </r>
       <r>    4.6520    1.0000 </r>
       <r>    4.6962    1.0000 </r>
       <r>    8.6379    1.0000 </r>
       <r>    9.2853    1.0000 </r>
       <r>   10.1721    1.0000 </r>
       <r>   15.2358    0.0000 </r>
       <r>   15.7696    0.0000 </r>
       <r>   15.7895    0.0000 </r>
       <r>   16.3310    0.0000 </r>
       <r>   16.9631    0.0000 </r>
       <r>   17.0166    0.0000 </r>
       <r>   17.2179    0.0000 </r>
       <r>   17.5442    0.0000 </r>
      </set>
      <set comment="kpoint 32">
       <r>   -9.9114    1.0000 </r>
       <r>   -5.5561    1.0000 </r>
       <r>   -3.1591    1.0000 </r>
       <r>   -2.2643    1.0000 </r>
       <r>   -1.2085    1.0000 </r>
       <r>   -0.1222    1.0000 </r>
       <r>    1.9242    1.0000 </r>
       <r>    2.4477    1.0000 </r>
       <r>    3.1287    1.0000 </r>
       <r>    3.8713    1.0000 </r>
       <r>    4.4971    1.0000 </r>
       <r>    4.6122    1.0000 </r>
       <r>    4.9886    1.0000 </r>
       <r>    7.9064    1.0000 </r>
       <r>    8.6311    1.0000 </r>
       <r>    9.7071    1.0000 </r>
       <r>   15.1809    0.0000 </r>
       <r>   16.1764    0.0000 </r>
       <r>   16.4229    0.0000 </r>
       <r>   16.6745    0.0000 </r>
       <r>   17.6934    0.0000 </r>
       <r>   17.9187    0.0000 </r>
       <r>   18.0821    0.0000 </r>
       <r>   18.3191    0.0000 </r>
      </set>
      <set comment="kpoint 33">
       <r>   -9.5467    1.0000 </r>
       <r>   -6.4226    1.0000 </r>
       <r>   -2.9123    1.0000 </r>
       <r>   -2.1380    1.0000 </r>
       <r>   -1.0692    1.0000 </r>
       <r>   -0.1567    1.0000 </r>
       <r>    2.0562    1.0000 </r>
       <r>    2.6985    1.0000 </r>
       <r>    2.9952    1.0000 </r>
       <r>    3.6044    1.0000 </r>
       <r>    4.2301    1.0000 </r>
       <r>    5.0103    1.0000 </r>
       <r>    5.3974    1.0000 </r>
       <r>    7.1550    1.0000 </r>
       <r>    7.9442    1.0000 </r>
       <r>    9.0603    1.0000 </r>
       <r>   15.1962    0.0000 </r>
       <r>   15.9799    0.0000 </r>
       <r>   17.3248    0.0000 </r>
       <r>   17.7683    0.0000 </r>
       <r>   18.4984    0.0000 </r>
       <r>   19.0274    0.0000 </r>
       <r>   19.0634    0.0000 </r>
       <r>   19.2198    0.0000 </r>
      </set>
      <set comment="kpoint 34">
       <r>   -9.0928    1.0000 </r>
       <r>   -7.2132    1.0000 </r>
       <r>   -2.6381    1.0000 </r>
       <r>   -2.0873    1.0000 </r>
       <r>   -0.9035    1.0000 </r>
       <r>   -0.2741    1.0000 </r>
       <r>    1.8461    1.0000 </r>
       <r>    2.3205    1.0000 </r>
       <r>    3.4550    1.0000 </r>
       <r>    3.9242    1.0000 </r>
       <r>    3.9769    1.0000 </r>
       <r>    5.4914    1.0000 </r>
       <r>    5.9502    1.0000 </r>
       <r>    6.4020    1.0000 </r>
       <r>    7.2686    1.0000 </r>
       <r>    8.2922    1.0000 </r>
       <r>   15.2741    0.0000 </r>
       <r>   15.7727    0.0000 </r>
       <r>   18.4091    0.0000 </r>
       <r>   18.9790    0.0000 </r>
       <r>   19.4231    0.0000 </r>
       <r>   20.1023    0.0000 </r>
       <r>   20.1598    0.0000 </r>
       <r>   20.1930    0.0000 </r>
      </set>
      <set comment="kpoint 35">
       <r>   -8.5512    1.0000 </r>
       <r>   -7.9238    1.0000 </r>
       <r>   -2.3721    1.0000 </r>
       <r>   -2.1690    1.0000 </r>
       <r>   -0.6971    1.0000 </r>
       <r>   -0.4695    1.0000 </r>
       <r>    1.8440    1.0000 </r>
       <r>    2.0209    1.0000 </r>
       <r>    3.4755    1.0000 </r>
       <r>    3.6506    1.0000 </r>
       <r>    4.8508    1.0000 </r>
       <r>    5.6437    1.0000 </r>
       <r>    6.0339    1.0000 </r>
       <r>    6.6280    1.0000 </r>
       <r>    6.6569    1.0000 </r>
       <r>    7.4660    1.0000 </r>
       <r>   15.4043    0.0000 </r>
       <r>   15.5752    0.0000 </r>
       <r>   19.5588    0.0000 </r>
       <r>   20.1146    0.0000 </r>
       <r>   20.4427    0.0000 </r>
       <r>   20.7557    0.0000 </r>
       <r>   21.1538    0.0000 </r>
       <r>   21.2040    0.0000 </r>
      </set>
      <set comment="kpoint 36">
       <r>  -10.2775    1.0000 </r>
       <r>   -3.5495    1.0000 </r>
       <r>   -3.5495    1.0000 </r>
       <r>   -3.4276    1.0000 </r>
       <r>   -0.3168    1.0000 </r>
       <r>   -0.3168    1.0000 </r>
       <r>   -0.1650    1.0000 </r>
       <r>    3.5168    1.0000 </r>
       <r>    3.6244    1.0000 </r>
       <r>    3.6244    1.0000 </r>
       <r>    4.5771    1.0000 </r>
       <r>    4.7197    1.0000 </r>
       <r>    4.7197    1.0000 </r>
       <r>    8.6986    1.0000 </r>
       <r>   10.0008    1.0000 </r>
       <r>   10.1082    1.0000 </r>
       <r>   15.2099    0.0000 </r>
       <r>   15.4428    0.0000 </r>
       <r>   15.4428    0.0000 </r>
       <r>   16.6645    0.0000 </r>
       <r>   16.7515    0.0000 </r>
       <r>   16.8082    0.0000 </r>
       <r>   17.0383    0.0000 </r>
       <r>   17.0812    0.0000 </r>
      </set>
      <set comment="kpoint 37">
       <r>  -10.0944    1.0000 </r>
       <r>   -4.5430    1.0000 </r>
       <r>   -3.4149    1.0000 </r>
       <r>   -3.2971    1.0000 </r>
       <r>   -0.2951    1.0000 </r>
       <r>   -0.1654    1.0000 </r>
       <r>    0.7748    1.0000 </r>
       <r>    3.0283    1.0000 </r>
       <r>    3.1117    1.0000 </r>
       <r>    3.8775    1.0000 </r>
       <r>    4.5958    1.0000 </r>
       <r>    4.7417    1.0000 </r>
       <r>    4.8942    1.0000 </r>
       <r>    7.9859    1.0000 </r>
       <r>    9.5442    1.0000 </r>
       <r>    9.9545    1.0000 </r>
       <r>   15.3988    0.0000 </r>
       <r>   15.5699    0.0000 </r>
       <r>   15.7918    0.0000 </r>
       <r>   16.6502    0.0000 </r>
       <r>   17.3215    0.0000 </r>
       <r>   17.4931    0.0000 </r>
       <r>   17.5459    0.0000 </r>
       <r>   17.6958    0.0000 </r>
      </set>
      <set comment="kpoint 38">
       <r>   -9.8203    1.0000 </r>
       <r>   -5.4753    1.0000 </r>
       <r>   -3.2237    1.0000 </r>
       <r>   -3.1134    1.0000 </r>
       <r>   -0.3017    1.0000 </r>
       <r>   -0.2091    1.0000 </r>
       <r>    1.8166    1.0000 </r>
       <r>    2.6126    1.0000 </r>
       <r>    2.6605    1.0000 </r>
       <r>    4.2824    1.0000 </r>
       <r>    4.4561    1.0000 </r>
       <r>    4.5983    1.0000 </r>
       <r>    5.1539    1.0000 </r>
       <r>    7.2354    1.0000 </r>
       <r>    8.9099    1.0000 </r>
       <r>    9.5942    1.0000 </r>
       <r>   15.3956    0.0000 </r>
       <r>   16.2345    0.0000 </r>
       <r>   16.4472    0.0000 </r>
       <r>   16.4871    0.0000 </r>
       <r>   18.0930    0.0000 </r>
       <r>   18.1095    0.0000 </r>
       <r>   18.2906    0.0000 </r>
       <r>   18.7776    0.0000 </r>
      </set>
      <set comment="kpoint 39">
       <r>   -9.4560    1.0000 </r>
       <r>   -6.3386    1.0000 </r>
       <r>   -2.9937    1.0000 </r>
       <r>   -2.8971    1.0000 </r>
       <r>   -0.3729    1.0000 </r>
       <r>   -0.3276    1.0000 </r>
       <r>    2.3389    1.0000 </r>
       <r>    2.3458    1.0000 </r>
       <r>    2.7603    1.0000 </r>
       <r>    4.2292    1.0000 </r>
       <r>    4.3561    1.0000 </r>
       <r>    4.8652    1.0000 </r>
       <r>    5.4966    1.0000 </r>
       <r>    6.4824    1.0000 </r>
       <r>    8.2428    1.0000 </r>
       <r>    9.0085    1.0000 </r>
       <r>   15.4446    0.0000 </r>
       <r>   16.2881    0.0000 </r>
       <r>   17.1532    0.0000 </r>
       <r>   17.3576    0.0000 </r>
       <r>   18.8692    0.0000 </r>
       <r>   18.9599    0.0000 </r>
       <r>   19.1983    0.0000 </r>
       <r>   19.9653    0.0000 </r>
      </set>
      <set comment="kpoint 40">
       <r>   -9.0028    1.0000 </r>
       <r>   -7.1269    1.0000 </r>
       <r>   -2.7602    1.0000 </r>
       <r>   -2.6887    1.0000 </r>
       <r>   -0.5091    1.0000 </r>
       <r>   -0.5018    1.0000 </r>
       <r>    2.1966    1.0000 </r>
       <r>    2.2155    1.0000 </r>
       <r>    3.5834    1.0000 </r>
       <r>    4.0057    1.0000 </r>
       <r>    4.0989    1.0000 </r>
       <r>    5.6234    1.0000 </r>
       <r>    5.7456    1.0000 </r>
       <r>    5.9193    1.0000 </r>
       <r>    7.5877    1.0000 </r>
       <r>    8.2588    1.0000 </r>
       <r>   15.5453    0.0000 </r>
       <r>   16.0770    0.0000 </r>
       <r>   18.2460    0.0000 </r>
       <r>   18.4399    0.0000 </r>
       <r>   19.7559    0.0000 </r>
       <r>   19.9064    0.0000 </r>
       <r>   20.1780    0.0000 </r>
       <r>   21.1070    0.0000 </r>
      </set>
      <set comment="kpoint 41">
       <r>   -8.4621    1.0000 </r>
       <r>   -7.8359    1.0000 </r>
       <r>   -2.5887    1.0000 </r>
       <r>   -2.5609    1.0000 </r>
       <r>   -0.6374    1.0000 </r>
       <r>   -0.6342    1.0000 </r>
       <r>    2.1670    1.0000 </r>
       <r>    2.1794    1.0000 </r>
       <r>    3.8795    1.0000 </r>
       <r>    3.9150    1.0000 </r>
       <r>    4.3207    1.0000 </r>
       <r>    5.0292    1.0000 </r>
       <r>    6.4033    1.0000 </r>
       <r>    6.5087    1.0000 </r>
       <r>    6.9708    1.0000 </r>
       <r>    7.4039    1.0000 </r>
       <r>   15.6914    0.0000 </r>
       <r>   15.8729    0.0000 </r>
       <r>   19.3787    0.0000 </r>
       <r>   19.5285    0.0000 </r>
       <r>   20.7382    0.0000 </r>
       <r>   20.8948    0.0000 </r>
       <r>   20.9716    0.0000 </r>
       <r>   21.1660    0.0000 </r>
      </set>
      <set comment="kpoint 42">
       <r>   -9.9116    1.0000 </r>
       <r>   -4.3929    1.0000 </r>
       <r>   -4.3929    1.0000 </r>
       <r>   -3.1841    1.0000 </r>
       <r>   -0.2420    1.0000 </r>
       <r>    0.6929    1.0000 </r>
       <r>    0.6929    1.0000 </r>
       <r>    2.5548    1.0000 </r>
       <r>    3.4437    1.0000 </r>
       <r>    3.4437    1.0000 </r>
       <r>    4.8736    1.0000 </r>
       <r>    4.9219    1.0000 </r>
       <r>    4.9219    1.0000 </r>
       <r>    7.2462    1.0000 </r>
       <r>    9.2685    1.0000 </r>
[...]
       <r>   -5.4384    1.0000 </r>
       <r>   -4.9987    1.0000 </r>
       <r>   -1.9597    1.0000 </r>
       <r>   -1.5296    1.0000 </r>
       <r>   -1.5209    1.0000 </r>
       <r>   -1.0109    1.0000 </r>
       <r>    6.4811    1.0000 </r>
       <r>    6.7559    1.0000 </r>
       <r>    6.7789    1.0000 </r>
       <r>    7.1204    1.0000 </r>
       <r>    7.5807    1.0000 </r>
       <r>    7.6974    1.0000 </r>
       <r>    7.7072    1.0000 </r>
       <r>    7.9897    1.0000 </r>
       <r>   18.5904    0.0000 </r>
       <r>   18.7860    0.0000 </r>
       <r>   18.8163    0.0000 </r>
       <r>   18.8995    0.0000 </r>
       <r>   19.0122    0.0000 </r>
       <r>   19.0425    0.0000 </r>
       <r>   19.2912    0.0000 </r>
       <r>   19.4740    0.0000 </r>
      </set>
      <set comment="kpoint 194">
       <r>   -6.0567    1.0000 </r>
       <r>   -5.5217    1.0000 </r>
       <r>   -4.8080    1.0000 </r>
       <r>   -4.8080    1.0000 </r>
       <r>   -2.3105    1.0000 </r>
       <r>   -2.3105    1.0000 </r>
       <r>   -1.6103    1.0000 </r>
       <r>   -1.0889    1.0000 </r>
       <r>    6.8406    1.0000 </r>
       <r>    6.8406    1.0000 </r>
       <r>    7.4335    1.0000 </r>
       <r>    7.5003    1.0000 </r>
       <r>    7.5003    1.0000 </r>
       <r>    7.5659    1.0000 </r>
       <r>    7.6846    1.0000 </r>
       <r>    7.9828    1.0000 </r>
       <r>   18.3976    0.0000 </r>
       <r>   18.6087    0.0000 </r>
       <r>   18.6359    0.0000 </r>
       <r>   18.6359    0.0000 </r>
       <r>   19.0584    0.0000 </r>
       <r>   19.2499    0.0000 </r>
       <r>   19.4126    0.0000 </r>
       <r>   19.4564    0.0000 </r>
      </set>
      <set comment="kpoint 195">
       <r>   -5.6162    1.0000 </r>
       <r>   -5.1706    1.0000 </r>
       <r>   -5.1629    1.0000 </r>
       <r>   -4.8867    1.0000 </r>
       <r>   -2.3954    1.0000 </r>
       <r>   -2.1236    1.0000 </r>
       <r>   -2.1166    1.0000 </r>
       <r>   -1.6798    1.0000 </r>
       <r>    7.1751    1.0000 </r>
       <r>    7.3209    1.0000 </r>
       <r>    7.3675    1.0000 </r>
       <r>    7.5907    1.0000 </r>
       <r>    7.6940    1.0000 </r>
       <r>    7.7281    1.0000 </r>
       <r>    7.7669    1.0000 </r>
       <r>    7.9557    1.0000 </r>
       <r>   18.7167    0.0000 </r>
       <r>   18.7396    0.0000 </r>
       <r>   18.7782    0.0000 </r>
       <r>   18.8372    0.0000 </r>
       <r>   18.9311    0.0000 </r>
       <r>   19.0320    0.0000 </r>
       <r>   19.2091    0.0000 </r>
       <r>   19.2205    0.0000 </r>
      </set>
      <set comment="kpoint 196">
       <r>   -5.2534    1.0000 </r>
       <r>   -4.9713    1.0000 </r>
       <r>   -4.9713    1.0000 </r>
       <r>   -4.9682    1.0000 </r>
       <r>   -2.4789    1.0000 </r>
       <r>   -2.4760    1.0000 </r>
       <r>   -2.4760    1.0000 </r>
       <r>   -2.1984    1.0000 </r>
       <r>    7.6103    1.0000 </r>
       <r>    7.6103    1.0000 </r>
       <r>    7.6572    1.0000 </r>
       <r>    7.7454    1.0000 </r>
       <r>    7.7729    1.0000 </r>
       <r>    7.8171    1.0000 </r>
       <r>    7.8171    1.0000 </r>
       <r>    7.9170    1.0000 </r>
       <r>   18.7317    0.0000 </r>
       <r>   18.8046    0.0000 </r>
       <r>   18.8314    0.0000 </r>
       <r>   18.8314    0.0000 </r>
       <r>   18.8602    0.0000 </r>
       <r>   18.9355    0.0000 </r>
       <r>   18.9355    0.0000 </r>
       <r>   18.9808    0.0000 </r>
      </set>
     </set>
    </set>
   </array>
  </eigenvalues>
  <separator name="orbital magnetization" >
   <v name="MAGDIPOLOUT">      0.00000000      0.00000000      0.00000000</v>
  </separator>
  <dos>
   <i name="efermi">     10.82949944 </i>
   <total>
    <array>
     <dimension dim="1">gridpoints</dimension>
     <dimension dim="2">spin</dimension>
     <field>energy</field>
     <field>total</field>
     <field>integrated</field>
     <set>
      <set comment="spin 1">
       <r>   -12.1986     0.0000     0.0000 </r>
       <r>   -12.0781     0.0000     0.0000 </r>
       <r>   -11.9575     0.0000     0.0000 </r>
       <r>   -11.8370     0.0000     0.0000 </r>
       <r>   -11.7164     0.0000     0.0000 </r>
       <r>   -11.5959     0.0000     0.0000 </r>
       <r>   -11.4753     0.0000     0.0000 </r>
       <r>   -11.3548     0.0000     0.0000 </r>
       <r>   -11.2342     0.0000     0.0000 </r>
       <r>   -11.1137     0.0000     0.0000 </r>
       <r>   -10.9931     0.0000     0.0000 </r>
       <r>   -10.8726     0.0000     0.0000 </r>
       <r>   -10.7520     0.0000     0.0000 </r>
       <r>   -10.6315     0.0007     0.0001 </r>
       <r>   -10.5110     0.0547     0.0067 </r>
       <r>   -10.3904     0.1759     0.0279 </r>
       <r>   -10.2699     0.2226     0.0547 </r>
       <r>   -10.1493     0.3314     0.0947 </r>
       <r>   -10.0288     0.2403     0.1236 </r>
       <r>    -9.9082     0.4531     0.1783 </r>
       <r>    -9.7877     0.3433     0.2196 </r>
       <r>    -9.6671     0.4140     0.2695 </r>
       <r>    -9.5466     0.5044     0.3304 </r>
       <r>    -9.4260     0.5047     0.3912 </r>
       <r>    -9.3055     0.5424     0.4566 </r>
       <r>    -9.1849     0.3947     0.5042 </r>
       <r>    -9.0644     0.7061     0.5893 </r>
       <r>    -8.9439     0.6390     0.6663 </r>
       <r>    -8.8233     0.5542     0.7331 </r>
       <r>    -8.7028     0.4766     0.7906 </r>
       <r>    -8.5822     0.7846     0.8851 </r>
       <r>    -8.4617     0.7938     0.9808 </r>
       <r>    -8.3411     0.6160     1.0551 </r>
       <r>    -8.2206     0.7497     1.1455 </r>
       <r>    -8.1000     0.6665     1.2258 </r>
       <r>    -7.9795     0.8744     1.3312 </r>
       <r>    -7.8589     0.5573     1.3984 </r>
       <r>    -7.7384     1.0421     1.5240 </r>
       <r>    -7.6178     0.9784     1.6420 </r>
       <r>    -7.4973     0.5834     1.7123 </r>
       <r>    -7.3768     0.8086     1.8097 </r>
       <r>    -7.2562     0.7891     1.9049 </r>
       <r>    -7.1357     1.2119     2.0510 </r>
       <r>    -7.0151     0.9449     2.1649 </r>
       <r>    -6.8946     0.8894     2.2721 </r>
       <r>    -6.7740     0.8482     2.3743 </r>
       <r>    -6.6535     1.0476     2.5006 </r>
       <r>    -6.5329     0.8817     2.6069 </r>
       <r>    -6.4124     1.1941     2.7508 </r>
       <r>    -6.2918     0.9245     2.8623 </r>
       <r>    -6.1713     1.2289     3.0104 </r>
       <r>    -6.0507     0.9662     3.1269 </r>
       <r>    -5.9302     1.3826     3.2936 </r>
       <r>    -5.8097     1.0196     3.4165 </r>
       <r>    -5.6891     0.7896     3.5117 </r>
       <r>    -5.5686     1.1811     3.6540 </r>
       <r>    -5.4480     1.6748     3.8559 </r>
       <r>    -5.3275     1.1737     3.9974 </r>
       <r>    -5.2069     1.3564     4.1609 </r>
       <r>    -5.0864     1.4418     4.3347 </r>
       <r>    -4.9658     1.1504     4.4734 </r>
       <r>    -4.8453     1.6109     4.6676 </r>
       <r>    -4.7247     1.5793     4.8580 </r>
       <r>    -4.6042     1.7829     5.0729 </r>
       <r>    -4.4836     1.1818     5.2154 </r>
       <r>    -4.3631     1.3430     5.3773 </r>
       <r>    -4.2426     1.6935     5.5814 </r>
       <r>    -4.1220     1.8164     5.8004 </r>
       <r>    -4.0015     0.7817     5.8946 </r>
       <r>    -3.8809     1.2883     6.0499 </r>
       <r>    -3.7604     0.8891     6.1571 </r>
       <r>    -3.6398     1.4029     6.3262 </r>
       <r>    -3.5193     1.7211     6.5337 </r>
       <r>    -3.3987     0.9111     6.6435 </r>
       <r>    -3.2782     0.8050     6.7406 </r>
       <r>    -3.1576     1.3359     6.9016 </r>
       <r>    -3.0371     1.0520     7.0284 </r>
       <r>    -2.9165     1.2327     7.1770 </r>
       <r>    -2.7960     0.6931     7.2606 </r>
       <r>    -2.6754     0.6337     7.3370 </r>
       <r>    -2.5549     0.7545     7.4279 </r>
       <r>    -2.4344     0.9815     7.5462 </r>
       <r>    -2.3138     1.2859     7.7012 </r>
       <r>    -2.1933     1.2921     7.8570 </r>
       <r>    -2.0727     1.4495     8.0317 </r>
       <r>    -1.9522     0.8706     8.1367 </r>
       <r>    -1.8316     0.7220     8.2237 </r>
       <r>    -1.7111     0.7496     8.3141 </r>
       <r>    -1.5905     1.0997     8.4466 </r>
       <r>    -1.4700     1.0094     8.5683 </r>
       <r>    -1.3494     1.0115     8.6902 </r>
       <r>    -1.2289     1.7403     8.9000 </r>
       <r>    -1.1083     1.9217     9.1317 </r>
       <r>    -0.9878     1.8004     9.3487 </r>
       <r>    -0.8673     2.4767     9.6473 </r>
       <r>    -0.7467     2.0437     9.8936 </r>
       <r>    -0.6262     2.3966    10.1825 </r>
       <r>    -0.5056     1.3443    10.3446 </r>
       <r>    -0.3851     2.3011    10.6220 </r>
       <r>    -0.2645     2.8330    10.9635 </r>
       <r>    -0.1440     2.0340    11.2087 </r>
       <r>    -0.0234     1.4024    11.3777 </r>
       <r>     0.0971     1.3142    11.5361 </r>
       <r>     0.2177     0.9840    11.6547 </r>
       <r>     0.3382     1.2417    11.8044 </r>
       <r>     0.4588     1.2894    11.9599 </r>
       <r>     0.5793     1.2455    12.1100 </r>
       <r>     0.6998     1.2598    12.2619 </r>
       <r>     0.8204     1.7989    12.4787 </r>
       <r>     0.9409     0.9321    12.5911 </r>
       <r>     1.0615     0.8650    12.6953 </r>
       <r>     1.1820     1.0456    12.8214 </r>
       <r>     1.3026     1.3736    12.9870 </r>
       <r>     1.4231     0.7411    13.0763 </r>
       <r>     1.5437     0.9650    13.1926 </r>
       <r>     1.6642     1.7914    13.4086 </r>
       <r>     1.7848     1.5684    13.5977 </r>
       <r>     1.9053     2.3602    13.8822 </r>
       <r>     2.0259     1.4422    14.0560 </r>
       <r>     2.1464     2.1274    14.3125 </r>
       <r>     2.2669     2.2705    14.5862 </r>
       <r>     2.3875     2.9618    14.9432 </r>
       <r>     2.5080     1.6172    15.1382 </r>
       <r>     2.6286     1.5134    15.3206 </r>
       <r>     2.7491     1.7137    15.5272 </r>
       <r>     2.8697     1.9674    15.7643 </r>
       <r>     2.9902     3.2425    16.1552 </r>
       <r>     3.1108     2.6204    16.4711 </r>
       <r>     3.2313     1.4825    16.6498 </r>
       <r>     3.3519     1.5031    16.8310 </r>
       <r>     3.4724     2.3183    17.1105 </r>
       <r>     3.5930     2.7246    17.4389 </r>
       <r>     3.7135     2.7750    17.7734 </r>
       <r>     3.8340     2.1743    18.0355 </r>
       <r>     3.9546     2.2046    18.3013 </r>
       <r>     4.0751     2.0025    18.5427 </r>
       <r>     4.1957     3.1122    18.9178 </r>
       <r>     4.3162     3.8423    19.3810 </r>
       <r>     4.4368     2.5800    19.6920 </r>
       <r>     4.5573     3.0011    20.0538 </r>
       <r>     4.6779     3.0603    20.4227 </r>
       <r>     4.7984     2.7001    20.7482 </r>
       <r>     4.9190     3.0324    21.1137 </r>
       <r>     5.0395     4.4589    21.6512 </r>
       <r>     5.1601     3.6849    22.0954 </r>
       <r>     5.2806     2.2414    22.3656 </r>
       <r>     5.4012     1.9227    22.5974 </r>
       <r>     5.5217     2.9540    22.9535 </r>
       <r>     5.6422     3.8090    23.4126 </r>
       <r>     5.7628     4.0994    23.9068 </r>
       <r>     5.8833     1.9958    24.1474 </r>
       <r>     6.0039     2.6523    24.4671 </r>
       <r>     6.1244     2.8945    24.8160 </r>
       <r>     6.2450     2.9105    25.1669 </r>
       <r>     6.3655     2.8646    25.5122 </r>
       <r>     6.4861     3.3892    25.9208 </r>
       <r>     6.6066     2.2469    26.1916 </r>
       <r>     6.7272     2.4373    26.4854 </r>
       <r>     6.8477     2.9810    26.8448 </r>
       <r>     6.9683     3.3517    27.2488 </r>
       <r>     7.0888     2.2773    27.5233 </r>
       <r>     7.2093     2.5470    27.8304 </r>
       <r>     7.3299     2.2951    28.1070 </r>
       <r>     7.4504     2.6462    28.4260 </r>
       <r>     7.5710     3.2473    28.8175 </r>
       <r>     7.6915     2.8332    29.1590 </r>
       <r>     7.8121     1.6388    29.3566 </r>
       <r>     7.9326     1.9705    29.5941 </r>
       <r>     8.0532     2.3475    29.8771 </r>
       <r>     8.1737     2.0438    30.1234 </r>
       <r>     8.2943     1.8639    30.3481 </r>
       <r>     8.4148     1.0014    30.4688 </r>
       <r>     8.5354     0.8684    30.5735 </r>
       <r>     8.6559     1.6233    30.7692 </r>
       <r>     8.7764     1.5172    30.9521 </r>
       <r>     8.8970     1.0629    31.0802 </r>
       <r>     9.0175     0.8677    31.1848 </r>
       <r>     9.1381     0.6723    31.2659 </r>
       <r>     9.2586     0.8452    31.3678 </r>
       <r>     9.3792     1.1677    31.5085 </r>
       <r>     9.4997     0.6347    31.5850 </r>
       <r>     9.6203     0.5405    31.6502 </r>
       <r>     9.7408     0.5706    31.7190 </r>
       <r>     9.8614     0.5585    31.7863 </r>
       <r>     9.9819     0.5231    31.8494 </r>
       <r>    10.1025     0.3339    31.8896 </r>
       <r>    10.2230     0.4408    31.9428 </r>
       <r>    10.3435     0.1716    31.9634 </r>
       <r>    10.4641     0.2365    31.9919 </r>
       <r>    10.5846     0.0601    31.9992 </r>
       <r>    10.7052     0.0067    32.0000 </r>
       <r>    10.8257     0.0000    32.0000 </r>
       <r>    10.9463     0.0000    32.0000 </r>
       <r>    11.0668     0.0000    32.0000 </r>
       <r>    11.1874     0.0000    32.0000 </r>
       <r>    11.3079     0.0000    32.0000 </r>
       <r>    11.4285     0.0000    32.0000 </r>
       <r>    11.5490     0.0000    32.0000 </r>
       <r>    11.6696     0.0000    32.0000 </r>
       <r>    11.7901     0.0000    32.0000 </r>
       <r>    11.9106     0.0000    32.0000 </r>
       <r>    12.0312     0.0000    32.0000 </r>
       <r>    12.1517     0.0000    32.0000 </r>
       <r>    12.2723     0.0000    32.0000 </r>
       <r>    12.3928     0.0000    32.0000 </r>
       <r>    12.5134     0.0000    32.0000 </r>
       <r>    12.6339     0.0000    32.0000 </r>
       <r>    12.7545     0.0000    32.0000 </r>
       <r>    12.8750     0.0000    32.0000 </r>
       <r>    12.9956     0.0000    32.0000 </r>
       <r>    13.1161     0.0000    32.0000 </r>
       <r>    13.2367     0.0000    32.0000 </r>
       <r>    13.3572     0.0000    32.0000 </r>
       <r>    13.4778     0.0000    32.0000 </r>
       <r>    13.5983     0.0000    32.0000 </r>
       <r>    13.7188     0.0000    32.0000 </r>
       <r>    13.8394     0.0000    32.0000 </r>
       <r>    13.9599     0.0000    32.0000 </r>
       <r>    14.0805     0.0000    32.0000 </r>
       <r>    14.2010     0.0000    32.0000 </r>
       <r>    14.3216     0.0000    32.0000 </r>
       <r>    14.4421     0.0000    32.0000 </r>
       <r>    14.5627     0.0351    32.0042 </r>
       <r>    14.6832     0.1387    32.0210 </r>
       <r>    14.8038     0.1682    32.0412 </r>
       <r>    14.9243     0.3666    32.0854 </r>
       <r>    15.0449     0.5315    32.1495 </r>
       <r>    15.1654     0.4378    32.2023 </r>
       <r>    15.2859     1.0659    32.3308 </r>
       <r>    15.4065     0.8149    32.4290 </r>
       <r>    15.5270     0.7489    32.5193 </r>
       <r>    15.6476     1.1768    32.6611 </r>
       <r>    15.7681     0.8825    32.7675 </r>
       <r>    15.8887     1.9030    32.9969 </r>
       <r>    16.0092     1.6634    33.1974 </r>
       <r>    16.1298     1.6788    33.3998 </r>
       <r>    16.2503     1.6701    33.6011 </r>
       <r>    16.3709     1.4686    33.7782 </r>
       <r>    16.4914     1.8360    33.9995 </r>
       <r>    16.6120     1.6355    34.1967 </r>
       <r>    16.7325     2.5334    34.5020 </r>
       <r>    16.8530     2.2962    34.7788 </r>
       <r>    16.9736     2.2662    35.0520 </r>
       <r>    17.0941     2.1220    35.3078 </r>
       <r>    17.2147     1.9791    35.5464 </r>
       <r>    17.3352     2.2558    35.8183 </r>
       <r>    17.4558     2.9634    36.1755 </r>
       <r>    17.5763     2.4471    36.4705 </r>
       <r>    17.6969     2.2886    36.7464 </r>
       <r>    17.8174     2.3804    37.0334 </r>
       <r>    17.9380     2.9135    37.3846 </r>
       <r>    18.0585     3.2717    37.7790 </r>
       <r>    18.1791     4.2305    38.2889 </r>
       <r>    18.2996     3.4522    38.7051 </r>
       <r>    18.4201     3.3829    39.1129 </r>
       <r>    18.5407     2.9886    39.4732 </r>
       <r>    18.6612     3.6120    39.9086 </r>
       <r>    18.7818     4.6309    40.4668 </r>
       <r>    18.9023     4.1866    40.9715 </r>
       <r>    19.0229     4.9260    41.5653 </r>
       <r>    19.1434     4.4043    42.0962 </r>
       <r>    19.2640     4.8863    42.6852 </r>
       <r>    19.3845     3.3953    43.0945 </r>
       <r>    19.5051     2.8035    43.4325 </r>
       <r>    19.6256     3.1221    43.8088 </r>
       <r>    19.7462     2.1550    44.0686 </r>
       <r>    19.8667     2.7385    44.3987 </r>
       <r>    19.9872     2.9396    44.7531 </r>
       <r>    20.1078     3.1358    45.1311 </r>
       <r>    20.2283     3.2690    45.5252 </r>
       <r>    20.3489     2.5007    45.8266 </r>
       <r>    20.4694     3.1722    46.2090 </r>
       <r>    20.5900     2.3154    46.4881 </r>
       <r>    20.7105     1.9594    46.7243 </r>
       <r>    20.8311     1.7791    46.9388 </r>
       <r>    20.9516     1.6213    47.1342 </r>
       <r>    21.0722     1.5153    47.3169 </r>
       <r>    21.1927     1.9013    47.5461 </r>
       <r>    21.3133     1.1270    47.6819 </r>
       <r>    21.4338     1.1366    47.8189 </r>
       <r>    21.5544     0.5492    47.8851 </r>
       <r>    21.6749     0.4341    47.9375 </r>
       <r>    21.7954     0.1590    47.9566 </r>
       <r>    21.9160     0.0671    47.9647 </r>
       <r>    22.0365     0.0410    47.9697 </r>
       <r>    22.1571     0.1136    47.9834 </r>
       <r>    22.2776     0.0926    47.9945 </r>
       <r>    22.3982     0.0447    47.9999 </r>
       <r>    22.5187     0.0007    48.0000 </r>
       <r>    22.6393     0.0000    48.0000 </r>
       <r>    22.7598     0.0000    48.0000 </r>
       <r>    22.8804     0.0000    48.0000 </r>
       <r>    23.0009     0.0000    48.0000 </r>
       <r>    23.1215     0.0000    48.0000 </r>
       <r>    23.2420     0.0000    48.0000 </r>
       <r>    23.3625     0.0000    48.0000 </r>
       <r>    23.4831     0.0000    48.0000 </r>
       <r>    23.6036     0.0000    48.0000 </r>
       <r>    23.7242     0.0000    48.0000 </r>
       <r>    23.8447     0.0000    48.0000 </r>
       <r>    23.9653     0.0000    48.0000 </r>
      </set>
     </set>
    </array>
   </total>
  </dos>
 </calculation>
 <structure name="finalpos" >
  <crystal>
   <varray name="basis" >
    <v>       3.60934112       0.00000000       0.00000000 </v>
    <v>       0.00000000       3.60934112       0.00000000 </v>
    <v>       0.00000000       0.00000000       3.57360507 </v>
   </varray>
   <i name="volume">     46.55458020 </i>
   <varray name="rec_basis" >
    <v>       0.27705888       0.00000000       0.00000000 </v>
    <v>       0.00000000       0.27705888       0.00000000 </v>
    <v>       0.00000000       0.00000000       0.27982947 </v>
   </varray>
  </crystal>
  <varray name="positions" >
   <v>       0.25000000       0.25000000       0.25000000 </v>
   <v>       0.00000000       0.00000000       0.00000000 </v>
   <v>       0.25000000       0.75000000       0.75000000 </v>
   <v>       0.00000000       0.50000000       0.50000000 </v>
   <v>       0.75000000       0.25000000       0.75000000 </v>
   <v>       0.50000000       0.00000000       0.50000000 </v>
   <v>       0.75000000       0.75000000       0.25000000 </v>
   <v>       0.50000000       0.50000000       0.00000000 </v>
  </varray>
 </structure>
</modeling>
