   4   4   0   0
  0.1788509E+02  0.4157523E-09  0.4157523E-09  0.4157523E-09  0.2000000E-15
  1.000000000000000E-004
  CAR 
 unknown system                          
     19.32159541     -1.67762122  301      8.70798144      1.00000000
     -1.678  0.0000E+00  0.0000E+00
     -1.608  0.0000E+00  0.0000E+00
     -1.538  0.0000E+00  0.0000E+00
     -1.468  0.0000E+00  0.0000E+00
     -1.398  0.0000E+00  0.0000E+00
     -1.328  0.0000E+00  0.0000E+00
     -1.258  0.9399E-20  0.6579E-21
     -1.188  0.2379E-16  0.1666E-17
     -1.118  0.2173E-13  0.1522E-14
     -1.048  0.7783E-11  0.5463E-12
     -0.978  0.1123E-08  0.7918E-10
     -0.908  0.6802E-07  0.4840E-08
     -0.838  0.1824E-05  0.1325E-06
     -0.768  0.2299E-04  0.1742E-05
     -0.698  0.1437E-03  0.1180E-04
     -0.628  0.4687E-03  0.4461E-04
     -0.558  0.8876E-03  0.1067E-03
     -0.488  0.1274E-02  0.1959E-03
     -0.418  0.1703E-02  0.3152E-03
     -0.348  0.1873E-02  0.4463E-03
     -0.278  0.1922E-02  0.5808E-03
     -0.208  0.2394E-02  0.7484E-03
     -0.138  0.2791E-02  0.9437E-03
     -0.068  0.2769E-02  0.1138E-02
      0.002  0.2724E-02  0.1328E-02
      0.072  0.2911E-02  0.1532E-02
      0.142  0.3428E-02  0.1772E-02
      0.212  0.3962E-02  0.2049E-02
      0.282  0.3859E-02  0.2319E-02
      0.352  0.3724E-02  0.2580E-02
      0.422  0.3878E-02  0.2852E-02
      0.492  0.3970E-02  0.3129E-02
      0.562  0.4569E-02  0.3449E-02
      0.632  0.5414E-02  0.3828E-02
      0.702  0.5573E-02  0.4218E-02
      0.772  0.5231E-02  0.4584E-02
      0.842  0.4639E-02  0.4909E-02
      0.912  0.4947E-02  0.5255E-02
      0.982  0.6474E-02  0.5709E-02
      1.052  0.7434E-02  0.6229E-02
      1.122  0.7051E-02  0.6722E-02
      1.192  0.6904E-02  0.7206E-02
      1.262  0.7487E-02  0.7730E-02
      1.332  0.8034E-02  0.8292E-02
      1.402  0.8750E-02  0.8905E-02
      1.472  0.1004E-01  0.9607E-02
      1.542  0.1146E-01  0.1041E-01
      1.612  0.1323E-01  0.1134E-01
      1.682  0.1476E-01  0.1237E-01
      1.752  0.1528E-01  0.1344E-01
      1.822  0.1741E-01  0.1466E-01
      1.892  0.2305E-01  0.1627E-01
      1.962  0.2893E-01  0.1830E-01
      2.032  0.3361E-01  0.2065E-01
      2.102  0.3885E-01  0.2337E-01
      2.172  0.4511E-01  0.2652E-01
      2.242  0.5233E-01  0.3019E-01
      2.312  0.5829E-01  0.3427E-01
      2.382  0.6112E-01  0.3855E-01
      2.452  0.6352E-01  0.4299E-01
      2.522  0.6629E-01  0.4763E-01
      2.592  0.6908E-01  0.5247E-01
      2.662  0.7093E-01  0.5743E-01
      2.732  0.7194E-01  0.6247E-01
      2.802  0.7293E-01  0.6757E-01
      2.872  0.7027E-01  0.7249E-01
      2.942  0.6668E-01  0.7716E-01
      3.012  0.6594E-01  0.8178E-01
      3.082  0.6541E-01  0.8635E-01
      3.152  0.6315E-01  0.9077E-01
      3.222  0.5972E-01  0.9495E-01
      3.292  0.5865E-01  0.9906E-01
      3.362  0.6152E-01  0.1034E+00
      3.432  0.6653E-01  0.1080E+00
      3.502  0.7244E-01  0.1131E+00
      3.572  0.8009E-01  0.1187E+00
      3.642  0.8712E-01  0.1248E+00
      3.712  0.9317E-01  0.1313E+00
      3.782  0.9834E-01  0.1382E+00
      3.852  0.9794E-01  0.1451E+00
      3.922  0.9229E-01  0.1515E+00
      3.992  0.8866E-01  0.1577E+00
      4.062  0.8604E-01  0.1637E+00
      4.132  0.8312E-01  0.1696E+00
      4.202  0.8476E-01  0.1755E+00
      4.272  0.9241E-01  0.1820E+00
      4.342  0.1027E+00  0.1892E+00
      4.412  0.1084E+00  0.1967E+00
      4.482  0.1029E+00  0.2039E+00
      4.552  0.9362E-01  0.2105E+00
      4.622  0.8873E-01  0.2167E+00
      4.692  0.8749E-01  0.2228E+00
      4.762  0.8878E-01  0.2290E+00
      4.832  0.9061E-01  0.2354E+00
      4.902  0.9314E-01  0.2419E+00
      4.972  0.9066E-01  0.2483E+00
      5.042  0.8279E-01  0.2540E+00
      5.112  0.7693E-01  0.2594E+00
      5.182  0.7429E-01  0.2646E+00
      5.252  0.7679E-01  0.2700E+00
      5.322  0.8350E-01  0.2759E+00
      5.392  0.8906E-01  0.2821E+00
      5.462  0.9060E-01  0.2884E+00
      5.532  0.8894E-01  0.2947E+00
      5.602  0.8962E-01  0.3009E+00
      5.672  0.9199E-01  0.3074E+00
      5.742  0.8926E-01  0.3136E+00
      5.812  0.8331E-01  0.3194E+00
      5.882  0.8045E-01  0.3251E+00
      5.952  0.7887E-01  0.3306E+00
      6.022  0.7476E-01  0.3358E+00
      6.092  0.7201E-01  0.3409E+00
      6.162  0.7478E-01  0.3461E+00
      6.232  0.7702E-01  0.3515E+00
      6.302  0.7719E-01  0.3569E+00
      6.372  0.8351E-01  0.3627E+00
      6.442  0.9380E-01  0.3693E+00
      6.512  0.1015E+00  0.3764E+00
      6.582  0.1062E+00  0.3839E+00
      6.652  0.1052E+00  0.3912E+00
      6.722  0.9585E-01  0.3979E+00
      6.792  0.8450E-01  0.4038E+00
      6.862  0.7595E-01  0.4092E+00
      6.932  0.6719E-01  0.4139E+00
      7.002  0.5364E-01  0.4176E+00
      7.072  0.3475E-01  0.4200E+00
      7.142  0.2014E-01  0.4215E+00
      7.212  0.1647E-01  0.4226E+00
      7.282  0.1722E-01  0.4238E+00
      7.352  0.1426E-01  0.4248E+00
      7.422  0.9569E-02  0.4255E+00
      7.492  0.7693E-02  0.4260E+00
      7.562  0.9189E-02  0.4267E+00
      7.632  0.1152E-01  0.4275E+00
      7.702  0.1320E-01  0.4284E+00
      7.772  0.1401E-01  0.4294E+00
      7.842  0.1250E-01  0.4302E+00
      7.912  0.1053E-01  0.4310E+00
      7.982  0.1036E-01  0.4317E+00
      8.052  0.1081E-01  0.4325E+00
      8.122  0.1124E-01  0.4333E+00
      8.192  0.1192E-01  0.4341E+00
      8.262  0.1230E-01  0.4349E+00
      8.332  0.1174E-01  0.4358E+00
      8.402  0.1148E-01  0.4366E+00
      8.472  0.1186E-01  0.4374E+00
      8.542  0.1136E-01  0.4382E+00
      8.612  0.1062E-01  0.4389E+00
      8.682  0.1088E-01  0.4397E+00
      8.752  0.1165E-01  0.4405E+00
      8.822  0.1232E-01  0.4414E+00
      8.892  0.1270E-01  0.4423E+00
      8.962  0.1258E-01  0.4432E+00
      9.032  0.1191E-01  0.4440E+00
      9.102  0.1044E-01  0.4447E+00
      9.172  0.9174E-02  0.4454E+00
      9.242  0.1003E-01  0.4461E+00
      9.312  0.1241E-01  0.4469E+00
      9.382  0.1352E-01  0.4479E+00
      9.452  0.1298E-01  0.4488E+00
      9.522  0.1128E-01  0.4496E+00
      9.592  0.9804E-02  0.4503E+00
      9.662  0.1060E-01  0.4510E+00
      9.732  0.1129E-01  0.4518E+00
      9.802  0.1062E-01  0.4525E+00
      9.872  0.1133E-01  0.4533E+00
      9.942  0.1255E-01  0.4542E+00
     10.012  0.1268E-01  0.4551E+00
     10.082  0.1229E-01  0.4560E+00
     10.152  0.1139E-01  0.4568E+00
     10.222  0.1125E-01  0.4575E+00
     10.292  0.1128E-01  0.4583E+00
     10.362  0.9942E-02  0.4590E+00
     10.432  0.9357E-02  0.4597E+00
     10.502  0.1154E-01  0.4605E+00
     10.572  0.1463E-01  0.4615E+00
     10.642  0.1474E-01  0.4625E+00
     10.712  0.1294E-01  0.4634E+00
     10.782  0.1243E-01  0.4643E+00
     10.852  0.1237E-01  0.4652E+00
     10.922  0.1118E-01  0.4660E+00
     10.992  0.1022E-01  0.4667E+00
     11.062  0.1049E-01  0.4674E+00
     11.132  0.1080E-01  0.4682E+00
     11.202  0.1105E-01  0.4689E+00
     11.272  0.1138E-01  0.4697E+00
     11.342  0.1018E-01  0.4705E+00
     11.412  0.9831E-02  0.4711E+00
     11.482  0.1096E-01  0.4719E+00
     11.552  0.1040E-01  0.4726E+00
     11.622  0.9499E-02  0.4733E+00
     11.692  0.9575E-02  0.4740E+00
     11.762  0.9344E-02  0.4746E+00
     11.832  0.1046E-01  0.4754E+00
     11.902  0.1467E-01  0.4764E+00
     11.972  0.1780E-01  0.4776E+00
     12.042  0.1620E-01  0.4788E+00
     12.112  0.1355E-01  0.4797E+00
     12.182  0.1366E-01  0.4807E+00
     12.252  0.1440E-01  0.4817E+00
     12.322  0.1394E-01  0.4827E+00
     12.392  0.1320E-01  0.4836E+00
     12.462  0.1222E-01  0.4844E+00
     12.532  0.1111E-01  0.4852E+00
     12.602  0.1020E-01  0.4859E+00
     12.672  0.1020E-01  0.4866E+00
     12.742  0.1107E-01  0.4874E+00
     12.812  0.1122E-01  0.4882E+00
     12.882  0.1095E-01  0.4890E+00
     12.952  0.1113E-01  0.4897E+00
     13.022  0.1171E-01  0.4906E+00
     13.092  0.1172E-01  0.4914E+00
     13.162  0.1157E-01  0.4922E+00
     13.232  0.1141E-01  0.4930E+00
     13.302  0.1040E-01  0.4937E+00
     13.372  0.1010E-01  0.4944E+00
     13.442  0.1141E-01  0.4952E+00
     13.512  0.1237E-01  0.4961E+00
     13.582  0.1325E-01  0.4970E+00
     13.652  0.1492E-01  0.4981E+00
     13.722  0.1485E-01  0.4991E+00
     13.792  0.1403E-01  0.5001E+00
     13.862  0.1503E-01  0.5011E+00
     13.932  0.1659E-01  0.5023E+00
     14.002  0.1641E-01  0.5034E+00
     14.072  0.1471E-01  0.5045E+00
     14.142  0.1324E-01  0.5054E+00
     14.212  0.1238E-01  0.5063E+00
     14.282  0.1236E-01  0.5071E+00
     14.352  0.1331E-01  0.5081E+00
     14.422  0.1517E-01  0.5091E+00
     14.492  0.1597E-01  0.5102E+00
     14.562  0.1504E-01  0.5113E+00
     14.632  0.1381E-01  0.5123E+00
     14.702  0.1204E-01  0.5131E+00
     14.772  0.1077E-01  0.5139E+00
     14.842  0.1070E-01  0.5146E+00
     14.912  0.1031E-01  0.5153E+00
     14.982  0.9618E-02  0.5160E+00
     15.052  0.9832E-02  0.5167E+00
     15.122  0.1087E-01  0.5175E+00
     15.192  0.1074E-01  0.5182E+00
     15.262  0.9923E-02  0.5189E+00
     15.332  0.1028E-01  0.5196E+00
     15.402  0.1101E-01  0.5204E+00
     15.472  0.1180E-01  0.5212E+00
     15.542  0.1235E-01  0.5221E+00
     15.612  0.1189E-01  0.5229E+00
     15.682  0.1077E-01  0.5237E+00
     15.752  0.9865E-02  0.5244E+00
     15.822  0.1041E-01  0.5251E+00
     15.892  0.1313E-01  0.5260E+00
     15.962  0.1568E-01  0.5271E+00
     16.032  0.1506E-01  0.5282E+00
     16.102  0.1262E-01  0.5290E+00
     16.172  0.1020E-01  0.5298E+00
     16.242  0.8304E-02  0.5303E+00
     16.312  0.8405E-02  0.5309E+00
     16.382  0.9763E-02  0.5316E+00
     16.452  0.1008E-01  0.5323E+00
     16.522  0.9521E-02  0.5330E+00
     16.592  0.9577E-02  0.5337E+00
     16.662  0.1063E-01  0.5344E+00
     16.732  0.1062E-01  0.5351E+00
     16.802  0.9333E-02  0.5358E+00
     16.872  0.7970E-02  0.5364E+00
     16.942  0.6763E-02  0.5368E+00
     17.012  0.5724E-02  0.5372E+00
     17.082  0.4754E-02  0.5376E+00
     17.152  0.4088E-02  0.5378E+00
     17.222  0.3602E-02  0.5381E+00
     17.292  0.3342E-02  0.5383E+00
     17.362  0.3710E-02  0.5386E+00
     17.432  0.4172E-02  0.5389E+00
     17.502  0.3762E-02  0.5391E+00
     17.572  0.2711E-02  0.5393E+00
     17.642  0.1592E-02  0.5394E+00
     17.712  0.7967E-03  0.5395E+00
     17.782  0.5084E-03  0.5395E+00
     17.852  0.3721E-03  0.5396E+00
     17.922  0.2438E-03  0.5396E+00
     17.992  0.3900E-03  0.5396E+00
     18.062  0.7594E-03  0.5397E+00
     18.132  0.1299E-02  0.5398E+00
     18.202  0.1526E-02  0.5399E+00
     18.272  0.1112E-02  0.5399E+00
     18.342  0.6092E-03  0.5400E+00
     18.412  0.2403E-03  0.5400E+00
     18.482  0.5091E-04  0.5400E+00
     18.552  0.4860E-05  0.5400E+00
     18.622  0.1957E-06  0.5400E+00
     18.692  0.3229E-08  0.5400E+00
     18.762  0.2146E-10  0.5400E+00
     18.832  0.5663E-13  0.5400E+00
     18.902  0.5874E-16  0.5400E+00
     18.972  0.1880E-19  0.5400E+00
     19.042  0.0000E+00  0.5400E+00
     19.112  0.0000E+00  0.5400E+00
     19.182  0.0000E+00  0.5400E+00
     19.252  0.0000E+00  0.5400E+00
     19.322  0.0000E+00  0.5400E+00
