 running on   24 total cores
 distrk:  each k-point on   24 cores,    1 groups
 distr:  one band on    8 cores,    3 groups
 using from now: INCAR     
 vasp.5.4.4.18Apr17-6-g9f103f2a35 (build Jan 14 2019 14:48:31) complex          
  
 POSCAR found type information on POSCAR  Au
 POSCAR found :  1 types and       4 ions
 scaLAPACK will be used
 LDA part: xc-table for Pade appr. of Perdew
 POSCAR found type information on POSCAR  Au
 POSCAR found :  1 types and       4 ions
 POSCAR, INCAR and KPOINTS ok, starting setup
 FFT: planning ...
 WAVECAR not read
 entering main loop
       N       E                     dE             d eps       ncg     rms          rms(c)
DAV:   1     0.273997569917E+03    0.27400E+03   -0.22592E+04 91854   0.152E+03
DAV:   2    -0.893133458590E+01   -0.28293E+03   -0.27510E+03105669   0.327E+02
DAV:   3    -0.138638779815E+02   -0.49325E+01   -0.49000E+01101880   0.456E+01
DAV:   4    -0.138927205522E+02   -0.28843E-01   -0.28830E-01104481   0.359E+00
DAV:   5    -0.138930030941E+02   -0.28254E-03   -0.28251E-03107343   0.367E-01    0.163E+01
RMM:   6    -0.128957240850E+02    0.99728E+00   -0.25733E+00 91152   0.105E+01    0.106E+01
RMM:   7    -0.128331084159E+02    0.62616E-01   -0.32883E-01 91209   0.360E+00    0.484E+00
RMM:   8    -0.128243318942E+02    0.87765E-02   -0.16410E-02 91214   0.835E-01    0.558E-01
RMM:   9    -0.128241939169E+02    0.13798E-03   -0.31737E-04 91201   0.102E-01    0.416E-02
RMM:  10    -0.128242083576E+02   -0.14441E-04   -0.19286E-05 91189   0.327E-02    0.303E-02
RMM:  11    -0.128242102411E+02   -0.18836E-05   -0.77234E-07 50626   0.490E-03    0.138E-03
RMM:  12    -0.128242100562E+02    0.18490E-06   -0.16391E-07 48241   0.260E-03
   1 F= -.12824210E+02 E0= -.12821320E+02  d E =-.128242E+02
 curvature:   0.00 expect dE= 0.000E+00 dE for cont linesearch  0.000E+00
 trial: gam= 0.00000 g(F)=  0.461E-14 g(S)=  0.000E+00 ort = 0.000E+00 (trialstep = 0.100E+01)
 search vector abs. value=  0.100E-09
 reached required accuracy - stopping structural energy minimisation
