   4   4   0   0
  0.1854663E+02  0.4201861E-09  0.4201861E-09  0.4201861E-09  0.2000000E-15
  1.000000000000000E-004
  CAR 
 unknown system                          
     18.13854437     -1.86730925  301      8.16055969      1.00000000
     -1.867  0.0000E+00  0.0000E+00
     -1.801  0.0000E+00  0.0000E+00
     -1.734  0.0000E+00  0.0000E+00
     -1.667  0.0000E+00  0.0000E+00
     -1.601  0.0000E+00  0.0000E+00
     -1.534  0.0000E+00  0.0000E+00
     -1.467  0.0000E+00  0.0000E+00
     -1.401  0.2141E-17  0.1428E-18
     -1.334  0.1947E-14  0.1300E-15
     -1.267  0.7573E-12  0.5063E-13
     -1.200  0.1278E-09  0.8574E-11
     -1.134  0.9631E-08  0.6508E-09
     -1.067  0.3370E-06  0.2313E-07
     -1.000  0.5744E-05  0.4062E-06
     -0.934  0.5005E-04  0.3744E-05
     -0.867  0.2327E-03  0.1926E-04
     -0.800  0.6081E-03  0.5981E-04
     -0.734  0.1017E-02  0.1276E-03
     -0.667  0.1424E-02  0.2226E-03
     -0.600  0.1828E-02  0.3445E-03
     -0.534  0.1909E-02  0.4718E-03
     -0.467  0.2070E-02  0.6098E-03
     -0.400  0.2572E-02  0.7813E-03
     -0.334  0.2792E-02  0.9675E-03
     -0.267  0.2871E-02  0.1159E-02
     -0.200  0.2967E-02  0.1357E-02
     -0.133  0.2904E-02  0.1550E-02
     -0.067  0.3416E-02  0.1778E-02
     -0.000  0.4088E-02  0.2051E-02
      0.067  0.4236E-02  0.2333E-02
      0.133  0.3904E-02  0.2594E-02
      0.200  0.3399E-02  0.2820E-02
      0.267  0.4038E-02  0.3090E-02
      0.333  0.5241E-02  0.3439E-02
      0.400  0.5505E-02  0.3806E-02
      0.467  0.5137E-02  0.4149E-02
      0.533  0.4881E-02  0.4474E-02
      0.600  0.5318E-02  0.4829E-02
      0.667  0.5845E-02  0.5219E-02
      0.733  0.5920E-02  0.5614E-02
      0.800  0.6060E-02  0.6018E-02
      0.867  0.6865E-02  0.6475E-02
      0.934  0.8023E-02  0.7010E-02
      1.000  0.7953E-02  0.7541E-02
      1.067  0.7380E-02  0.8033E-02
      1.134  0.7177E-02  0.8511E-02
      1.200  0.8053E-02  0.9048E-02
      1.267  0.1062E-01  0.9757E-02
      1.334  0.1241E-01  0.1058E-01
      1.400  0.1166E-01  0.1136E-01
      1.467  0.1251E-01  0.1220E-01
      1.534  0.1792E-01  0.1339E-01
      1.600  0.2390E-01  0.1498E-01
      1.667  0.2770E-01  0.1683E-01
      1.734  0.2878E-01  0.1875E-01
      1.800  0.2954E-01  0.2072E-01
      1.867  0.3499E-01  0.2305E-01
      1.934  0.4252E-01  0.2589E-01
      2.000  0.4831E-01  0.2911E-01
      2.067  0.5431E-01  0.3273E-01
      2.134  0.6259E-01  0.3691E-01
      2.201  0.7167E-01  0.4169E-01
      2.267  0.7843E-01  0.4692E-01
      2.334  0.8263E-01  0.5243E-01
      2.401  0.8272E-01  0.5794E-01
      2.467  0.8144E-01  0.6337E-01
      2.534  0.7933E-01  0.6866E-01
      2.601  0.7463E-01  0.7364E-01
      2.667  0.7372E-01  0.7856E-01
      2.734  0.7301E-01  0.8343E-01
      2.801  0.6930E-01  0.8805E-01
      2.867  0.6608E-01  0.9245E-01
      2.934  0.5965E-01  0.9643E-01
      3.001  0.5533E-01  0.1001E+00
      3.067  0.5824E-01  0.1040E+00
      3.134  0.6371E-01  0.1083E+00
      3.201  0.7099E-01  0.1130E+00
      3.268  0.7956E-01  0.1183E+00
      3.334  0.8670E-01  0.1241E+00
      3.401  0.9093E-01  0.1301E+00
      3.468  0.9096E-01  0.1362E+00
      3.534  0.8877E-01  0.1421E+00
      3.601  0.9094E-01  0.1482E+00
      3.668  0.9463E-01  0.1545E+00
      3.734  0.9497E-01  0.1608E+00
      3.801  0.9485E-01  0.1672E+00
      3.868  0.9884E-01  0.1738E+00
      3.934  0.1084E+00  0.1810E+00
      4.001  0.1233E+00  0.1892E+00
      4.068  0.1384E+00  0.1984E+00
      4.134  0.1471E+00  0.2082E+00
      4.201  0.1421E+00  0.2177E+00
      4.268  0.1206E+00  0.2258E+00
      4.335  0.9980E-01  0.2324E+00
      4.401  0.8890E-01  0.2383E+00
      4.468  0.8198E-01  0.2438E+00
      4.535  0.7816E-01  0.2490E+00
      4.601  0.7511E-01  0.2540E+00
      4.668  0.7327E-01  0.2589E+00
      4.735  0.7536E-01  0.2639E+00
      4.801  0.8162E-01  0.2694E+00
      4.868  0.9030E-01  0.2754E+00
      4.935  0.9530E-01  0.2818E+00
      5.001  0.9605E-01  0.2882E+00
      5.068  0.9822E-01  0.2947E+00
      5.135  0.9951E-01  0.3014E+00
      5.201  0.9460E-01  0.3077E+00
      5.268  0.8726E-01  0.3135E+00
      5.335  0.8561E-01  0.3192E+00
      5.401  0.8531E-01  0.3249E+00
      5.468  0.8052E-01  0.3302E+00
      5.535  0.7417E-01  0.3352E+00
      5.602  0.7238E-01  0.3400E+00
      5.668  0.7619E-01  0.3451E+00
      5.735  0.7961E-01  0.3504E+00
      5.802  0.7918E-01  0.3557E+00
      5.868  0.8291E-01  0.3612E+00
      5.935  0.9135E-01  0.3673E+00
      6.002  0.9762E-01  0.3738E+00
      6.068  0.1109E+00  0.3812E+00
      6.135  0.1314E+00  0.3900E+00
      6.202  0.1336E+00  0.3989E+00
      6.268  0.1115E+00  0.4063E+00
      6.335  0.8214E-01  0.4118E+00
      6.402  0.5707E-01  0.4156E+00
      6.468  0.4151E-01  0.4184E+00
      6.535  0.3190E-01  0.4205E+00
      6.602  0.2322E-01  0.4221E+00
      6.669  0.1349E-01  0.4230E+00
      6.735  0.7500E-02  0.4235E+00
      6.802  0.7475E-02  0.4240E+00
      6.869  0.1103E-01  0.4247E+00
      6.935  0.1488E-01  0.4257E+00
      7.002  0.1486E-01  0.4267E+00
      7.069  0.1185E-01  0.4275E+00
      7.135  0.9252E-02  0.4281E+00
      7.202  0.8921E-02  0.4287E+00
      7.269  0.1172E-01  0.4295E+00
      7.335  0.1504E-01  0.4305E+00
      7.402  0.1471E-01  0.4314E+00
      7.469  0.1213E-01  0.4322E+00
      7.535  0.9758E-02  0.4329E+00
      7.602  0.8424E-02  0.4335E+00
      7.669  0.9474E-02  0.4341E+00
      7.736  0.1319E-01  0.4350E+00
      7.802  0.1632E-01  0.4361E+00
      7.869  0.1512E-01  0.4371E+00
      7.936  0.1221E-01  0.4379E+00
      8.002  0.1043E-01  0.4386E+00
      8.069  0.9255E-02  0.4392E+00
      8.136  0.8657E-02  0.4398E+00
      8.202  0.9686E-02  0.4404E+00
      8.269  0.1252E-01  0.4413E+00
      8.336  0.1486E-01  0.4422E+00
      8.402  0.1540E-01  0.4433E+00
      8.469  0.1508E-01  0.4443E+00
      8.536  0.1279E-01  0.4451E+00
      8.602  0.8962E-02  0.4457E+00
      8.669  0.7806E-02  0.4463E+00
      8.736  0.9571E-02  0.4469E+00
      8.802  0.1110E-01  0.4476E+00
      8.869  0.1249E-01  0.4485E+00
      8.936  0.1356E-01  0.4494E+00
      9.003  0.1300E-01  0.4502E+00
      9.069  0.1226E-01  0.4511E+00
      9.136  0.1175E-01  0.4518E+00
      9.203  0.1088E-01  0.4526E+00
      9.269  0.1055E-01  0.4533E+00
      9.336  0.1223E-01  0.4541E+00
      9.403  0.1313E-01  0.4550E+00
      9.469  0.1125E-01  0.4557E+00
      9.536  0.1044E-01  0.4564E+00
      9.603  0.1130E-01  0.4572E+00
      9.669  0.1123E-01  0.4579E+00
      9.736  0.1136E-01  0.4587E+00
      9.803  0.1163E-01  0.4594E+00
      9.869  0.1102E-01  0.4602E+00
      9.936  0.1042E-01  0.4609E+00
     10.003  0.1161E-01  0.4616E+00
     10.070  0.1321E-01  0.4625E+00
     10.136  0.1187E-01  0.4633E+00
     10.203  0.9684E-02  0.4640E+00
     10.270  0.9313E-02  0.4646E+00
     10.336  0.1023E-01  0.4653E+00
     10.403  0.1118E-01  0.4660E+00
     10.470  0.1168E-01  0.4668E+00
     10.536  0.1145E-01  0.4675E+00
     10.603  0.1071E-01  0.4683E+00
     10.670  0.9714E-02  0.4689E+00
     10.736  0.1077E-01  0.4696E+00
     10.803  0.1711E-01  0.4708E+00
     10.870  0.2262E-01  0.4723E+00
     10.936  0.2098E-01  0.4737E+00
     11.003  0.1627E-01  0.4748E+00
     11.070  0.1315E-01  0.4756E+00
     11.136  0.1375E-01  0.4766E+00
     11.203  0.1621E-01  0.4776E+00
     11.270  0.1563E-01  0.4787E+00
     11.337  0.1350E-01  0.4796E+00
     11.403  0.1397E-01  0.4805E+00
     11.470  0.1468E-01  0.4815E+00
     11.537  0.1276E-01  0.4823E+00
     11.603  0.9552E-02  0.4830E+00
     11.670  0.7892E-02  0.4835E+00
     11.737  0.9784E-02  0.4842E+00
     11.803  0.1312E-01  0.4850E+00
     11.870  0.1367E-01  0.4859E+00
     11.937  0.1205E-01  0.4867E+00
     12.003  0.1042E-01  0.4874E+00
     12.070  0.9484E-02  0.4881E+00
     12.137  0.8838E-02  0.4887E+00
     12.203  0.8236E-02  0.4892E+00
     12.270  0.9144E-02  0.4898E+00
     12.337  0.1114E-01  0.4906E+00
     12.404  0.1246E-01  0.4914E+00
     12.470  0.1323E-01  0.4923E+00
     12.537  0.1341E-01  0.4932E+00
     12.604  0.1372E-01  0.4941E+00
     12.670  0.1328E-01  0.4950E+00
     12.737  0.1083E-01  0.4957E+00
     12.804  0.1082E-01  0.4964E+00
     12.870  0.1513E-01  0.4974E+00
     12.937  0.1758E-01  0.4986E+00
     13.004  0.1594E-01  0.4997E+00
     13.070  0.1313E-01  0.5005E+00
     13.137  0.1171E-01  0.5013E+00
     13.204  0.1247E-01  0.5022E+00
     13.270  0.1435E-01  0.5031E+00
     13.337  0.1691E-01  0.5042E+00
     13.404  0.1809E-01  0.5054E+00
     13.471  0.1623E-01  0.5065E+00
     13.537  0.1626E-01  0.5076E+00
     13.604  0.1776E-01  0.5088E+00
     13.671  0.1570E-01  0.5098E+00
     13.737  0.1192E-01  0.5106E+00
     13.804  0.9015E-02  0.5112E+00
     13.871  0.7973E-02  0.5118E+00
     13.937  0.9074E-02  0.5124E+00
     14.004  0.1147E-01  0.5131E+00
     14.071  0.1422E-01  0.5141E+00
     14.137  0.1421E-01  0.5150E+00
     14.204  0.1101E-01  0.5158E+00
     14.271  0.9039E-02  0.5164E+00
     14.337  0.8631E-02  0.5169E+00
     14.404  0.8327E-02  0.5175E+00
     14.471  0.1015E-01  0.5182E+00
     14.537  0.1380E-01  0.5191E+00
     14.604  0.1443E-01  0.5201E+00
     14.671  0.1240E-01  0.5209E+00
     14.738  0.1121E-01  0.5216E+00
     14.804  0.1073E-01  0.5224E+00
     14.871  0.1051E-01  0.5231E+00
     14.938  0.1161E-01  0.5238E+00
     15.004  0.1371E-01  0.5247E+00
     15.071  0.1310E-01  0.5256E+00
     15.138  0.9344E-02  0.5262E+00
     15.204  0.7898E-02  0.5268E+00
     15.271  0.9790E-02  0.5274E+00
     15.338  0.1054E-01  0.5281E+00
     15.404  0.9011E-02  0.5287E+00
     15.471  0.8487E-02  0.5293E+00
     15.538  0.1100E-01  0.5300E+00
     15.604  0.1612E-01  0.5311E+00
     15.671  0.1834E-01  0.5323E+00
     15.738  0.1390E-01  0.5332E+00
     15.805  0.9101E-02  0.5339E+00
     15.871  0.8442E-02  0.5344E+00
     15.938  0.8380E-02  0.5350E+00
     16.005  0.7016E-02  0.5354E+00
     16.071  0.6213E-02  0.5359E+00
     16.138  0.7410E-02  0.5363E+00
     16.205  0.1006E-01  0.5370E+00
     16.271  0.9728E-02  0.5377E+00
     16.338  0.5791E-02  0.5381E+00
     16.405  0.2508E-02  0.5382E+00
     16.471  0.1490E-02  0.5383E+00
     16.538  0.2065E-02  0.5385E+00
     16.605  0.2685E-02  0.5386E+00
     16.671  0.3028E-02  0.5388E+00
     16.738  0.3390E-02  0.5391E+00
     16.805  0.3300E-02  0.5393E+00
     16.872  0.2754E-02  0.5395E+00
     16.938  0.2143E-02  0.5396E+00
     17.005  0.1469E-02  0.5397E+00
     17.072  0.1363E-02  0.5398E+00
     17.138  0.1583E-02  0.5399E+00
     17.205  0.1035E-02  0.5400E+00
     17.272  0.3080E-03  0.5400E+00
     17.338  0.4073E-04  0.5400E+00
     17.405  0.2380E-05  0.5400E+00
     17.472  0.6131E-07  0.5400E+00
     17.538  0.6941E-09  0.5400E+00
     17.605  0.3447E-11  0.5400E+00
     17.672  0.7481E-14  0.5400E+00
     17.738  0.7005E-17  0.5400E+00
     17.805  0.0000E+00  0.5400E+00
     17.872  0.0000E+00  0.5400E+00
     17.938  0.0000E+00  0.5400E+00
     18.005  0.0000E+00  0.5400E+00
     18.072  0.0000E+00  0.5400E+00
     18.139  0.0000E+00  0.5400E+00
