       N       E                     dE             d eps       ncg     rms          rms(c)
DAV:   1     0.271148269724E+03    0.27115E+03   -0.22482E+04 91962   0.151E+03
DAV:   2    -0.891019941065E+01   -0.28006E+03   -0.27196E+03105732   0.323E+02
DAV:   3    -0.138601371278E+02   -0.49499E+01   -0.49164E+01101466   0.451E+01
DAV:   4    -0.138899664960E+02   -0.29829E-01   -0.29813E-01104814   0.363E+00
DAV:   5    -0.138902521695E+02   -0.28567E-03   -0.28566E-03107028   0.371E-01    0.144E+01
RMM:   6    -0.129147776431E+02    0.97547E+00   -0.26351E+00 91160   0.106E+01    0.957E+00
RMM:   7    -0.128625531928E+02    0.52224E-01   -0.28009E-01 91232   0.328E+00    0.473E+00
RMM:   8    -0.128555115851E+02    0.70416E-02   -0.11790E-02 91188   0.701E-01    0.516E-01
RMM:   9    -0.128553770686E+02    0.13452E-03   -0.33442E-04 91193   0.105E-01    0.399E-02
RMM:  10    -0.128553949864E+02   -0.17918E-04   -0.21589E-05 91221   0.353E-02    0.264E-02
RMM:  11    -0.128553965063E+02   -0.15199E-05   -0.93918E-07 50661   0.548E-03    0.563E-04
RMM:  12    -0.128553964026E+02    0.10364E-06   -0.13624E-07 43704   0.235E-03
   1 F= -.12855396E+02 E0= -.12853061E+02  d E =-.128554E+02
