   4   4   0   0
  0.1807909E+02  0.4166252E-09  0.4166252E-09  0.4166252E-09  0.2000000E-15
  1.000000000000000E-004
  CAR 
 unknown system                          
     18.67852341     -1.72682567  301      8.55658060      1.00000000
     -1.727  0.0000E+00  0.0000E+00
     -1.659  0.0000E+00  0.0000E+00
     -1.591  0.0000E+00  0.0000E+00
     -1.523  0.0000E+00  0.0000E+00
     -1.455  0.0000E+00  0.0000E+00
     -1.387  0.0000E+00  0.0000E+00
     -1.319  0.4836E-20  0.3290E-21
     -1.251  0.5697E-17  0.3878E-18
     -1.183  0.5210E-14  0.3548E-15
     -1.115  0.1966E-11  0.1341E-12
     -1.047  0.3122E-09  0.2137E-10
     -0.979  0.2155E-07  0.1487E-08
     -0.911  0.6769E-06  0.4753E-07
     -0.843  0.1020E-04  0.7416E-06
     -0.775  0.7782E-04  0.6034E-05
     -0.707  0.3143E-03  0.2741E-04
     -0.639  0.7171E-03  0.7619E-04
     -0.571  0.1101E-02  0.1511E-03
     -0.503  0.1519E-02  0.2544E-03
     -0.434  0.1856E-02  0.3806E-03
     -0.366  0.1860E-02  0.5071E-03
     -0.298  0.2143E-02  0.6529E-03
     -0.230  0.2630E-02  0.8318E-03
     -0.162  0.2740E-02  0.1018E-02
     -0.094  0.2853E-02  0.1212E-02
     -0.026  0.2886E-02  0.1409E-02
      0.042  0.2879E-02  0.1604E-02
      0.110  0.3558E-02  0.1846E-02
      0.178  0.4099E-02  0.2125E-02
      0.246  0.4128E-02  0.2406E-02
      0.314  0.3664E-02  0.2655E-02
      0.382  0.3315E-02  0.2881E-02
      0.450  0.4289E-02  0.3172E-02
      0.518  0.5335E-02  0.3535E-02
      0.586  0.5339E-02  0.3898E-02
      0.654  0.4923E-02  0.4233E-02
      0.722  0.4814E-02  0.4561E-02
      0.790  0.5391E-02  0.4927E-02
      0.858  0.5796E-02  0.5322E-02
      0.926  0.5818E-02  0.5717E-02
      0.994  0.6045E-02  0.6129E-02
      1.062  0.7057E-02  0.6609E-02
      1.130  0.8042E-02  0.7156E-02
      1.198  0.7659E-02  0.7676E-02
      1.266  0.7158E-02  0.8163E-02
      1.334  0.7098E-02  0.8646E-02
      1.402  0.8456E-02  0.9221E-02
      1.470  0.1121E-01  0.9983E-02
      1.538  0.1230E-01  0.1082E-01
      1.606  0.1136E-01  0.1159E-01
      1.674  0.1367E-01  0.1252E-01
      1.742  0.1994E-01  0.1388E-01
      1.810  0.2525E-01  0.1560E-01
      1.878  0.2792E-01  0.1750E-01
      1.946  0.2832E-01  0.1942E-01
      2.014  0.3042E-01  0.2149E-01
      2.082  0.3737E-01  0.2403E-01
      2.150  0.4426E-01  0.2704E-01
      2.218  0.4952E-01  0.3041E-01
      2.286  0.5569E-01  0.3420E-01
      2.354  0.6421E-01  0.3857E-01
      2.422  0.7240E-01  0.4349E-01
      2.490  0.7801E-01  0.4880E-01
      2.558  0.8048E-01  0.5427E-01
      2.626  0.7949E-01  0.5968E-01
      2.694  0.7861E-01  0.6502E-01
      2.762  0.7529E-01  0.7015E-01
      2.830  0.7113E-01  0.7498E-01
      2.898  0.7166E-01  0.7986E-01
      2.966  0.6990E-01  0.8461E-01
      3.034  0.6628E-01  0.8912E-01
      3.102  0.6300E-01  0.9341E-01
      3.170  0.5586E-01  0.9720E-01
      3.238  0.5309E-01  0.1008E+00
      3.306  0.5698E-01  0.1047E+00
      3.375  0.6238E-01  0.1089E+00
      3.443  0.6936E-01  0.1137E+00
      3.511  0.7734E-01  0.1189E+00
      3.579  0.8341E-01  0.1246E+00
      3.647  0.8696E-01  0.1305E+00
      3.715  0.8668E-01  0.1364E+00
      3.783  0.8430E-01  0.1421E+00
      3.851  0.8679E-01  0.1480E+00
      3.919  0.9070E-01  0.1542E+00
      3.987  0.9110E-01  0.1604E+00
      4.055  0.9049E-01  0.1666E+00
      4.123  0.9366E-01  0.1729E+00
      4.191  0.1022E+00  0.1799E+00
      4.259  0.1157E+00  0.1877E+00
      4.327  0.1297E+00  0.1966E+00
      4.395  0.1395E+00  0.2061E+00
      4.463  0.1399E+00  0.2156E+00
      4.531  0.1226E+00  0.2239E+00
      4.599  0.1002E+00  0.2307E+00
      4.667  0.8813E-01  0.2367E+00
      4.735  0.8032E-01  0.2422E+00
      4.803  0.7540E-01  0.2473E+00
      4.871  0.7271E-01  0.2523E+00
      4.939  0.7029E-01  0.2570E+00
      5.007  0.7051E-01  0.2618E+00
      5.075  0.7443E-01  0.2669E+00
      5.143  0.8213E-01  0.2725E+00
      5.211  0.8966E-01  0.2786E+00
      5.279  0.9080E-01  0.2848E+00
      5.347  0.9146E-01  0.2910E+00
      5.415  0.9517E-01  0.2975E+00
      5.483  0.9474E-01  0.3039E+00
      5.551  0.8736E-01  0.3098E+00
      5.619  0.8160E-01  0.3154E+00
      5.687  0.8205E-01  0.3210E+00
      5.755  0.8070E-01  0.3265E+00
      5.823  0.7468E-01  0.3315E+00
      5.891  0.6874E-01  0.3362E+00
      5.959  0.6897E-01  0.3409E+00
      6.027  0.7391E-01  0.3459E+00
      6.095  0.7669E-01  0.3511E+00
      6.163  0.7481E-01  0.3562E+00
      6.231  0.7856E-01  0.3616E+00
      6.299  0.8718E-01  0.3675E+00
      6.367  0.9237E-01  0.3738E+00
      6.435  0.1046E+00  0.3809E+00
      6.503  0.1258E+00  0.3895E+00
      6.571  0.1296E+00  0.3983E+00
      6.639  0.1090E+00  0.4057E+00
      6.707  0.8170E-01  0.4112E+00
      6.775  0.5750E-01  0.4152E+00
      6.843  0.4316E-01  0.4181E+00
      6.911  0.3478E-01  0.4205E+00
      6.979  0.2493E-01  0.4221E+00
      7.047  0.1322E-01  0.4230E+00
      7.115  0.6833E-02  0.4235E+00
      7.184  0.6865E-02  0.4240E+00
      7.252  0.1016E-01  0.4247E+00
      7.320  0.1461E-01  0.4257E+00
      7.388  0.1571E-01  0.4267E+00
      7.456  0.1251E-01  0.4276E+00
      7.524  0.9067E-02  0.4282E+00
      7.592  0.8491E-02  0.4288E+00
      7.660  0.1108E-01  0.4295E+00
      7.728  0.1431E-01  0.4305E+00
      7.796  0.1434E-01  0.4315E+00
      7.864  0.1209E-01  0.4323E+00
      7.932  0.1017E-01  0.4330E+00
      8.000  0.9487E-02  0.4336E+00
      8.068  0.1025E-01  0.4343E+00
      8.136  0.1214E-01  0.4352E+00
      8.204  0.1437E-01  0.4361E+00
      8.272  0.1420E-01  0.4371E+00
      8.340  0.1235E-01  0.4379E+00
      8.408  0.1102E-01  0.4387E+00
      8.476  0.9489E-02  0.4393E+00
      8.544  0.8168E-02  0.4399E+00
      8.612  0.9289E-02  0.4405E+00
      8.680  0.1297E-01  0.4414E+00
      8.748  0.1540E-01  0.4425E+00
      8.816  0.1546E-01  0.4435E+00
      8.884  0.1464E-01  0.4445E+00
      8.952  0.1147E-01  0.4453E+00
      9.020  0.7404E-02  0.4458E+00
      9.088  0.7292E-02  0.4463E+00
      9.156  0.9822E-02  0.4470E+00
      9.224  0.1166E-01  0.4477E+00
      9.292  0.1327E-01  0.4486E+00
      9.360  0.1343E-01  0.4496E+00
      9.428  0.1260E-01  0.4504E+00
      9.496  0.1235E-01  0.4513E+00
      9.564  0.1122E-01  0.4520E+00
      9.632  0.1031E-01  0.4527E+00
      9.700  0.1103E-01  0.4535E+00
      9.768  0.1229E-01  0.4543E+00
      9.836  0.1185E-01  0.4551E+00
      9.904  0.1016E-01  0.4558E+00
      9.972  0.1042E-01  0.4565E+00
     10.040  0.1185E-01  0.4573E+00
     10.108  0.1182E-01  0.4581E+00
     10.176  0.1137E-01  0.4589E+00
     10.244  0.1070E-01  0.4596E+00
     10.312  0.9836E-02  0.4603E+00
     10.380  0.9844E-02  0.4610E+00
     10.448  0.1195E-01  0.4618E+00
     10.516  0.1361E-01  0.4627E+00
     10.584  0.1172E-01  0.4635E+00
     10.652  0.9342E-02  0.4641E+00
     10.720  0.9139E-02  0.4648E+00
     10.788  0.9286E-02  0.4654E+00
     10.856  0.9684E-02  0.4660E+00
     10.924  0.1116E-01  0.4668E+00
     10.993  0.1189E-01  0.4676E+00
     11.061  0.1093E-01  0.4684E+00
     11.129  0.8896E-02  0.4690E+00
     11.197  0.8452E-02  0.4695E+00
     11.265  0.1318E-01  0.4704E+00
     11.333  0.2088E-01  0.4719E+00
     11.401  0.2278E-01  0.4734E+00
     11.469  0.1834E-01  0.4747E+00
     11.537  0.1401E-01  0.4756E+00
     11.605  0.1322E-01  0.4765E+00
     11.673  0.1472E-01  0.4775E+00
     11.741  0.1527E-01  0.4785E+00
     11.809  0.1448E-01  0.4795E+00
     11.877  0.1447E-01  0.4805E+00
     11.945  0.1463E-01  0.4815E+00
     12.013  0.1288E-01  0.4824E+00
     12.081  0.9665E-02  0.4830E+00
     12.149  0.7377E-02  0.4835E+00
     12.217  0.9485E-02  0.4842E+00
     12.285  0.1369E-01  0.4851E+00
     12.353  0.1340E-01  0.4860E+00
     12.421  0.1100E-01  0.4868E+00
     12.489  0.1074E-01  0.4875E+00
     12.557  0.1072E-01  0.4882E+00
     12.625  0.9330E-02  0.4889E+00
     12.693  0.8192E-02  0.4894E+00
     12.761  0.8851E-02  0.4900E+00
     12.829  0.1045E-01  0.4907E+00
     12.897  0.1214E-01  0.4916E+00
     12.965  0.1361E-01  0.4925E+00
     13.033  0.1387E-01  0.4934E+00
     13.101  0.1352E-01  0.4944E+00
     13.169  0.1220E-01  0.4952E+00
     13.237  0.1029E-01  0.4959E+00
     13.305  0.1195E-01  0.4967E+00
     13.373  0.1585E-01  0.4978E+00
     13.441  0.1757E-01  0.4990E+00
     13.509  0.1512E-01  0.5000E+00
     13.577  0.1117E-01  0.5008E+00
     13.645  0.1036E-01  0.5015E+00
     13.713  0.1252E-01  0.5023E+00
     13.781  0.1542E-01  0.5034E+00
     13.849  0.1706E-01  0.5045E+00
     13.917  0.1690E-01  0.5057E+00
     13.985  0.1596E-01  0.5068E+00
     14.053  0.1710E-01  0.5079E+00
     14.121  0.1710E-01  0.5091E+00
     14.189  0.1422E-01  0.5101E+00
     14.257  0.1146E-01  0.5108E+00
     14.325  0.9025E-02  0.5114E+00
     14.393  0.7979E-02  0.5120E+00
     14.461  0.9478E-02  0.5126E+00
     14.529  0.1252E-01  0.5135E+00
     14.597  0.1478E-01  0.5145E+00
     14.665  0.1267E-01  0.5154E+00
     14.733  0.9122E-02  0.5160E+00
     14.802  0.8230E-02  0.5165E+00
     14.870  0.8325E-02  0.5171E+00
     14.938  0.8930E-02  0.5177E+00
     15.006  0.1150E-01  0.5185E+00
     15.074  0.1399E-01  0.5194E+00
     15.142  0.1328E-01  0.5203E+00
     15.210  0.1144E-01  0.5211E+00
     15.278  0.1021E-01  0.5218E+00
     15.346  0.1001E-01  0.5225E+00
     15.414  0.1115E-01  0.5233E+00
     15.482  0.1313E-01  0.5242E+00
     15.550  0.1449E-01  0.5251E+00
     15.618  0.1173E-01  0.5259E+00
     15.686  0.7833E-02  0.5265E+00
     15.754  0.8233E-02  0.5270E+00
     15.822  0.1049E-01  0.5277E+00
     15.890  0.1016E-01  0.5284E+00
     15.958  0.8469E-02  0.5290E+00
     16.026  0.8769E-02  0.5296E+00
     16.094  0.1274E-01  0.5305E+00
     16.162  0.1759E-01  0.5317E+00
     16.230  0.1637E-01  0.5328E+00
     16.298  0.1083E-01  0.5335E+00
     16.366  0.8515E-02  0.5341E+00
     16.434  0.8680E-02  0.5347E+00
     16.502  0.7575E-02  0.5352E+00
     16.570  0.6274E-02  0.5356E+00
     16.638  0.6498E-02  0.5361E+00
     16.706  0.8661E-02  0.5367E+00
     16.774  0.1034E-01  0.5374E+00
     16.842  0.7979E-02  0.5379E+00
     16.910  0.3840E-02  0.5382E+00
     16.978  0.1585E-02  0.5383E+00
     17.046  0.1640E-02  0.5384E+00
     17.114  0.2477E-02  0.5386E+00
     17.182  0.2841E-02  0.5387E+00
     17.250  0.3142E-02  0.5390E+00
     17.318  0.3328E-02  0.5392E+00
     17.386  0.2944E-02  0.5394E+00
     17.454  0.2375E-02  0.5396E+00
     17.522  0.1749E-02  0.5397E+00
     17.590  0.1292E-02  0.5398E+00
     17.658  0.1536E-02  0.5399E+00
     17.726  0.1366E-02  0.5400E+00
     17.794  0.5582E-03  0.5400E+00
     17.862  0.9787E-04  0.5400E+00
     17.930  0.7272E-05  0.5400E+00
     17.998  0.2272E-06  0.5400E+00
     18.066  0.2964E-08  0.5400E+00
     18.134  0.1606E-10  0.5400E+00
     18.202  0.3600E-13  0.5400E+00
     18.270  0.3329E-16  0.5400E+00
     18.338  0.0000E+00  0.5400E+00
     18.406  0.0000E+00  0.5400E+00
     18.474  0.0000E+00  0.5400E+00
     18.542  0.0000E+00  0.5400E+00
     18.611  0.0000E+00  0.5400E+00
     18.679  0.0000E+00  0.5400E+00
