       N       E                     dE             d eps       ncg     rms          rms(c)
DAV:   1     0.273118711776E+03    0.27312E+03   -0.22574E+04 92097   0.152E+03
DAV:   2    -0.894224956340E+01   -0.28206E+03   -0.27416E+03105354   0.326E+02
DAV:   3    -0.139031284443E+02   -0.49609E+01   -0.49295E+01101610   0.454E+01
DAV:   4    -0.139328087676E+02   -0.29680E-01   -0.29662E-01104967   0.362E+00
DAV:   5    -0.139330892288E+02   -0.28046E-03   -0.28043E-03106758   0.366E-01    0.156E+01
RMM:   6    -0.129518071219E+02    0.98128E+00   -0.25773E+00 91156   0.105E+01    0.102E+01
RMM:   7    -0.128934949805E+02    0.58312E-01   -0.30911E-01 91196   0.348E+00    0.478E+00
RMM:   8    -0.128855022381E+02    0.79927E-02   -0.13945E-02 91212   0.764E-01    0.525E-01
RMM:   9    -0.128853874571E+02    0.11478E-03   -0.26371E-04 91189   0.909E-02    0.397E-02
RMM:  10    -0.128854029697E+02   -0.15513E-04   -0.17401E-05 90854   0.327E-02    0.318E-02
RMM:  11    -0.128854048859E+02   -0.19161E-05   -0.63821E-07 50259   0.455E-03    0.663E-04
RMM:  12    -0.128854048052E+02    0.80708E-07   -0.12364E-07 42009   0.222E-03
   1 F= -.12885405E+02 E0= -.12883300E+02  d E =-.128854E+02
