   4   4   0   0
  0.2451480E+02  0.4611365E-09  0.4611364E-09  0.4611364E-09  0.2000000E-15
  1.000000000000000E-004
  CAR 
 unknown system                          
     13.13841108     -3.10634871  301      4.50994953      1.00000000
     -3.106  0.0000E+00  0.0000E+00
     -3.052  0.0000E+00  0.0000E+00
     -2.998  0.0000E+00  0.0000E+00
     -2.944  0.0000E+00  0.0000E+00
     -2.890  0.0000E+00  0.0000E+00
     -2.836  0.0000E+00  0.0000E+00
     -2.781  0.0000E+00  0.0000E+00
     -2.727  0.0000E+00  0.0000E+00
     -2.673  0.6075E-19  0.3290E-20
     -2.619  0.2510E-16  0.1363E-17
     -2.565  0.5620E-14  0.3057E-15
     -2.511  0.7228E-12  0.3945E-13
     -2.457  0.5395E-10  0.2961E-11
     -2.402  0.2365E-08  0.1310E-09
     -2.348  0.6181E-07  0.3478E-08
     -2.294  0.9779E-06  0.5643E-07
     -2.240  0.9519E-05  0.5719E-06
     -2.186  0.5795E-04  0.3710E-05
     -2.132  0.2252E-03  0.1591E-04
     -2.078  0.5806E-03  0.4735E-04
     -2.023  0.1073E-02  0.1055E-03
     -1.969  0.1600E-02  0.1921E-03
     -1.915  0.2077E-02  0.3046E-03
     -1.861  0.2380E-02  0.4335E-03
     -1.807  0.2635E-02  0.5762E-03
     -1.753  0.3048E-02  0.7412E-03
     -1.698  0.3415E-02  0.9261E-03
     -1.644  0.3599E-02  0.1121E-02
     -1.590  0.3694E-02  0.1321E-02
     -1.536  0.3822E-02  0.1528E-02
     -1.482  0.4275E-02  0.1759E-02
     -1.428  0.4895E-02  0.2024E-02
     -1.374  0.5138E-02  0.2303E-02
     -1.319  0.4884E-02  0.2567E-02
     -1.265  0.4663E-02  0.2820E-02
     -1.211  0.5221E-02  0.3102E-02
     -1.157  0.6208E-02  0.3438E-02
     -1.103  0.6640E-02  0.3798E-02
     -1.049  0.6460E-02  0.4148E-02
     -0.995  0.6338E-02  0.4491E-02
     -0.940  0.6678E-02  0.4853E-02
     -0.886  0.7115E-02  0.5238E-02
     -0.832  0.7356E-02  0.5636E-02
     -0.778  0.7807E-02  0.6059E-02
     -0.724  0.8769E-02  0.6534E-02
     -0.670  0.9610E-02  0.7054E-02
     -0.615  0.9603E-02  0.7574E-02
     -0.561  0.9207E-02  0.8073E-02
     -0.507  0.9340E-02  0.8578E-02
     -0.453  0.1077E-01  0.9162E-02
     -0.399  0.1312E-01  0.9872E-02
     -0.345  0.1450E-01  0.1066E-01
     -0.291  0.1487E-01  0.1146E-01
     -0.236  0.1722E-01  0.1239E-01
     -0.182  0.2282E-01  0.1363E-01
     -0.128  0.2949E-01  0.1523E-01
     -0.074  0.3472E-01  0.1711E-01
     -0.020  0.3757E-01  0.1914E-01
      0.034  0.4037E-01  0.2133E-01
      0.088  0.4621E-01  0.2383E-01
      0.143  0.5510E-01  0.2681E-01
      0.197  0.6659E-01  0.3042E-01
      0.251  0.8137E-01  0.3483E-01
      0.305  0.9785E-01  0.4012E-01
      0.359  0.1120E+00  0.4619E-01
      0.413  0.1208E+00  0.5273E-01
      0.467  0.1231E+00  0.5939E-01
      0.522  0.1204E+00  0.6591E-01
      0.576  0.1156E+00  0.7217E-01
      0.630  0.1106E+00  0.7816E-01
      0.684  0.1060E+00  0.8390E-01
      0.738  0.1008E+00  0.8935E-01
      0.792  0.9507E-01  0.9450E-01
      0.847  0.9089E-01  0.9942E-01
      0.901  0.9307E-01  0.1045E+00
      0.955  0.1040E+00  0.1101E+00
      1.009  0.1220E+00  0.1167E+00
      1.063  0.1415E+00  0.1244E+00
      1.117  0.1542E+00  0.1327E+00
      1.171  0.1571E+00  0.1412E+00
      1.226  0.1553E+00  0.1496E+00
      1.280  0.1549E+00  0.1580E+00
      1.334  0.1586E+00  0.1666E+00
      1.388  0.1701E+00  0.1758E+00
      1.442  0.1917E+00  0.1862E+00
      1.496  0.2150E+00  0.1978E+00
      1.550  0.2200E+00  0.2098E+00
      1.605  0.1994E+00  0.2206E+00
      1.659  0.1683E+00  0.2297E+00
      1.713  0.1437E+00  0.2375E+00
      1.767  0.1325E+00  0.2446E+00
      1.821  0.1317E+00  0.2518E+00
      1.875  0.1361E+00  0.2591E+00
      1.930  0.1431E+00  0.2669E+00
      1.984  0.1510E+00  0.2750E+00
      2.038  0.1594E+00  0.2837E+00
      2.092  0.1666E+00  0.2927E+00
      2.146  0.1667E+00  0.3017E+00
      2.200  0.1582E+00  0.3103E+00
      2.254  0.1472E+00  0.3183E+00
      2.309  0.1398E+00  0.3258E+00
      2.363  0.1362E+00  0.3332E+00
      2.417  0.1349E+00  0.3405E+00
      2.471  0.1360E+00  0.3479E+00
      2.525  0.1421E+00  0.3556E+00
      2.579  0.1567E+00  0.3641E+00
      2.633  0.1773E+00  0.3737E+00
      2.688  0.1949E+00  0.3842E+00
      2.742  0.1961E+00  0.3948E+00
      2.796  0.1717E+00  0.4041E+00
      2.850  0.1276E+00  0.4110E+00
      2.904  0.7908E-01  0.4153E+00
      2.958  0.4239E-01  0.4176E+00
      3.013  0.2473E-01  0.4190E+00
      3.067  0.1995E-01  0.4200E+00
      3.121  0.1733E-01  0.4210E+00
      3.175  0.1326E-01  0.4217E+00
      3.229  0.1070E-01  0.4223E+00
      3.283  0.1208E-01  0.4229E+00
      3.337  0.1578E-01  0.4238E+00
      3.392  0.1767E-01  0.4247E+00
      3.446  0.1602E-01  0.4256E+00
      3.500  0.1284E-01  0.4263E+00
      3.554  0.1082E-01  0.4269E+00
      3.608  0.1140E-01  0.4275E+00
      3.662  0.1411E-01  0.4283E+00
      3.716  0.1626E-01  0.4291E+00
      3.771  0.1587E-01  0.4300E+00
      3.825  0.1402E-01  0.4308E+00
      3.879  0.1226E-01  0.4314E+00
      3.933  0.1106E-01  0.4320E+00
      3.987  0.1144E-01  0.4326E+00
      4.041  0.1353E-01  0.4334E+00
      4.095  0.1528E-01  0.4342E+00
      4.150  0.1531E-01  0.4350E+00
      4.204  0.1426E-01  0.4358E+00
      4.258  0.1326E-01  0.4365E+00
      4.312  0.1250E-01  0.4372E+00
      4.366  0.1216E-01  0.4379E+00
      4.420  0.1339E-01  0.4386E+00
      4.475  0.1557E-01  0.4394E+00
      4.529  0.1604E-01  0.4403E+00
      4.583  0.1441E-01  0.4411E+00
      4.637  0.1272E-01  0.4418E+00
      4.691  0.1231E-01  0.4424E+00
      4.745  0.1288E-01  0.4431E+00
      4.799  0.1396E-01  0.4439E+00
      4.854  0.1504E-01  0.4447E+00
      4.908  0.1482E-01  0.4455E+00
      4.962  0.1388E-01  0.4463E+00
      5.016  0.1390E-01  0.4470E+00
      5.070  0.1472E-01  0.4478E+00
      5.124  0.1567E-01  0.4487E+00
      5.178  0.1564E-01  0.4495E+00
      5.233  0.1431E-01  0.4503E+00
      5.287  0.1378E-01  0.4510E+00
      5.341  0.1513E-01  0.4518E+00
      5.395  0.1610E-01  0.4527E+00
      5.449  0.1537E-01  0.4535E+00
      5.503  0.1492E-01  0.4543E+00
      5.558  0.1531E-01  0.4552E+00
      5.612  0.1483E-01  0.4560E+00
      5.666  0.1367E-01  0.4567E+00
      5.720  0.1301E-01  0.4574E+00
      5.774  0.1358E-01  0.4582E+00
      5.828  0.1562E-01  0.4590E+00
      5.882  0.1764E-01  0.4600E+00
      5.937  0.1784E-01  0.4609E+00
      5.991  0.1645E-01  0.4618E+00
      6.045  0.1561E-01  0.4627E+00
      6.099  0.1712E-01  0.4636E+00
      6.153  0.1981E-01  0.4647E+00
      6.207  0.2158E-01  0.4658E+00
      6.261  0.2246E-01  0.4670E+00
      6.316  0.2186E-01  0.4682E+00
      6.370  0.1875E-01  0.4692E+00
      6.424  0.1548E-01  0.4701E+00
      6.478  0.1506E-01  0.4709E+00
      6.532  0.1677E-01  0.4718E+00
      6.586  0.1784E-01  0.4728E+00
      6.641  0.1761E-01  0.4737E+00
      6.695  0.1735E-01  0.4747E+00
      6.749  0.1726E-01  0.4756E+00
      6.803  0.1612E-01  0.4765E+00
      6.857  0.1453E-01  0.4773E+00
      6.911  0.1463E-01  0.4781E+00
      6.965  0.1599E-01  0.4789E+00
      7.020  0.1595E-01  0.4798E+00
      7.074  0.1359E-01  0.4805E+00
      7.128  0.1111E-01  0.4811E+00
      7.182  0.1087E-01  0.4817E+00
      7.236  0.1191E-01  0.4824E+00
      7.290  0.1236E-01  0.4830E+00
      7.344  0.1210E-01  0.4837E+00
      7.399  0.1197E-01  0.4843E+00
      7.453  0.1200E-01  0.4850E+00
      7.507  0.1170E-01  0.4856E+00
      7.561  0.1109E-01  0.4862E+00
      7.615  0.9994E-02  0.4868E+00
      7.669  0.9130E-02  0.4872E+00
      7.723  0.9727E-02  0.4878E+00
      7.778  0.1063E-01  0.4884E+00
      7.832  0.1005E-01  0.4889E+00
      7.886  0.9164E-02  0.4894E+00
      7.940  0.9990E-02  0.4899E+00
      7.994  0.1200E-01  0.4906E+00
      8.048  0.1274E-01  0.4913E+00
      8.103  0.1125E-01  0.4919E+00
      8.157  0.9779E-02  0.4924E+00
      8.211  0.9883E-02  0.4929E+00
      8.265  0.1041E-01  0.4935E+00
      8.319  0.1097E-01  0.4941E+00
      8.373  0.1311E-01  0.4948E+00
      8.427  0.1758E-01  0.4958E+00
      8.482  0.2262E-01  0.4970E+00
      8.536  0.2469E-01  0.4983E+00
      8.590  0.2305E-01  0.4996E+00
      8.644  0.2031E-01  0.5007E+00
      8.698  0.1764E-01  0.5016E+00
      8.752  0.1566E-01  0.5025E+00
      8.806  0.1573E-01  0.5033E+00
      8.861  0.1715E-01  0.5043E+00
      8.915  0.1745E-01  0.5052E+00
      8.969  0.1588E-01  0.5061E+00
      9.023  0.1442E-01  0.5068E+00
      9.077  0.1467E-01  0.5076E+00
      9.131  0.1524E-01  0.5085E+00
      9.186  0.1456E-01  0.5093E+00
      9.240  0.1386E-01  0.5100E+00
      9.294  0.1512E-01  0.5108E+00
      9.348  0.1727E-01  0.5118E+00
      9.402  0.1812E-01  0.5127E+00
      9.456  0.1849E-01  0.5137E+00
      9.510  0.2008E-01  0.5148E+00
      9.565  0.2110E-01  0.5160E+00
      9.619  0.1810E-01  0.5169E+00
      9.673  0.1203E-01  0.5176E+00
      9.727  0.8305E-02  0.5181E+00
      9.781  0.9647E-02  0.5186E+00
      9.835  0.1266E-01  0.5193E+00
      9.889  0.1345E-01  0.5200E+00
      9.944  0.1303E-01  0.5207E+00
      9.998  0.1362E-01  0.5214E+00
     10.052  0.1425E-01  0.5222E+00
     10.106  0.1382E-01  0.5230E+00
     10.160  0.1334E-01  0.5237E+00
     10.214  0.1315E-01  0.5244E+00
     10.269  0.1262E-01  0.5251E+00
     10.323  0.1217E-01  0.5257E+00
     10.377  0.1217E-01  0.5264E+00
     10.431  0.1194E-01  0.5270E+00
     10.485  0.1101E-01  0.5276E+00
     10.539  0.9994E-02  0.5282E+00
     10.593  0.1018E-01  0.5287E+00
     10.648  0.1245E-01  0.5294E+00
     10.702  0.1663E-01  0.5303E+00
     10.756  0.2020E-01  0.5314E+00
     10.810  0.1985E-01  0.5325E+00
     10.864  0.1587E-01  0.5333E+00
     10.918  0.1164E-01  0.5340E+00
     10.972  0.9297E-02  0.5345E+00
     11.027  0.8339E-02  0.5349E+00
     11.081  0.7702E-02  0.5353E+00
     11.135  0.7691E-02  0.5357E+00
     11.189  0.8791E-02  0.5362E+00
     11.243  0.9901E-02  0.5368E+00
     11.297  0.9189E-02  0.5373E+00
     11.351  0.6488E-02  0.5376E+00
     11.406  0.3733E-02  0.5378E+00
     11.460  0.2546E-02  0.5379E+00
     11.514  0.2869E-02  0.5381E+00
     11.568  0.3766E-02  0.5383E+00
     11.622  0.4528E-02  0.5385E+00
     11.676  0.5125E-02  0.5388E+00
     11.731  0.5194E-02  0.5391E+00
     11.785  0.4295E-02  0.5393E+00
     11.839  0.3052E-02  0.5395E+00
     11.893  0.2077E-02  0.5396E+00
     11.947  0.1555E-02  0.5397E+00
     12.001  0.1620E-02  0.5398E+00
     12.055  0.1732E-02  0.5399E+00
     12.110  0.1293E-02  0.5400E+00
     12.164  0.6192E-03  0.5400E+00
     12.218  0.1988E-03  0.5400E+00
     12.272  0.4609E-04  0.5400E+00
     12.326  0.7886E-05  0.5400E+00
     12.380  0.9323E-06  0.5400E+00
     12.434  0.6969E-07  0.5400E+00
     12.489  0.3104E-08  0.5400E+00
     12.543  0.7994E-10  0.5400E+00
     12.597  0.1173E-11  0.5400E+00
     12.651  0.9736E-14  0.5400E+00
     12.705  0.4547E-16  0.5400E+00
     12.759  0.1215E-18  0.5400E+00
     12.814  0.0000E+00  0.5400E+00
     12.868  0.0000E+00  0.5400E+00
     12.922  0.0000E+00  0.5400E+00
     12.976  0.0000E+00  0.5400E+00
     13.030  0.0000E+00  0.5400E+00
     13.084  0.0000E+00  0.5400E+00
     13.138  0.0000E+00  0.5400E+00
