       N       E                     dE             d eps       ncg     rms          rms(c)
DAV:   1     0.252245457353E+03    0.25225E+03   -0.21495E+04 91656   0.146E+03
DAV:   2    -0.614944186940E+01   -0.25839E+03   -0.24853E+03108252   0.294E+02
DAV:   3    -0.115836095937E+02   -0.54342E+01   -0.53722E+01102114   0.431E+01
DAV:   4    -0.116260548069E+02   -0.42445E-01   -0.42420E-01102411   0.414E+00
DAV:   5    -0.116265788599E+02   -0.52405E-03   -0.52402E-03107217   0.459E-01    0.661E+00
RMM:   6    -0.108872911850E+02    0.73929E+00   -0.25549E+00 91172   0.981E+00    0.528E+00
RMM:   7    -0.108792369415E+02    0.80542E-02   -0.10114E-01 91352   0.171E+00    0.347E+00
RMM:   8    -0.108800268278E+02   -0.78989E-03   -0.67386E-03 91176   0.604E-01    0.352E-01
RMM:   9    -0.108797284733E+02    0.29835E-03   -0.97001E-04 91226   0.181E-01    0.592E-02
RMM:  10    -0.108797851042E+02   -0.56631E-04   -0.14310E-04 91174   0.788E-02    0.133E-02
RMM:  11    -0.108797851193E+02   -0.15088E-07   -0.39957E-06 60010   0.102E-02
   1 F= -.10879785E+02 E0= -.10875791E+02  d E =-.108798E+02
