 running on   24 total cores
 distrk:  each k-point on   24 cores,    1 groups
 distr:  one band on    8 cores,    3 groups
 using from now: INCAR     
 vasp.5.4.4.18Apr17-6-g9f103f2a35 (build Jan 14 2019 14:48:31) complex          
  
 POSCAR found type information on POSCAR  Au
 POSCAR found :  1 types and       4 ions
 scaLAPACK will be used
 LDA part: xc-table for Pade appr. of Perdew
 POSCAR found type information on POSCAR  Au
 POSCAR found :  1 types and       4 ions
 POSCAR, INCAR and KPOINTS ok, starting setup
 FFT: planning ...
 WAVECAR not read
 entering main loop
       N       E                     dE             d eps       ncg     rms          rms(c)
DAV:   1     0.252245457353E+03    0.25225E+03   -0.21495E+04 91656   0.146E+03
DAV:   2    -0.614944186940E+01   -0.25839E+03   -0.24853E+03108252   0.294E+02
DAV:   3    -0.115836095937E+02   -0.54342E+01   -0.53722E+01102114   0.431E+01
DAV:   4    -0.116260548069E+02   -0.42445E-01   -0.42420E-01102411   0.414E+00
DAV:   5    -0.116265788599E+02   -0.52405E-03   -0.52402E-03107217   0.459E-01    0.661E+00
RMM:   6    -0.108872911850E+02    0.73929E+00   -0.25549E+00 91172   0.981E+00    0.528E+00
RMM:   7    -0.108792369415E+02    0.80542E-02   -0.10114E-01 91352   0.171E+00    0.347E+00
RMM:   8    -0.108800268278E+02   -0.78989E-03   -0.67386E-03 91176   0.604E-01    0.352E-01
RMM:   9    -0.108797284733E+02    0.29835E-03   -0.97001E-04 91226   0.181E-01    0.592E-02
RMM:  10    -0.108797851042E+02   -0.56631E-04   -0.14310E-04 91174   0.788E-02    0.133E-02
RMM:  11    -0.108797851193E+02   -0.15088E-07   -0.39957E-06 60010   0.102E-02
   1 F= -.10879785E+02 E0= -.10875791E+02  d E =-.108798E+02
 curvature:   0.00 expect dE= 0.000E+00 dE for cont linesearch  0.000E+00
 trial: gam= 0.00000 g(F)=  0.221E-13 g(S)=  0.000E+00 ort = 0.000E+00 (trialstep = 0.100E+01)
 search vector abs. value=  0.100E-09
 reached required accuracy - stopping structural energy minimisation
