   4   4   0   0
  0.1902216E+02  0.4237470E-09  0.4237470E-09  0.4237470E-09  0.2000000E-15
  1.000000000000000E-004
  CAR 
 unknown system                          
     17.69960025     -2.00156537  301      7.78030752      1.00000000
     -2.002  0.0000E+00  0.0000E+00
     -1.936  0.0000E+00  0.0000E+00
     -1.870  0.0000E+00  0.0000E+00
     -1.805  0.0000E+00  0.0000E+00
     -1.739  0.0000E+00  0.0000E+00
     -1.673  0.0000E+00  0.0000E+00
     -1.608  0.0000E+00  0.0000E+00
     -1.542  0.1002E-17  0.6579E-19
     -1.476  0.9068E-15  0.5962E-16
     -1.411  0.3599E-12  0.2369E-13
     -1.345  0.6344E-10  0.4190E-11
     -1.279  0.5098E-08  0.3390E-09
     -1.214  0.1934E-06  0.1304E-07
     -1.148  0.3618E-05  0.2507E-06
     -1.082  0.3488E-04  0.2541E-05
     -1.017  0.1805E-03  0.1439E-04
     -0.951  0.5246E-03  0.4884E-04
     -0.885  0.9508E-03  0.1113E-03
     -0.819  0.1361E-02  0.2007E-03
     -0.754  0.1794E-02  0.3185E-03
     -0.688  0.1953E-02  0.4467E-03
     -0.622  0.2058E-02  0.5818E-03
     -0.557  0.2531E-02  0.7480E-03
     -0.491  0.2834E-02  0.9341E-03
     -0.425  0.2912E-02  0.1125E-02
     -0.360  0.3026E-02  0.1324E-02
     -0.294  0.2971E-02  0.1519E-02
     -0.228  0.3374E-02  0.1741E-02
     -0.163  0.4089E-02  0.2009E-02
     -0.097  0.4320E-02  0.2293E-02
     -0.031  0.4054E-02  0.2559E-02
      0.034  0.3525E-02  0.2791E-02
      0.100  0.3985E-02  0.3052E-02
      0.166  0.5206E-02  0.3394E-02
      0.231  0.5616E-02  0.3763E-02
      0.297  0.5294E-02  0.4111E-02
      0.363  0.4993E-02  0.4439E-02
      0.428  0.5354E-02  0.4790E-02
      0.494  0.5912E-02  0.5178E-02
      0.560  0.6026E-02  0.5574E-02
      0.625  0.6154E-02  0.5978E-02
      0.691  0.6907E-02  0.6432E-02
      0.757  0.8072E-02  0.6962E-02
      0.822  0.8121E-02  0.7495E-02
      0.888  0.7548E-02  0.7991E-02
      0.954  0.7312E-02  0.8471E-02
      1.019  0.8089E-02  0.9002E-02
      1.085  0.1057E-01  0.9696E-02
      1.151  0.1248E-01  0.1052E-01
      1.216  0.1187E-01  0.1130E-01
      1.282  0.1240E-01  0.1211E-01
      1.348  0.1741E-01  0.1325E-01
      1.413  0.2350E-01  0.1480E-01
      1.479  0.2779E-01  0.1662E-01
      1.545  0.2929E-01  0.1855E-01
      1.610  0.2983E-01  0.2050E-01
      1.676  0.3467E-01  0.2278E-01
      1.742  0.4225E-01  0.2556E-01
      1.807  0.4844E-01  0.2874E-01
      1.873  0.5480E-01  0.3233E-01
      1.939  0.6341E-01  0.3650E-01
      2.004  0.7298E-01  0.4129E-01
      2.070  0.8025E-01  0.4656E-01
      2.136  0.8509E-01  0.5215E-01
      2.201  0.8563E-01  0.5777E-01
      2.267  0.8417E-01  0.6330E-01
      2.333  0.8200E-01  0.6868E-01
      2.398  0.7745E-01  0.7377E-01
      2.464  0.7620E-01  0.7877E-01
      2.530  0.7512E-01  0.8371E-01
      2.595  0.7143E-01  0.8840E-01
      2.661  0.6775E-01  0.9285E-01
      2.727  0.6120E-01  0.9687E-01
      2.792  0.5783E-01  0.1007E+00
      2.858  0.6124E-01  0.1047E+00
      2.924  0.6735E-01  0.1091E+00
      2.989  0.7563E-01  0.1141E+00
      3.055  0.8485E-01  0.1196E+00
      3.121  0.9217E-01  0.1257E+00
      3.186  0.9577E-01  0.1320E+00
      3.252  0.9466E-01  0.1382E+00
      3.318  0.9353E-01  0.1443E+00
      3.383  0.9672E-01  0.1507E+00
      3.449  0.9916E-01  0.1572E+00
      3.515  0.9891E-01  0.1637E+00
      3.580  0.1007E+00  0.1703E+00
      3.646  0.1077E+00  0.1774E+00
      3.712  0.1209E+00  0.1853E+00
      3.777  0.1383E+00  0.1944E+00
      3.843  0.1514E+00  0.2044E+00
      3.909  0.1516E+00  0.2143E+00
      3.974  0.1337E+00  0.2231E+00
      4.040  0.1098E+00  0.2303E+00
      4.106  0.9509E-01  0.2366E+00
      4.171  0.8714E-01  0.2423E+00
      4.237  0.8285E-01  0.2477E+00
      4.303  0.7951E-01  0.2529E+00
      4.368  0.7699E-01  0.2580E+00
      4.434  0.7855E-01  0.2632E+00
      4.500  0.8490E-01  0.2687E+00
      4.565  0.9371E-01  0.2749E+00
      4.631  0.9956E-01  0.2814E+00
      4.697  0.1015E+00  0.2881E+00
      4.763  0.1034E+00  0.2949E+00
      4.828  0.1035E+00  0.3017E+00
      4.894  0.9814E-01  0.3081E+00
      4.960  0.9123E-01  0.3141E+00
      5.025  0.8970E-01  0.3200E+00
      5.091  0.8870E-01  0.3258E+00
      5.157  0.8340E-01  0.3313E+00
      5.222  0.7772E-01  0.3364E+00
      5.288  0.7717E-01  0.3415E+00
      5.354  0.8097E-01  0.3468E+00
      5.419  0.8313E-01  0.3523E+00
      5.485  0.8435E-01  0.3578E+00
      5.551  0.9134E-01  0.3638E+00
      5.616  0.9930E-01  0.3703E+00
      5.682  0.1087E+00  0.3775E+00
      5.748  0.1279E+00  0.3858E+00
      5.813  0.1409E+00  0.3951E+00
      5.879  0.1277E+00  0.4035E+00
      5.945  0.9795E-01  0.4099E+00
      6.010  0.6814E-01  0.4144E+00
      6.076  0.4687E-01  0.4175E+00
      6.142  0.3374E-01  0.4197E+00
      6.207  0.2528E-01  0.4213E+00
      6.273  0.1725E-01  0.4225E+00
      6.339  0.1011E-01  0.4231E+00
      6.404  0.7693E-02  0.4237E+00
      6.470  0.9979E-02  0.4243E+00
      6.536  0.1416E-01  0.4252E+00
      6.601  0.1527E-01  0.4262E+00
      6.667  0.1235E-01  0.4271E+00
      6.733  0.9647E-02  0.4277E+00
      6.798  0.9081E-02  0.4283E+00
      6.864  0.1090E-01  0.4290E+00
      6.930  0.1449E-01  0.4299E+00
      6.995  0.1569E-01  0.4310E+00
      7.061  0.1333E-01  0.4319E+00
      7.127  0.1081E-01  0.4326E+00
      7.192  0.8847E-02  0.4331E+00
      7.258  0.8255E-02  0.4337E+00
      7.324  0.1045E-01  0.4344E+00
      7.389  0.1536E-01  0.4354E+00
      7.455  0.1767E-01  0.4365E+00
      7.521  0.1466E-01  0.4375E+00
      7.586  0.1128E-01  0.4382E+00
      7.652  0.9428E-02  0.4389E+00
      7.718  0.8441E-02  0.4394E+00
      7.783  0.9336E-02  0.4400E+00
      7.849  0.1191E-01  0.4408E+00
      7.915  0.1371E-01  0.4417E+00
      7.980  0.1462E-01  0.4427E+00
      8.046  0.1496E-01  0.4437E+00
      8.112  0.1427E-01  0.4446E+00
      8.177  0.1195E-01  0.4454E+00
      8.243  0.9462E-02  0.4460E+00
      8.309  0.9362E-02  0.4466E+00
      8.374  0.1048E-01  0.4473E+00
      8.440  0.1150E-01  0.4481E+00
      8.506  0.1250E-01  0.4489E+00
      8.571  0.1313E-01  0.4497E+00
      8.637  0.1299E-01  0.4506E+00
      8.703  0.1235E-01  0.4514E+00
      8.768  0.1147E-01  0.4522E+00
      8.834  0.1075E-01  0.4529E+00
      8.900  0.1125E-01  0.4536E+00
      8.965  0.1295E-01  0.4545E+00
      9.031  0.1331E-01  0.4553E+00
      9.097  0.1186E-01  0.4561E+00
      9.162  0.1099E-01  0.4568E+00
      9.228  0.1047E-01  0.4575E+00
      9.294  0.1071E-01  0.4582E+00
      9.359  0.1156E-01  0.4590E+00
      9.425  0.1207E-01  0.4598E+00
      9.491  0.1201E-01  0.4606E+00
      9.556  0.1191E-01  0.4613E+00
      9.622  0.1250E-01  0.4622E+00
      9.688  0.1200E-01  0.4630E+00
      9.753  0.1018E-01  0.4636E+00
      9.819  0.9258E-02  0.4642E+00
      9.885  0.1038E-01  0.4649E+00
      9.950  0.1246E-01  0.4657E+00
     10.016  0.1302E-01  0.4666E+00
     10.082  0.1190E-01  0.4674E+00
     10.147  0.1063E-01  0.4681E+00
     10.213  0.1065E-01  0.4688E+00
     10.279  0.1344E-01  0.4696E+00
     10.344  0.1862E-01  0.4709E+00
     10.410  0.2141E-01  0.4723E+00
     10.476  0.1989E-01  0.4736E+00
     10.542  0.1635E-01  0.4747E+00
     10.607  0.1365E-01  0.4755E+00
     10.673  0.1381E-01  0.4765E+00
     10.739  0.1582E-01  0.4775E+00
     10.804  0.1594E-01  0.4785E+00
     10.870  0.1369E-01  0.4794E+00
     10.936  0.1363E-01  0.4803E+00
     11.001  0.1486E-01  0.4813E+00
     11.067  0.1319E-01  0.4822E+00
     11.133  0.9957E-02  0.4828E+00
     11.198  0.8244E-02  0.4834E+00
     11.264  0.9794E-02  0.4840E+00
     11.330  0.1239E-01  0.4848E+00
     11.395  0.1312E-01  0.4857E+00
     11.461  0.1282E-01  0.4865E+00
     11.527  0.1132E-01  0.4873E+00
     11.592  0.9134E-02  0.4879E+00
     11.658  0.8122E-02  0.4884E+00
     11.724  0.7946E-02  0.4889E+00
     11.789  0.9049E-02  0.4895E+00
     11.855  0.1129E-01  0.4903E+00
     11.921  0.1287E-01  0.4911E+00
     11.986  0.1313E-01  0.4920E+00
     12.052  0.1318E-01  0.4928E+00
     12.118  0.1359E-01  0.4937E+00
     12.183  0.1335E-01  0.4946E+00
     12.249  0.1197E-01  0.4954E+00
     12.315  0.1106E-01  0.4961E+00
     12.380  0.1351E-01  0.4970E+00
     12.446  0.1701E-01  0.4981E+00
     12.512  0.1676E-01  0.4992E+00
     12.577  0.1450E-01  0.5002E+00
     12.643  0.1320E-01  0.5010E+00
     12.709  0.1304E-01  0.5019E+00
     12.774  0.1377E-01  0.5028E+00
     12.840  0.1607E-01  0.5039E+00
     12.906  0.1863E-01  0.5051E+00
     12.971  0.1777E-01  0.5063E+00
     13.037  0.1610E-01  0.5073E+00
     13.103  0.1699E-01  0.5084E+00
     13.168  0.1656E-01  0.5095E+00
     13.234  0.1279E-01  0.5104E+00
     13.300  0.9258E-02  0.5110E+00
     13.365  0.8181E-02  0.5115E+00
     13.431  0.9117E-02  0.5121E+00
     13.497  0.1091E-01  0.5128E+00
     13.562  0.1327E-01  0.5137E+00
     13.628  0.1467E-01  0.5146E+00
     13.694  0.1292E-01  0.5155E+00
     13.759  0.1045E-01  0.5162E+00
     13.825  0.9299E-02  0.5168E+00
     13.891  0.8303E-02  0.5173E+00
     13.956  0.9039E-02  0.5179E+00
     14.022  0.1287E-01  0.5188E+00
     14.088  0.1505E-01  0.5198E+00
     14.153  0.1358E-01  0.5207E+00
     14.219  0.1208E-01  0.5215E+00
     14.285  0.1141E-01  0.5222E+00
     14.350  0.1035E-01  0.5229E+00
     14.416  0.1054E-01  0.5236E+00
     14.482  0.1272E-01  0.5244E+00
     14.547  0.1353E-01  0.5253E+00
     14.613  0.1078E-01  0.5260E+00
     14.679  0.8321E-02  0.5265E+00
     14.744  0.9302E-02  0.5272E+00
     14.810  0.1062E-01  0.5279E+00
     14.876  0.9437E-02  0.5285E+00
     14.941  0.8356E-02  0.5290E+00
     15.007  0.1011E-01  0.5297E+00
     15.073  0.1462E-01  0.5307E+00
     15.138  0.1861E-01  0.5319E+00
     15.204  0.1655E-01  0.5330E+00
     15.270  0.1075E-01  0.5337E+00
     15.335  0.8282E-02  0.5342E+00
     15.401  0.8688E-02  0.5348E+00
     15.467  0.7954E-02  0.5353E+00
     15.532  0.6566E-02  0.5357E+00
     15.598  0.6612E-02  0.5362E+00
     15.664  0.8884E-02  0.5368E+00
     15.729  0.1026E-01  0.5374E+00
     15.795  0.7391E-02  0.5379E+00
     15.861  0.3655E-02  0.5382E+00
     15.926  0.1893E-02  0.5383E+00
     15.992  0.1900E-02  0.5384E+00
     16.058  0.2471E-02  0.5386E+00
     16.124  0.2772E-02  0.5387E+00
     16.189  0.3245E-02  0.5390E+00
     16.255  0.3533E-02  0.5392E+00
     16.321  0.3116E-02  0.5394E+00
     16.386  0.2453E-02  0.5396E+00
     16.452  0.1784E-02  0.5397E+00
     16.518  0.1366E-02  0.5398E+00
     16.583  0.1513E-02  0.5399E+00
     16.649  0.1297E-02  0.5399E+00
     16.715  0.6083E-03  0.5400E+00
     16.780  0.1715E-03  0.5400E+00
     16.846  0.3351E-04  0.5400E+00
     16.912  0.4157E-05  0.5400E+00
     16.977  0.2700E-06  0.5400E+00
     17.043  0.8226E-08  0.5400E+00
     17.109  0.1123E-09  0.5400E+00
     17.174  0.6726E-12  0.5400E+00
     17.240  0.1748E-14  0.5400E+00
     17.306  0.1944E-17  0.5400E+00
     17.371  0.0000E+00  0.5400E+00
     17.437  0.0000E+00  0.5400E+00
     17.503  0.0000E+00  0.5400E+00
     17.568  0.0000E+00  0.5400E+00
     17.634  0.0000E+00  0.5400E+00
     17.700  0.0000E+00  0.5400E+00
