    4    4  100    1
  0.1902216E+02  0.4237470E-09  0.4237470E-09  0.4237470E-09  0.2000000E-15
  1.000000000000000E-004
  CAR 
 unknown system                          
     44   1688     27
 
  0.0000000E+00  0.0000000E+00  0.0000000E+00  0.2962963E-03
    1       -1.001565   1.000000
    2        1.636567   1.000000
    3        1.636567   1.000000
    4        1.636568   1.000000
    5        1.894050   1.000000
    6        1.894050   1.000000
    7        1.894050   1.000000
    8        3.602457   1.000000
    9        3.602457   1.000000
   10        3.602458   1.000000
   11        4.849716   1.000000
   12        4.849716   1.000000
   13        5.798608   1.000000
   14        5.798608   1.000000
   15        5.798609   1.000000
   16        6.099922   1.000000
   17        6.099923   1.000000
   18        6.099924   1.000000
   19        6.099924   1.000000
   20        6.099925   1.000000
   21        6.099925   1.000000
   22        9.070852   0.000000
   23        9.070854   0.000000
   24        9.070854   0.000000
   25       12.682895   0.000000
   26       12.682897   0.000000
   27       12.682897   0.000000
 
  0.6666667E-01  0.1723946E-25 -0.2067952E-24  0.5925926E-03
    1       -0.954465   1.000000
    2        1.651316   1.000000
    3        1.666738   1.000000
    4        1.666739   1.000000
    5        1.910109   1.000000
    6        1.918396   1.000000
    7        1.918396   1.000000
    8        3.580442   1.000000
    9        3.622128   1.000000
   10        3.622128   1.000000
   11        4.826508   1.000000
   12        4.859319   1.000000
   13        5.765817   1.000000
   14        5.765817   1.000000
   15        5.787397   1.000000
   16        5.958361   1.000000
   17        5.958361   1.000000
   18        6.059438   1.000000
   19        6.059438   1.000000
   20        6.099997   1.000000
   21        6.099999   1.000000
   22        8.656569   0.000000
   23        9.247530   0.000000
   24        9.247530   0.000000
   25       12.644878   0.000000
   26       12.644879   0.000000
   27       13.179560   0.000000
 
  0.1333333E+00  0.3447935E-25 -0.4135903E-24  0.5925926E-03
    1       -0.814039   1.000000
    2        1.692189   1.000000
    3        1.755221   1.000000
    4        1.755222   1.000000
    5        1.957839   1.000000
    6        1.991348   1.000000
    7        1.991348   1.000000
    8        3.515921   1.000000
    9        3.680840   1.000000
   10        3.680841   1.000000
   11        4.758733   1.000000
   12        4.887852   1.000000
   13        5.608593   1.000000
   14        5.608593   1.000000
   15        5.669103   1.000000
   16        5.669104   1.000000
   17        5.754313   1.000000
   18        5.942697   1.000000
   19        5.942697   1.000000
   20        6.100174   1.000000
   21        6.100176   1.000000
   22        7.782827   0.485788
   23        9.701851   0.000000
   24        9.701852   0.000000
   25       12.539135   0.000000
   26       12.539136   0.000000
   27       14.302884   0.000000
 
  0.2000000E+00  0.1551164E-24 -0.4135903E-24  0.5925926E-03
    1       -0.583397   1.000000
    2        1.748194   1.000000
    3        1.895582   1.000000
    4        1.895583   1.000000
    5        2.035945   1.000000
    6        2.112722   1.000000
    7        2.112722   1.000000
    8        3.413162   1.000000
    9        3.777726   1.000000
   10        3.777727   1.000000
   11        4.652541   1.000000
   12        4.934203   1.000000
   13        5.166842   1.000000
   14        5.166842   1.000000
   15        5.514574   1.000000
   16        5.514575   1.000000
   17        5.701159   1.000000
   18        5.762743   1.000000
   19        5.762743   1.000000
   20        6.100411   1.000000
   21        6.100412   1.000000
   22        6.821968   1.000000
   23       10.315587   0.000000
   24       10.315587   0.000000
   25       12.388266   0.000000
   26       12.388267   0.000000
   27       15.688704   0.000000
 
  0.2666667E+00  0.6895825E-25 -0.8271806E-24  0.5925926E-03
    1       -0.268718   1.000000
    2        1.796569   1.000000
    3        2.075535   1.000000
    4        2.075536   1.000000
    5        2.142141   1.000000
    6        2.282278   1.000000
    7        2.282278   1.000000
    8        3.278849   1.000000
    9        3.911516   1.000000
   10        3.911516   1.000000
   11        4.519009   1.000000
   12        4.701986   1.000000
   13        4.701986   1.000000
   14        4.996782   1.000000
   15        5.315395   1.000000
   16        5.315396   1.000000
   17        5.536999   1.000000
   18        5.536999   1.000000
   19        5.630804   1.000000
   20        5.916481   1.000000
   21        6.100712   1.000000
   22        6.100713   1.000000
   23       11.016238   0.000000
   24       11.016238   0.000000
   25       12.222646   0.000000
   26       12.222647   0.000000
   27       16.159342   0.000000
 
  0.3333333E+00  0.1895953E-24  0.8271806E-24  0.5925926E-03
    1        0.118947   1.000000
    2        1.796156   1.000000
    3        2.273347   1.000000
    4        2.273891   1.000000
    5        2.273891   1.000000
    6        2.499467   1.000000
    7        2.499467   1.000000
    8        3.121062   1.000000
    9        4.080119   1.000000
   10        4.080119   1.000000
   11        4.247198   1.000000
   12        4.247198   1.000000
   13        4.375966   1.000000
   14        5.073350   1.000000
   15        5.095695   1.000000
   16        5.095696   1.000000
   17        5.145029   1.000000
   18        5.283642   1.000000
   19        5.283642   1.000000
   20        5.546877   1.000000
   21        6.101029   1.000000
   22        6.101031   1.000000
   23       11.765534   0.000000
   24       11.765534   0.000000
   25       12.072138   0.000000
   26       12.072139   0.000000
   27       15.533958   0.000000
 
  0.4000000E+00  0.3102328E-24 -0.8271806E-24  0.5925926E-03
    1        0.559078   1.000000
    2        1.685084   1.000000
    3        2.425321   1.000000
    4        2.455578   1.000000
    5        2.455579   1.000000
    6        2.763373   1.000000
    7        2.763373   1.000000
    8        2.948413   1.000000
    9        3.818821   1.000000
   10        3.818821   1.000000
   11        4.251635   1.000000
   12        4.280387   1.000000
   13        4.280388   1.000000
   14        4.581009   1.000000
   15        4.895336   1.000000
   16        4.895338   1.000000
   17        5.019041   1.000000
   18        5.019041   1.000000
   19        5.160934   1.000000
   20        5.453497   1.000000
   21        6.101258   1.000000
   22        6.101260   1.000000
   23       11.959963   0.000000
   24       11.959964   0.000000
   25       12.540025   0.000000
   26       12.540025   0.000000
   27       14.837660   0.000000
 
  0.4666667E+00  0.4308698E-24 -0.8271806E-24  0.5925926E-03
    1        1.013252   1.000000
    2        1.415158   1.000000
    3        2.569787   1.000000
    4        2.569788   1.000000
    5        2.592853   1.000000
    6        2.769641   1.000000
    7        3.072748   1.000000
    8        3.072748   1.000000
    9        3.425584   1.000000
   10        3.425584   1.000000
   11        4.192795   1.000000
   12        4.273833   1.000000
   13        4.508026   1.000000
   14        4.508026   1.000000
   15        4.756966   1.000000
   16        4.756966   1.000000
   17        4.770107   1.000000
   18        4.770108   1.000000
   19        5.256189   1.000000
   20        5.355124   1.000000
   21        6.101379   1.000000
   22        6.101380   1.000000
   23       11.900584   0.000000
   24       11.900585   0.000000
   25       13.321662   0.000000
   26       13.321663   0.000000
   27       14.093525   0.000000
 
  0.5292868E-26  0.6666667E-01 -0.1240771E-23  0.5925926E-03
    1       -0.954465   1.000000
    2        1.651316   1.000000
    3        1.666738   1.000000
    4        1.666739   1.000000
    5        1.910109   1.000000
    6        1.918396   1.000000
    7        1.918396   1.000000
    8        3.580443   1.000000
    9        3.622127   1.000000
   10        3.622128   1.000000
   11        4.826509   1.000000
   12        4.859318   1.000000
   13        5.765816   1.000000
   14        5.765818   1.000000
   15        5.787397   1.000000
   16        5.958362   1.000000
   17        5.958362   1.000000
   18        6.059437   1.000000
   19        6.059438   1.000000
   20        6.099996   1.000000
   21        6.099999   1.000000
   22        8.656570   0.000000
   23        9.247528   0.000000
   24        9.247530   0.000000
   25       12.644877   0.000000
   26       12.644878   0.000000
   27       13.179562   0.000000
 
  0.6666667E-01  0.6666667E-01 -0.6203855E-24  0.5925926E-03
    1       -0.907621   1.000000
    2        1.681664   1.000000
    3        1.681665   1.000000
    4        1.694257   1.000000
    5        1.934259   1.000000
    6        1.934259   1.000000
    7        1.944543   1.000000
    8        3.571152   1.000000
    9        3.629459   1.000000
   10        3.640716   1.000000
   11        4.820095   1.000000
   12        4.853456   1.000000
   13        5.734244   1.000000
   14        5.743120   1.000000
   15        5.743121   1.000000
   16        5.855823   1.000000
   17        5.923996   1.000000
   18        5.923996   1.000000
   19        6.059417   1.000000
   20        6.059417   1.000000
   21        6.073171   1.000000
   22        8.829861   0.000000
   23        8.829863   0.000000
   24        9.412179   0.000000
   25       12.603570   0.000000
   26       13.145572   0.000000
   27       13.145574   0.000000
 
  0.1333333E+00  0.6666667E-01 -0.1033976E-24  0.5925926E-03
    1       -0.768131   1.000000
    2        1.723132   1.000000
    3        1.770730   1.000000
    4        1.774951   1.000000
    5        1.981378   1.000000
    6        2.006602   1.000000
    7        2.022908   1.000000
    8        3.513842   1.000000
    9        3.682007   1.000000
   10        3.696019   1.000000
   11        4.760403   1.000000
   12        4.878042   1.000000
   13        5.508520   1.000000
   14        5.543506   1.000000
   15        5.640983   1.000000
   16        5.660248   1.000000
   17        5.706584   1.000000
   18        5.838103   1.000000
   19        5.942487   1.000000
   20        6.059042   1.000000
   21        6.059352   1.000000
   22        7.969340   0.003755
   23        9.260832   0.000000
   24        9.843787   0.000000
   25       12.487782   0.000000
   26       13.054877   0.000000
   27       14.258665   0.000000
 
  0.2000000E+00  0.6666667E-01 -0.1033976E-24  0.5925926E-03
    1       -0.539006   1.000000
    2        1.780100   1.000000
    3        1.903385   1.000000
    4        1.912149   1.000000
    5        2.058496   1.000000
    6        2.126968   1.000000
    7        2.152127   1.000000
    8        3.414333   1.000000
    9        3.777472   1.000000
   10        3.786402   1.000000
   11        4.658980   1.000000
   12        4.927451   1.000000
   13        5.081295   1.000000
   14        5.125560   1.000000
   15        5.480359   1.000000
   16        5.491551   1.000000
   17        5.539237   1.000000
   18        5.740056   1.000000
   19        5.762258   1.000000
   20        6.055806   1.000000
   21        6.059256   1.000000
   22        7.054710   1.000000
   23        9.813424   0.000000
   24       10.437928   0.000000
   25       12.319964   0.000000
   26       12.940769   0.000000
   27       15.608324   0.000000
 
  0.2666667E+00  0.6666667E-01  0.0000000E+00  0.5925926E-03
    1       -0.226440   1.000000
    2        1.829776   1.000000
    3        2.071094   1.000000
    4        2.093723   1.000000
    5        2.163373   1.000000
    6        2.295018   1.000000
    7        2.327940   1.000000
    8        3.282806   1.000000
    9        3.907281   1.000000
   10        3.910721   1.000000
   11        4.534673   1.000000
   12        4.623892   1.000000
   13        4.676769   1.000000
   14        4.995278   1.000000
   15        5.188285   1.000000
   16        5.298357   1.000000
   17        5.339871   1.000000
   18        5.536248   1.000000
   19        5.631416   1.000000
   20        6.055237   1.000000
   21        6.059069   1.000000
   22        6.257860   1.000000
   23       10.392955   0.000000
   24       11.124407   0.000000
   25       12.130263   0.000000
   26       12.858191   0.000000
   27       15.672420   0.000000
 
  0.3333333E+00  0.6666667E-01  0.4135903E-24  0.5925926E-03
    1        0.158591   1.000000
    2        1.830482   1.000000
    3        2.264654   1.000000
    4        2.292825   1.000000
    5        2.294305   1.000000
    6        2.510154   1.000000
    7        2.541541   1.000000
    8        3.127804   1.000000
    9        4.040962   1.000000
   10        4.079068   1.000000
   11        4.178474   1.000000
   12        4.233134   1.000000
   13        4.421047   1.000000
   14        4.789811   1.000000
   15        5.078723   1.000000
   16        5.085074   1.000000
   17        5.120440   1.000000
   18        5.282652   1.000000
   19        5.451789   1.000000
   20        5.731992   1.000000
   21        6.055553   1.000000
   22        6.058749   1.000000
   23       10.914773   0.000000
   24       11.863802   0.000000
   25       11.947026   0.000000
   26       12.886299   0.000000
   27       15.184918   0.000000
 
  0.4000000E+00  0.6666667E-01 -0.1654361E-23  0.5925926E-03
    1        0.595911   1.000000
    2        1.719517   1.000000
    3        2.442696   1.000000
    4        2.455738   1.000000
    5        2.478525   1.000000
    6        2.771386   1.000000
    7        2.784534   1.000000
    8        2.958020   1.000000
    9        3.762958   1.000000
   10        3.812830   1.000000
   11        4.108897   1.000000
   12        4.279195   1.000000
   13        4.393007   1.000000
   14        4.421415   1.000000
   15        4.891810   1.000000
   16        4.917320   1.000000
   17        5.017903   1.000000
   18        5.141182   1.000000
   19        5.174942   1.000000
   20        5.522819   1.000000
   21        6.056225   1.000000
   22        6.058300   1.000000
   23       11.291704   0.000000
   24       11.787764   0.000000
   25       12.631468   0.000000
   26       13.112738   0.000000
   27       14.652205   0.000000
 
  0.4666667E+00  0.6666667E-01 -0.8271806E-24  0.5925926E-03
    1        1.047810   1.000000
    2        1.449013   1.000000
    3        2.585765   1.000000
    4        2.593207   1.000000
    5        2.607850   1.000000
    6        2.782034   1.000000
    7        3.062193   1.000000
    8        3.077284   1.000000
    9        3.388188   1.000000
   10        3.425606   1.000000
   11        4.091887   1.000000
   12        4.153770   1.000000
   13        4.506770   1.000000
   14        4.595826   1.000000
   15        4.755720   1.000000
   16        4.775311   1.000000
   17        4.784980   1.000000
   18        4.845592   1.000000
   19        5.281061   1.000000
   20        5.395258   1.000000
   21        6.056973   1.000000
   22        6.057688   1.000000
   23       11.510291   0.000000
   24       11.651828   0.000000
   25       13.408577   0.000000
   26       13.545489   0.000000
   27       14.089715   0.000000
 
 -0.4666667E+00  0.6666667E-01  0.1654361E-23  0.5925926E-03
    1        1.047810   1.000000
    2        1.449013   1.000000
    3        2.585765   1.000000
    4        2.593207   1.000000
    5        2.607850   1.000000
    6        2.782034   1.000000
    7        3.062193   1.000000
    8        3.077284   1.000000
    9        3.388188   1.000000
   10        3.425606   1.000000
   11        4.091887   1.000000
   12        4.153770   1.000000
   13        4.506771   1.000000
   14        4.595826   1.000000
   15        4.755720   1.000000
   16        4.775311   1.000000
   17        4.784980   1.000000
   18        4.845592   1.000000
   19        5.281061   1.000000
   20        5.395258   1.000000
   21        6.056973   1.000000
   22        6.057688   1.000000
   23       11.510291   0.000000
   24       11.651828   0.000000
   25       13.408577   0.000000
   26       13.545490   0.000000
   27       14.090480   0.000000
 
 -0.4000000E+00  0.6666667E-01  0.0000000E+00  0.5925926E-03
    1        0.595911   1.000000
    2        1.719517   1.000000
    3        2.442696   1.000000
    4        2.455738   1.000000
    5        2.478525   1.000000
    6        2.771386   1.000000
    7        2.784534   1.000000
    8        2.958020   1.000000
    9        3.762958   1.000000
   10        3.812830   1.000000
   11        4.108897   1.000000
   12        4.279195   1.000000
   13        4.393007   1.000000
   14        4.421415   1.000000
   15        4.891810   1.000000
   16        4.917320   1.000000
   17        5.017903   1.000000
   18        5.141182   1.000000
   19        5.174942   1.000000
   20        5.522819   1.000000
   21        6.056225   1.000000
   22        6.058300   1.000000
   23       11.291704   0.000000
   24       11.787763   0.000000
   25       12.631468   0.000000
   26       13.112738   0.000000
   27       14.652132   0.000000
 
 -0.3333333E+00  0.6666667E-01 -0.1654361E-23  0.5925926E-03
    1        0.158591   1.000000
    2        1.830482   1.000000
    3        2.264654   1.000000
    4        2.292825   1.000000
    5        2.294305   1.000000
    6        2.510154   1.000000
    7        2.541541   1.000000
    8        3.127804   1.000000
    9        4.040962   1.000000
   10        4.079068   1.000000
   11        4.178474   1.000000
   12        4.233134   1.000000
   13        4.421047   1.000000
   14        4.789811   1.000000
   15        5.078723   1.000000
   16        5.085074   1.000000
   17        5.120440   1.000000
   18        5.282652   1.000000
   19        5.451789   1.000000
   20        5.731992   1.000000
   21        6.055553   1.000000
   22        6.058749   1.000000
   23       10.914773   0.000000
   24       11.863802   0.000000
   25       11.947026   0.000000
   26       12.886299   0.000000
   27       15.184508   0.000000
 
 -0.2666667E+00  0.6666667E-01  0.0000000E+00  0.5925926E-03
    1       -0.226440   1.000000
    2        1.829776   1.000000
    3        2.071094   1.000000
    4        2.093723   1.000000
    5        2.163373   1.000000
    6        2.295018   1.000000
    7        2.327940   1.000000
    8        3.282806   1.000000
    9        3.907281   1.000000
   10        3.910721   1.000000
   11        4.534673   1.000000
   12        4.623892   1.000000
   13        4.676769   1.000000
   14        4.995278   1.000000
   15        5.188285   1.000000
   16        5.298357   1.000000
   17        5.339871   1.000000
   18        5.536248   1.000000
   19        5.631416   1.000000
   20        6.055237   1.000000
   21        6.059069   1.000000
   22        6.257860   1.000000
   23       10.392955   0.000000
   24       11.124407   0.000000
   25       12.130263   0.000000
   26       12.858191   0.000000
   27       15.672424   0.000000
 
 -0.2000000E+00  0.6666667E-01  0.0000000E+00  0.5925926E-03
    1       -0.539006   1.000000
    2        1.780100   1.000000
    3        1.903385   1.000000
    4        1.912149   1.000000
    5        2.058496   1.000000
    6        2.126968   1.000000
    7        2.152127   1.000000
    8        3.414333   1.000000
    9        3.777472   1.000000
   10        3.786402   1.000000
   11        4.658980   1.000000
   12        4.927451   1.000000
   13        5.081295   1.000000
   14        5.125560   1.000000
   15        5.480359   1.000000
   16        5.491551   1.000000
   17        5.539237   1.000000
   18        5.740056   1.000000
   19        5.762258   1.000000
   20        6.055806   1.000000
   21        6.059256   1.000000
   22        7.054710   1.000000
   23        9.813424   0.000000
   24       10.437928   0.000000
   25       12.319964   0.000000
   26       12.940769   0.000000
   27       15.608209   0.000000
 
 -0.1333333E+00  0.6666667E-01  0.0000000E+00  0.5925926E-03
    1       -0.768131   1.000000
    2        1.723132   1.000000
    3        1.770730   1.000000
    4        1.774951   1.000000
    5        1.981378   1.000000
    6        2.006602   1.000000
    7        2.022908   1.000000
    8        3.513842   1.000000
    9        3.682007   1.000000
   10        3.696019   1.000000
   11        4.760403   1.000000
   12        4.878042   1.000000
   13        5.508520   1.000000
   14        5.543506   1.000000
   15        5.640983   1.000000
   16        5.660248   1.000000
   17        5.706584   1.000000
   18        5.838103   1.000000
   19        5.942487   1.000000
   20        6.059042   1.000000
   21        6.059352   1.000000
   22        7.969340   0.003755
   23        9.260832   0.000000
   24        9.843787   0.000000
   25       12.487782   0.000000
   26       13.054877   0.000000
   27       14.258665   0.000000
 
 -0.6666667E-01  0.6666667E-01 -0.8271806E-24  0.5925926E-03
    1       -0.907621   1.000000
    2        1.681664   1.000000
    3        1.681665   1.000000
    4        1.694257   1.000000
    5        1.934259   1.000000
    6        1.934259   1.000000
    7        1.944543   1.000000
    8        3.571152   1.000000
    9        3.629459   1.000000
   10        3.640716   1.000000
   11        4.820095   1.000000
   12        4.853456   1.000000
   13        5.734244   1.000000
   14        5.743120   1.000000
   15        5.743121   1.000000
   16        5.855823   1.000000
   17        5.923996   1.000000
   18        5.923996   1.000000
   19        6.059417   1.000000
   20        6.059417   1.000000
   21        6.073171   1.000000
   22        8.829861   0.000000
   23        8.829863   0.000000
   24        9.412179   0.000000
   25       12.603570   0.000000
   26       13.145572   0.000000
   27       13.145574   0.000000
 
  0.1058616E-25  0.1333333E+00  0.8271806E-24  0.5925926E-03
    1       -0.814039   1.000000
    2        1.692190   1.000000
    3        1.755221   1.000000
    4        1.755222   1.000000
    5        1.957839   1.000000
    6        1.991348   1.000000
    7        1.991348   1.000000
    8        3.515922   1.000000
    9        3.680840   1.000000
   10        3.680841   1.000000
   11        4.758733   1.000000
   12        4.887851   1.000000
   13        5.608593   1.000000
   14        5.608594   1.000000
   15        5.669103   1.000000
   16        5.669104   1.000000
   17        5.754313   1.000000
   18        5.942697   1.000000
   19        5.942697   1.000000
   20        6.100173   1.000000
   21        6.100176   1.000000
   22        7.782828   0.485781
   23        9.701850   0.000000
   24        9.701852   0.000000
   25       12.539134   0.000000
   26       12.539135   0.000000
   27       14.302886   0.000000
 
  0.6666667E-01  0.1333333E+00 -0.8271806E-24  0.5925926E-03
    1       -0.768131   1.000000
    2        1.723132   1.000000
    3        1.770730   1.000000
    4        1.774951   1.000000
    5        1.981379   1.000000
    6        2.006602   1.000000
    7        2.022908   1.000000
    8        3.513843   1.000000
    9        3.682006   1.000000
   10        3.696019   1.000000
   11        4.760403   1.000000
   12        4.878042   1.000000
   13        5.508520   1.000000
   14        5.543506   1.000000
   15        5.640983   1.000000
   16        5.660247   1.000000
   17        5.706584   1.000000
   18        5.838103   1.000000
   19        5.942487   1.000000
   20        6.059042   1.000000
   21        6.059352   1.000000
   22        7.969341   0.003755
   23        9.260831   0.000000
   24        9.843788   0.000000
   25       12.487782   0.000000
   26       13.054875   0.000000
   27       14.258667   0.000000
 
  0.1333333E+00  0.1333333E+00  0.4135903E-24  0.5925926E-03
    1       -0.631341   1.000000
    2        1.814019   1.000000
    3        1.814019   1.000000
    4        1.834907   1.000000
    5        2.051934   1.000000
    6        2.051934   1.000000
    7        2.114666   1.000000
    8        3.485022   1.000000
    9        3.709326   1.000000
   10        3.740896   1.000000
   11        4.738287   1.000000
   12        4.877876   1.000000
   13        5.318790   1.000000
   14        5.318790   1.000000
   15        5.330253   1.000000
   16        5.557452   1.000000
   17        5.710107   1.000000
   18        5.710107   1.000000
   19        5.941866   1.000000
   20        5.941866   1.000000
   21        5.993810   1.000000
   22        8.400650   0.000000
   23        8.400651   0.000000
   24       10.228686   0.000000
   25       12.341487   0.000000
   26       14.138091   0.000000
   27       14.138093   0.000000
 
  0.2000000E+00  0.1333333E+00 -0.8271806E-24  0.5925926E-03
    1       -0.406860   1.000000
    2        1.874035   1.000000
    3        1.936200   1.000000
    4        1.958678   1.000000
    5        2.126065   1.000000
    6        2.169248   1.000000
    7        2.258758   1.000000
    8        3.406642   1.000000
    9        3.788815   1.000000
   10        3.812214   1.000000
   11        4.661546   1.000000
   12        4.878691   1.000000
   13        4.925310   1.000000
   14        4.992500   1.000000
   15        5.059704   1.000000
   16        5.422466   1.000000
   17        5.561484   1.000000
   18        5.663043   1.000000
   19        5.760851   1.000000
   20        5.940823   1.000000
   21        5.956830   1.000000
   22        7.519015   0.999890
   23        8.920743   0.000000
   24       10.778540   0.000000
   25       12.122726   0.000000
   26       13.976224   0.000000
   27       15.392627   0.000000
 
  0.2666667E+00  0.1333333E+00  0.1033976E-24  0.5925926E-03
    1       -0.100698   1.000000
    2        1.927670   1.000000
    3        2.078157   1.000000
    4        2.145214   1.000000
    5        2.226781   1.000000
    6        2.332793   1.000000
    7        2.442457   1.000000
    8        3.288893   1.000000
    9        3.899827   1.000000
   10        3.914865   1.000000
   11        4.430359   1.000000
   12        4.560880   1.000000
   13        4.596515   1.000000
   14        4.738113   1.000000
   15        5.007122   1.000000
   16        5.246271   1.000000
   17        5.374262   1.000000
   18        5.534100   1.000000
   19        5.564856   1.000000
   20        5.939393   1.000000
   21        5.940664   1.000000
   22        6.753768   1.000000
   23        9.452289   0.000000
   24       11.430784   0.000000
   25       11.863367   0.000000
   26       13.824186   0.000000
   27       15.119884   0.000000
 
  0.3333333E+00  0.1333333E+00  0.7237830E-24  0.5925926E-03
    1        0.276252   1.000000
    2        1.931721   1.000000
    3        2.256550   1.000000
    4        2.350947   1.000000
    5        2.352897   1.000000
    6        2.541776   1.000000
    7        2.646820   1.000000
    8        3.144923   1.000000
    9        3.972330   1.000000
   10        4.004237   1.000000
   11        4.079662   1.000000
   12        4.188555   1.000000
   13        4.387343   1.000000
   14        4.490460   1.000000
   15        5.051058   1.000000
   16        5.112866   1.000000
   17        5.163129   1.000000
   18        5.279942   1.000000
   19        5.406298   1.000000
   20        5.934179   1.000000
   21        5.937658   1.000000
   22        6.173939   1.000000
   23        9.950733   0.000000
   24       11.592499   0.000000
   25       12.145247   0.000000
   26       13.735382   0.000000
   27       14.745334   0.000000
 
  0.4000000E+00  0.1333333E+00  0.6203855E-24  0.5925926E-03
    1        0.704775   1.000000
    2        1.820720   1.000000
    3        2.456566   1.000000
    4        2.494477   1.000000
    5        2.545576   1.000000
    6        2.794910   1.000000
    7        2.847619   1.000000
    8        2.985008   1.000000
    9        3.617160   1.000000
   10        3.793442   1.000000
   11        3.974318   1.000000
   12        4.092298   1.000000
   13        4.277902   1.000000
   14        4.530162   1.000000
   15        4.877265   1.000000
   16        4.959903   1.000000
   17        5.014953   1.000000
   18        5.179525   1.000000
   19        5.238572   1.000000
   20        5.796184   1.000000
   21        5.932231   1.000000
   22        5.935760   1.000000
   23       10.386292   0.000000
   24       11.324118   0.000000
   25       12.895284   0.000000
   26       13.749839   0.000000
   27       14.407147   0.000000
 
  0.4666667E+00  0.1333333E+00 -0.1654361E-23  0.5925926E-03
    1        1.149408   1.000000
    2        1.548192   1.000000
    3        2.626691   1.000000
    4        2.652213   1.000000
    5        2.661959   1.000000
    6        2.818107   1.000000
    7        3.040989   1.000000
    8        3.090235   1.000000
    9        3.287857   1.000000
   10        3.424691   1.000000
   11        3.929921   1.000000
   12        3.941316   1.000000
   13        4.504405   1.000000
   14        4.691122   1.000000
   15        4.752847   1.000000
   16        4.783236   1.000000
   17        4.815010   1.000000
   18        4.922042   1.000000
   19        5.384234   1.000000
   20        5.558677   1.000000
   21        5.932538   1.000000
   22        5.933926   1.000000
   23       10.748353   0.000000
   24       11.051136   0.000000
   25       13.660553   0.000000
   26       13.880758   0.000000
   27       14.110706   0.000000
 
 -0.4666667E+00  0.1333333E+00  0.0000000E+00  0.5925926E-03
    1        1.149408   1.000000
    2        1.548192   1.000000
    3        2.626691   1.000000
    4        2.652213   1.000000
    5        2.661959   1.000000