 running on   24 total cores
 distrk:  each k-point on   24 cores,    1 groups
 distr:  one band on    8 cores,    3 groups
 using from now: INCAR     
 vasp.5.4.4.18Apr17-6-g9f103f2a35 (build Jan 14 2019 14:48:31) complex          
  
 POSCAR found type information on POSCAR  Au
 POSCAR found :  1 types and       4 ions
 scaLAPACK will be used
 LDA part: xc-table for Pade appr. of Perdew
 POSCAR found type information on POSCAR  Au
 POSCAR found :  1 types and       4 ions
 POSCAR, INCAR and KPOINTS ok, starting setup
 FFT: planning ...
 WAVECAR not read
 entering main loop
       N       E                     dE             d eps       ncg     rms          rms(c)
DAV:   1     0.269165604411E+03    0.26917E+03   -0.22401E+04 91881   0.151E+03
DAV:   2    -0.875981667845E+01   -0.27793E+03   -0.26968E+03105948   0.320E+02
DAV:   3    -0.137781530684E+02   -0.50183E+01   -0.49823E+01101538   0.449E+01
DAV:   4    -0.138094129443E+02   -0.31260E-01   -0.31242E-01104688   0.368E+00
DAV:   5    -0.138097152742E+02   -0.30233E-03   -0.30231E-03106668   0.378E-01    0.134E+01
RMM:   6    -0.128430144788E+02    0.96670E+00   -0.26823E+00 91160   0.106E+01    0.900E+00
RMM:   7    -0.127966414665E+02    0.46373E-01   -0.25336E-01 91244   0.308E+00    0.466E+00
RMM:   8    -0.127904612156E+02    0.61803E-02   -0.10301E-02 91212   0.655E-01    0.506E-01
RMM:   9    -0.127903003124E+02    0.16090E-03   -0.41922E-04 91201   0.120E-01    0.421E-02
RMM:  10    -0.127903205477E+02   -0.20235E-04   -0.27236E-05 91191   0.385E-02    0.207E-02
RMM:  11    -0.127903216568E+02   -0.11091E-05   -0.12756E-06 51046   0.647E-03    0.530E-04
RMM:  12    -0.127903215264E+02    0.13042E-06   -0.15031E-07 46283   0.247E-03
   1 F= -.12790322E+02 E0= -.12787714E+02  d E =-.127903E+02
 curvature:   0.00 expect dE= 0.000E+00 dE for cont linesearch  0.000E+00
 trial: gam= 0.00000 g(F)=  0.841E-14 g(S)=  0.000E+00 ort = 0.000E+00 (trialstep = 0.100E+01)
 search vector abs. value=  0.100E-09
 reached required accuracy - stopping structural energy minimisation
