   4   4   0   0
  0.1632419E+02  0.3827024E-09  0.4168496E-09  0.4154382E-09  0.2000000E-15
  1.000000000000000E-004
  CAR 
 unknown system                          
     23.10376322     -1.24283447  301     10.19604002      1.00000000
     -1.243  0.0000E+00  0.0000E+00
     -1.162  0.0000E+00  0.0000E+00
     -1.081  0.0000E+00  0.0000E+00
     -0.999  0.0000E+00  0.0000E+00
     -0.918  0.0000E+00  0.0000E+00
     -0.837  0.0000E+00  0.0000E+00
     -0.756  0.0000E+00  0.0000E+00
     -0.675  0.9607E-18  0.7796E-19
     -0.594  0.3709E-14  0.3011E-15
     -0.512  0.4019E-11  0.3265E-12
     -0.431  0.1269E-08  0.1033E-09
     -0.350  0.1246E-06  0.1021E-07
     -0.269  0.4193E-05  0.3505E-06
     -0.188  0.5398E-04  0.4731E-05
     -0.107  0.2897E-03  0.2824E-04
     -0.026  0.7156E-03  0.8631E-04
      0.056  0.1100E-02  0.1756E-03
      0.137  0.1519E-02  0.2989E-03
      0.218  0.1725E-02  0.4389E-03
      0.299  0.1862E-02  0.5900E-03
      0.380  0.2199E-02  0.7684E-03
      0.461  0.2540E-02  0.9745E-03
      0.543  0.2635E-02  0.1188E-02
      0.624  0.2662E-02  0.1404E-02
      0.705  0.2882E-02  0.1638E-02
      0.786  0.3360E-02  0.1911E-02
      0.867  0.3721E-02  0.2213E-02
      0.948  0.3534E-02  0.2500E-02
      1.030  0.3545E-02  0.2787E-02
      1.111  0.4124E-02  0.3122E-02
      1.192  0.4624E-02  0.3497E-02
      1.273  0.4566E-02  0.3868E-02
      1.354  0.4633E-02  0.4244E-02
      1.435  0.5189E-02  0.4665E-02
      1.516  0.5620E-02  0.5121E-02
      1.598  0.5975E-02  0.5606E-02
      1.679  0.6189E-02  0.6108E-02
      1.760  0.6393E-02  0.6627E-02
      1.841  0.7244E-02  0.7215E-02
      1.922  0.8432E-02  0.7899E-02
      2.003  0.9876E-02  0.8701E-02
      2.085  0.1165E-01  0.9647E-02
      2.166  0.1334E-01  0.1073E-01
      2.247  0.1521E-01  0.1196E-01
      2.328  0.1772E-01  0.1340E-01
      2.409  0.2156E-01  0.1515E-01
      2.490  0.2466E-01  0.1715E-01
      2.571  0.2567E-01  0.1924E-01
      2.653  0.2833E-01  0.2154E-01
      2.734  0.3322E-01  0.2423E-01
      2.815  0.3686E-01  0.2722E-01
      2.896  0.3910E-01  0.3040E-01
      2.977  0.4201E-01  0.3381E-01
      3.058  0.4575E-01  0.3752E-01
      3.140  0.5118E-01  0.4167E-01
      3.221  0.5850E-01  0.4642E-01
      3.302  0.6272E-01  0.5151E-01
      3.383  0.6069E-01  0.5643E-01
      3.464  0.5924E-01  0.6124E-01
      3.545  0.6063E-01  0.6616E-01
      3.626  0.6158E-01  0.7116E-01
      3.708  0.6121E-01  0.7613E-01
      3.789  0.6094E-01  0.8107E-01
      3.870  0.6210E-01  0.8611E-01
      3.951  0.6290E-01  0.9122E-01
      4.032  0.6235E-01  0.9628E-01
      4.113  0.6427E-01  0.1015E+00
      4.195  0.7281E-01  0.1074E+00
      4.276  0.8824E-01  0.1146E+00
      4.357  0.1017E+00  0.1228E+00
      4.438  0.1051E+00  0.1314E+00
      4.519  0.9693E-01  0.1392E+00
      4.600  0.8488E-01  0.1461E+00
      4.682  0.7493E-01  0.1522E+00
      4.763  0.6664E-01  0.1576E+00
      4.844  0.6214E-01  0.1626E+00
      4.925  0.5991E-01  0.1675E+00
      5.006  0.6013E-01  0.1724E+00
      5.087  0.6330E-01  0.1775E+00
      5.168  0.6416E-01  0.1827E+00
      5.250  0.6195E-01  0.1878E+00
      5.331  0.6245E-01  0.1928E+00
      5.412  0.6244E-01  0.1979E+00
      5.493  0.5903E-01  0.2027E+00
      5.574  0.5393E-01  0.2071E+00
      5.655  0.5008E-01  0.2111E+00
      5.737  0.5009E-01  0.2152E+00
      5.818  0.5541E-01  0.2197E+00
      5.899  0.6202E-01  0.2247E+00
      5.980  0.6407E-01  0.2299E+00
      6.061  0.6477E-01  0.2352E+00
      6.142  0.6702E-01  0.2406E+00
      6.223  0.7098E-01  0.2464E+00
      6.305  0.7508E-01  0.2525E+00
      6.386  0.7859E-01  0.2588E+00
      6.467  0.8241E-01  0.2655E+00
      6.548  0.8558E-01  0.2725E+00
      6.629  0.8774E-01  0.2796E+00
      6.710  0.8749E-01  0.2867E+00
      6.792  0.8575E-01  0.2937E+00
      6.873  0.8321E-01  0.3004E+00
      6.954  0.8001E-01  0.3069E+00
      7.035  0.7559E-01  0.3130E+00
      7.116  0.7207E-01  0.3189E+00
      7.197  0.7042E-01  0.3246E+00
      7.278  0.7241E-01  0.3305E+00
      7.360  0.7698E-01  0.3367E+00
      7.441  0.7877E-01  0.3431E+00
      7.522  0.7675E-01  0.3493E+00
      7.603  0.7739E-01  0.3556E+00
      7.684  0.8133E-01  0.3622E+00
      7.765  0.8533E-01  0.3691E+00
      7.847  0.8860E-01  0.3763E+00
      7.928  0.8583E-01  0.3833E+00
      8.009  0.7638E-01  0.3895E+00
      8.090  0.6755E-01  0.3950E+00
      8.171  0.6391E-01  0.4002E+00
      8.252  0.6047E-01  0.4051E+00
      8.333  0.5296E-01  0.4094E+00
      8.415  0.4647E-01  0.4132E+00
      8.496  0.4031E-01  0.4164E+00
      8.577  0.3406E-01  0.4192E+00
      8.658  0.2905E-01  0.4215E+00
      8.739  0.2315E-01  0.4234E+00
      8.820  0.1605E-01  0.4247E+00
      8.902  0.1122E-01  0.4256E+00
      8.983  0.1047E-01  0.4265E+00
      9.064  0.1203E-01  0.4275E+00
      9.145  0.1379E-01  0.4286E+00
      9.226  0.1271E-01  0.4296E+00
      9.307  0.1033E-01  0.4305E+00
      9.389  0.9466E-02  0.4312E+00
      9.470  0.9633E-02  0.4320E+00
      9.551  0.1026E-01  0.4328E+00
      9.632  0.1089E-01  0.4337E+00
      9.713  0.1077E-01  0.4346E+00
      9.794  0.9892E-02  0.4354E+00
      9.875  0.9684E-02  0.4362E+00
      9.957  0.1042E-01  0.4370E+00
     10.038  0.1225E-01  0.4380E+00
     10.119  0.1303E-01  0.4391E+00
     10.200  0.1193E-01  0.4400E+00
     10.281  0.1045E-01  0.4409E+00
     10.362  0.9008E-02  0.4416E+00
     10.444  0.8732E-02  0.4423E+00
     10.525  0.9489E-02  0.4431E+00
     10.606  0.1033E-01  0.4439E+00
     10.687  0.1115E-01  0.4448E+00
     10.768  0.1171E-01  0.4458E+00
     10.849  0.1202E-01  0.4468E+00
     10.930  0.1272E-01  0.4478E+00
     11.012  0.1161E-01  0.4487E+00
     11.093  0.9370E-02  0.4495E+00
     11.174  0.8470E-02  0.4502E+00
     11.255  0.9898E-02  0.4510E+00
     11.336  0.1070E-01  0.4519E+00
     11.417  0.1022E-01  0.4527E+00
     11.499  0.1027E-01  0.4535E+00
     11.580  0.1092E-01  0.4544E+00
     11.661  0.1109E-01  0.4553E+00
     11.742  0.1099E-01  0.4562E+00
     11.823  0.1071E-01  0.4571E+00
     11.904  0.1042E-01  0.4579E+00
     11.985  0.1025E-01  0.4588E+00
     12.067  0.9564E-02  0.4595E+00
     12.148  0.9203E-02  0.4603E+00
     12.229  0.9978E-02  0.4611E+00
     12.310  0.1068E-01  0.4620E+00
     12.391  0.1118E-01  0.4629E+00
     12.472  0.1272E-01  0.4639E+00
     12.554  0.1414E-01  0.4650E+00
     12.635  0.1506E-01  0.4663E+00
     12.716  0.1554E-01  0.4675E+00
     12.797  0.1401E-01  0.4687E+00
     12.878  0.1133E-01  0.4696E+00
     12.959  0.9729E-02  0.4704E+00
     13.041  0.9933E-02  0.4712E+00
     13.122  0.1119E-01  0.4721E+00
     13.203  0.1135E-01  0.4730E+00
     13.284  0.1069E-01  0.4739E+00
     13.365  0.1085E-01  0.4748E+00
     13.446  0.1087E-01  0.4756E+00
     13.527  0.9869E-02  0.4764E+00
     13.609  0.9353E-02  0.4772E+00
     13.690  0.9651E-02  0.4780E+00
     13.771  0.9885E-02  0.4788E+00
     13.852  0.9991E-02  0.4796E+00
     13.933  0.9692E-02  0.4804E+00
     14.014  0.9285E-02  0.4811E+00
     14.096  0.8968E-02  0.4819E+00
     14.177  0.8395E-02  0.4825E+00
     14.258  0.8317E-02  0.4832E+00
     14.339  0.9149E-02  0.4840E+00
     14.420  0.9237E-02  0.4847E+00
     14.501  0.9035E-02  0.4854E+00
     14.582  0.8805E-02  0.4862E+00
     14.664  0.8558E-02  0.4868E+00
     14.745  0.8367E-02  0.4875E+00
     14.826  0.8566E-02  0.4882E+00
     14.907  0.8969E-02  0.4890E+00
     14.988  0.9823E-02  0.4897E+00
     15.069  0.1104E-01  0.4906E+00
     15.151  0.1204E-01  0.4916E+00
     15.232  0.1274E-01  0.4927E+00
     15.313  0.1284E-01  0.4937E+00
     15.394  0.1334E-01  0.4948E+00
     15.475  0.1399E-01  0.4959E+00
     15.556  0.1357E-01  0.4970E+00
     15.637  0.1206E-01  0.4980E+00
     15.719  0.1144E-01  0.4989E+00
     15.800  0.1196E-01  0.4999E+00
     15.881  0.1301E-01  0.5009E+00
     15.962  0.1461E-01  0.5021E+00
     16.043  0.1557E-01  0.5034E+00
     16.124  0.1564E-01  0.5047E+00
     16.206  0.1557E-01  0.5059E+00
     16.287  0.1486E-01  0.5071E+00
     16.368  0.1379E-01  0.5083E+00
     16.449  0.1286E-01  0.5093E+00
     16.530  0.1200E-01  0.5103E+00
     16.611  0.1153E-01  0.5112E+00
     16.692  0.1171E-01  0.5122E+00
     16.774  0.1191E-01  0.5131E+00
     16.855  0.1225E-01  0.5141E+00
     16.936  0.1254E-01  0.5151E+00
     17.017  0.1314E-01  0.5162E+00
     17.098  0.1431E-01  0.5174E+00
     17.179  0.1383E-01  0.5185E+00
     17.261  0.1229E-01  0.5195E+00
     17.342  0.1085E-01  0.5204E+00
     17.423  0.1021E-01  0.5212E+00
     17.504  0.1064E-01  0.5221E+00
     17.585  0.1169E-01  0.5230E+00
     17.666  0.1158E-01  0.5239E+00
     17.748  0.1149E-01  0.5249E+00
     17.829  0.1223E-01  0.5259E+00
     17.910  0.1210E-01  0.5269E+00
     17.991  0.1118E-01  0.5278E+00
     18.072  0.1049E-01  0.5286E+00
     18.153  0.8998E-02  0.5293E+00
     18.234  0.7601E-02  0.5300E+00
     18.316  0.8388E-02  0.5306E+00
     18.397  0.9574E-02  0.5314E+00
     18.478  0.9490E-02  0.5322E+00
     18.559  0.8622E-02  0.5329E+00
     18.640  0.8252E-02  0.5336E+00
     18.721  0.7745E-02  0.5342E+00
     18.803  0.6800E-02  0.5347E+00
     18.884  0.6101E-02  0.5352E+00
     18.965  0.5846E-02  0.5357E+00
     19.046  0.5060E-02  0.5361E+00
     19.127  0.4547E-02  0.5365E+00
     19.208  0.3959E-02  0.5368E+00
     19.289  0.3855E-02  0.5371E+00
     19.371  0.4464E-02  0.5375E+00
     19.452  0.4517E-02  0.5379E+00
     19.533  0.3740E-02  0.5382E+00
     19.614  0.2490E-02  0.5384E+00
     19.695  0.1460E-02  0.5385E+00
     19.776  0.1603E-02  0.5386E+00
     19.858  0.2262E-02  0.5388E+00
     19.939  0.2108E-02  0.5390E+00
     20.020  0.1516E-02  0.5391E+00
     20.101  0.1237E-02  0.5392E+00
     20.182  0.1182E-02  0.5393E+00
     20.263  0.8718E-03  0.5393E+00
     20.344  0.6293E-03  0.5394E+00
     20.426  0.6924E-03  0.5395E+00
     20.507  0.7727E-03  0.5395E+00
     20.588  0.6227E-03  0.5396E+00
     20.669  0.4939E-03  0.5396E+00
     20.750  0.5185E-03  0.5397E+00
     20.831  0.3902E-03  0.5397E+00
     20.913  0.3284E-03  0.5397E+00
     20.994  0.4905E-03  0.5398E+00
     21.075  0.4505E-03  0.5398E+00
     21.156  0.4296E-03  0.5398E+00
     21.237  0.4549E-03  0.5399E+00
     21.318  0.2585E-03  0.5399E+00
     21.400  0.1430E-03  0.5399E+00
     21.481  0.1282E-03  0.5399E+00
     21.562  0.1065E-03  0.5399E+00
     21.643  0.2174E-03  0.5399E+00
     21.724  0.2410E-03  0.5399E+00
     21.805  0.1542E-03  0.5400E+00
     21.886  0.1494E-03  0.5400E+00
     21.968  0.1432E-03  0.5400E+00
     22.049  0.1344E-03  0.5400E+00
     22.130  0.5950E-04  0.5400E+00
     22.211  0.8456E-05  0.5400E+00
     22.292  0.3576E-06  0.5400E+00
     22.373  0.4362E-08  0.5400E+00
     22.455  0.1502E-10  0.5400E+00
     22.536  0.1439E-13  0.5400E+00
     22.617  0.3810E-17  0.5400E+00
     22.698  0.0000E+00  0.5400E+00
     22.779  0.0000E+00  0.5400E+00
     22.860  0.0000E+00  0.5400E+00
     22.941  0.0000E+00  0.5400E+00
     23.023  0.0000E+00  0.5400E+00
     23.104  0.0000E+00  0.5400E+00
