 running on   24 total cores
 distrk:  each k-point on   24 cores,    1 groups
 distr:  one band on    8 cores,    3 groups
 using from now: INCAR     
 vasp.5.4.4.18Apr17-6-g9f103f2a35 (build Jan 14 2019 14:48:31) complex          
  
 POSCAR found type information on POSCAR  Au
 POSCAR found :  1 types and       4 ions
 scaLAPACK will be used
 LDA part: xc-table for Pade appr. of Perdew
 POSCAR found type information on POSCAR  Au
 POSCAR found :  1 types and       4 ions
 POSCAR, INCAR and KPOINTS ok, starting setup
 FFT: planning ...
 WAVECAR not read
 entering main loop
       N       E                     dE             d eps       ncg     rms          rms(c)
DAV:   1     0.283463295857E+03    0.28346E+03   -0.22910E+04 92097   0.154E+03
DAV:   2    -0.795677723993E+01   -0.29142E+03   -0.28392E+03104310   0.338E+02
DAV:   3    -0.130697459534E+02   -0.51130E+01   -0.50838E+01102987   0.474E+01
DAV:   4    -0.130977064954E+02   -0.27961E-01   -0.27954E-01104976   0.359E+00
DAV:   5    -0.130979607921E+02   -0.25430E-03   -0.25429E-03107325   0.359E-01    0.224E+01
RMM:   6    -0.121075371814E+02    0.99042E+00   -0.22536E+00 91152   0.100E+01    0.140E+01
RMM:   7    -0.120176976932E+02    0.89839E-01   -0.45520E-01 91170   0.436E+00    0.475E+00
RMM:   8    -0.120034089273E+02    0.14289E-01   -0.33555E-02 91178   0.124E+00    0.566E-01
RMM:   9    -0.120033325675E+02    0.76360E-04   -0.14474E-04 91178   0.658E-02    0.578E-02
RMM:  10    -0.120033390514E+02   -0.64839E-05   -0.14863E-05 91171   0.315E-02    0.474E-02
RMM:  11    -0.120033426441E+02   -0.35926E-05   -0.64598E-07 49872   0.576E-03    0.385E-03
RMM:  12    -0.120033427693E+02   -0.12528E-06   -0.11461E-07 47967   0.226E-03
   1 F= -.12003343E+02 E0= -.12000520E+02  d E =-.120033E+02
 curvature:   0.00 expect dE= 0.000E+00 dE for cont linesearch  0.000E+00
 trial: gam= 0.00000 g(F)=  0.391E-14 g(S)=  0.000E+00 ort = 0.000E+00 (trialstep = 0.100E+01)
 search vector abs. value=  0.100E-09
 reached required accuracy - stopping structural energy minimisation
