   8   8   0   0
  0.5819514E+01  0.3597429E-09  0.3597429E-09  0.3597429E-09  0.5000000E-15
  1.000000000000000E-004
  CAR 
 unknown system                          
     23.82638552    -12.19223588  301     10.74712363      1.00000000
    -12.192  0.0000E+00  0.0000E+00
    -12.072  0.0000E+00  0.0000E+00
    -11.952  0.0000E+00  0.0000E+00
    -11.832  0.0000E+00  0.0000E+00
    -11.712  0.0000E+00  0.0000E+00
    -11.592  0.0000E+00  0.0000E+00
    -11.472  0.0000E+00  0.0000E+00
    -11.352  0.0000E+00  0.0000E+00
    -11.232  0.0000E+00  0.0000E+00
    -11.112  0.0000E+00  0.0000E+00
    -10.992  0.0000E+00  0.0000E+00
    -10.872  0.0000E+00  0.0000E+00
    -10.751  0.6669E-11  0.8007E-12
    -10.631  0.7455E-05  0.8950E-06
    -10.511  0.5472E-03  0.6660E-04
    -10.391  0.1757E-02  0.2775E-03
    -10.271  0.2220E-02  0.5440E-03
    -10.151  0.3316E-02  0.9421E-03
    -10.031  0.2390E-02  0.1229E-02
     -9.911  0.4480E-02  0.1767E-02
     -9.791  0.3516E-02  0.2189E-02
     -9.671  0.4063E-02  0.2677E-02
     -9.551  0.5071E-02  0.3286E-02
     -9.431  0.5004E-02  0.3887E-02
     -9.311  0.5487E-02  0.4545E-02
     -9.191  0.3929E-02  0.5017E-02
     -9.071  0.6869E-02  0.5842E-02
     -8.951  0.6591E-02  0.6633E-02
     -8.830  0.5357E-02  0.7276E-02
     -8.710  0.5032E-02  0.7880E-02
     -8.590  0.7505E-02  0.8781E-02
     -8.470  0.8237E-02  0.9770E-02
     -8.350  0.5941E-02  0.1048E-01
     -8.230  0.7657E-02  0.1140E-01
     -8.110  0.6416E-02  0.1217E-01
     -7.990  0.8792E-02  0.1323E-01
     -7.870  0.5699E-02  0.1391E-01
     -7.750  0.9692E-02  0.1508E-01
     -7.630  0.1060E-01  0.1635E-01
     -7.510  0.5503E-02  0.1701E-01
     -7.390  0.8364E-02  0.1801E-01
     -7.270  0.7388E-02  0.1890E-01
     -7.150  0.1261E-01  0.2042E-01
     -7.030  0.8900E-02  0.2148E-01
     -6.910  0.9528E-02  0.2263E-01
     -6.789  0.7671E-02  0.2355E-01
     -6.669  0.1090E-01  0.2486E-01
     -6.549  0.8873E-02  0.2592E-01
     -6.429  0.1128E-01  0.2728E-01
     -6.309  0.9906E-02  0.2847E-01
     -6.189  0.1143E-01  0.2984E-01
     -6.069  0.1088E-01  0.3115E-01
     -5.949  0.1206E-01  0.3259E-01
     -5.829  0.1256E-01  0.3410E-01
     -5.709  0.7161E-02  0.3496E-01
     -5.589  0.1029E-01  0.3620E-01
     -5.469  0.1714E-01  0.3826E-01
     -5.349  0.1268E-01  0.3978E-01
     -5.229  0.1281E-01  0.4132E-01
     -5.109  0.1498E-01  0.4312E-01
     -4.989  0.1120E-01  0.4446E-01
     -4.868  0.1571E-01  0.4635E-01
     -4.748  0.1577E-01  0.4824E-01
     -4.628  0.1724E-01  0.5031E-01
     -4.508  0.1257E-01  0.5182E-01
     -4.388  0.1405E-01  0.5350E-01
     -4.268  0.1423E-01  0.5521E-01
     -4.148  0.2142E-01  0.5779E-01
     -4.028  0.6535E-02  0.5857E-01
     -3.908  0.1378E-01  0.6022E-01
     -3.788  0.9529E-02  0.6137E-01
     -3.668  0.1220E-01  0.6283E-01
     -3.548  0.1690E-01  0.6486E-01
     -3.428  0.1155E-01  0.6625E-01
     -3.308  0.7220E-02  0.6712E-01
     -3.188  0.1348E-01  0.6873E-01
     -3.068  0.9915E-02  0.6993E-01
     -2.947  0.1359E-01  0.7156E-01
     -2.827  0.7488E-02  0.7246E-01
     -2.707  0.5545E-02  0.7312E-01
     -2.587  0.6913E-02  0.7395E-01
     -2.467  0.9458E-02  0.7509E-01
     -2.347  0.1265E-01  0.7661E-01
     -2.227  0.1376E-01  0.7826E-01
     -2.107  0.1309E-01  0.7983E-01
     -1.987  0.1086E-01  0.8113E-01
     -1.867  0.6862E-02  0.8196E-01
     -1.747  0.7017E-02  0.8280E-01
     -1.627  0.1136E-01  0.8416E-01
     -1.507  0.8516E-02  0.8519E-01
     -1.387  0.1004E-01  0.8639E-01
     -1.267  0.1456E-01  0.8814E-01
     -1.147  0.2286E-01  0.9089E-01
     -1.026  0.1432E-01  0.9260E-01
     -0.906  0.2535E-01  0.9565E-01
     -0.786  0.1826E-01  0.9784E-01
     -0.666  0.2711E-01  0.1011E+00
     -0.546  0.1390E-01  0.1028E+00
     -0.426  0.1975E-01  0.1051E+00
     -0.306  0.2586E-01  0.1082E+00
     -0.186  0.2819E-01  0.1116E+00
     -0.066  0.1318E-01  0.1132E+00
      0.054  0.1449E-01  0.1149E+00
      0.174  0.9234E-02  0.1161E+00
      0.294  0.1131E-01  0.1174E+00
      0.414  0.1423E-01  0.1191E+00
      0.534  0.1099E-01  0.1204E+00
      0.654  0.1265E-01  0.1220E+00
      0.774  0.1511E-01  0.1238E+00
      0.895  0.1711E-01  0.1258E+00
      1.015  0.5783E-02  0.1265E+00
      1.135  0.9385E-02  0.1276E+00
      1.255  0.1332E-01  0.1292E+00
      1.375  0.1047E-01  0.1305E+00
      1.495  0.5566E-02  0.1312E+00
      1.615  0.1925E-01  0.1335E+00
      1.735  0.1166E-01  0.1349E+00
      1.855  0.2512E-01  0.1379E+00
      1.975  0.1518E-01  0.1397E+00
      2.095  0.1904E-01  0.1420E+00
      2.215  0.2368E-01  0.1449E+00
      2.335  0.2417E-01  0.1478E+00
      2.455  0.2445E-01  0.1507E+00
      2.575  0.1450E-01  0.1524E+00
      2.695  0.1587E-01  0.1543E+00
      2.816  0.1583E-01  0.1562E+00
      2.936  0.2988E-01  0.1598E+00
      3.056  0.3121E-01  0.1636E+00
      3.176  0.1695E-01  0.1656E+00
      3.296  0.1612E-01  0.1675E+00
      3.416  0.1790E-01  0.1697E+00
      3.536  0.2582E-01  0.1728E+00
      3.656  0.2900E-01  0.1763E+00
      3.776  0.2222E-01  0.1789E+00
      3.896  0.2474E-01  0.1819E+00
      4.016  0.1950E-01  0.1842E+00
      4.136  0.2418E-01  0.1872E+00
      4.256  0.3524E-01  0.1914E+00
      4.376  0.3385E-01  0.1954E+00
      4.496  0.2890E-01  0.1989E+00
      4.616  0.2721E-01  0.2022E+00
      4.737  0.3318E-01  0.2062E+00
      4.857  0.2403E-01  0.2091E+00
      4.977  0.3706E-01  0.2135E+00
      5.097  0.4484E-01  0.2189E+00
      5.217  0.3008E-01  0.2225E+00
      5.337  0.1747E-01  0.2246E+00
      5.457  0.2333E-01  0.2274E+00
      5.577  0.3563E-01  0.2317E+00
      5.697  0.4145E-01  0.2367E+00
      5.817  0.3074E-01  0.2403E+00
      5.937  0.1829E-01  0.2425E+00
      6.057  0.2989E-01  0.2461E+00
      6.177  0.3307E-01  0.2501E+00
      6.297  0.2429E-01  0.2530E+00
      6.417  0.3388E-01  0.2571E+00
      6.537  0.2836E-01  0.2605E+00
      6.658  0.2244E-01  0.2632E+00
      6.778  0.2275E-01  0.2659E+00
      6.898  0.3883E-01  0.2706E+00
      7.018  0.2677E-01  0.2738E+00
      7.138  0.2185E-01  0.2764E+00
      7.258  0.2692E-01  0.2796E+00
      7.378  0.1957E-01  0.2820E+00
      7.498  0.3080E-01  0.2857E+00
      7.618  0.3714E-01  0.2901E+00
      7.738  0.2008E-01  0.2926E+00
      7.858  0.1357E-01  0.2942E+00
      7.978  0.2459E-01  0.2971E+00
      8.098  0.2036E-01  0.2996E+00
      8.218  0.2233E-01  0.3023E+00
      8.338  0.1552E-01  0.3041E+00
      8.458  0.7369E-02  0.3050E+00
      8.579  0.1001E-01  0.3062E+00
      8.699  0.2029E-01  0.3087E+00
      8.819  0.1068E-01  0.3099E+00
      8.939  0.1179E-01  0.3113E+00
      9.059  0.7216E-02  0.3122E+00
      9.179  0.5232E-02  0.3128E+00
      9.299  0.1100E-01  0.3142E+00
      9.419  0.1047E-01  0.3154E+00
      9.539  0.5302E-02  0.3161E+00
      9.659  0.5643E-02  0.3167E+00
      9.779  0.5155E-02  0.3174E+00
      9.899  0.6784E-02  0.3182E+00
     10.019  0.3778E-02  0.3186E+00
     10.139  0.3839E-02  0.3191E+00
     10.259  0.3342E-02  0.3195E+00
     10.379  0.2264E-02  0.3198E+00
     10.499  0.1749E-02  0.3200E+00
     10.620  0.2737E-03  0.3200E+00
     10.740  0.3431E-07  0.3200E+00
     10.860  0.8293E-16  0.3200E+00
     10.980  0.0000E+00  0.3200E+00
     11.100  0.0000E+00  0.3200E+00
     11.220  0.0000E+00  0.3200E+00
     11.340  0.0000E+00  0.3200E+00
     11.460  0.0000E+00  0.3200E+00
     11.580  0.0000E+00  0.3200E+00
     11.700  0.0000E+00  0.3200E+00
     11.820  0.0000E+00  0.3200E+00
     11.940  0.0000E+00  0.3200E+00
     12.060  0.0000E+00  0.3200E+00
     12.180  0.0000E+00  0.3200E+00
     12.300  0.0000E+00  0.3200E+00
     12.420  0.0000E+00  0.3200E+00
     12.541  0.0000E+00  0.3200E+00
     12.661  0.0000E+00  0.3200E+00
     12.781  0.0000E+00  0.3200E+00
     12.901  0.0000E+00  0.3200E+00
     13.021  0.0000E+00  0.3200E+00
     13.141  0.0000E+00  0.3200E+00
     13.261  0.0000E+00  0.3200E+00
     13.381  0.0000E+00  0.3200E+00
     13.501  0.0000E+00  0.3200E+00
     13.621  0.0000E+00  0.3200E+00
     13.741  0.0000E+00  0.3200E+00
     13.861  0.0000E+00  0.3200E+00
     13.981  0.0000E+00  0.3200E+00
     14.101  0.0000E+00  0.3200E+00
     14.221  0.0000E+00  0.3200E+00
     14.341  0.0000E+00  0.3200E+00
     14.462  0.9026E-16  0.3200E+00
     14.582  0.5094E-07  0.3200E+00
     14.702  0.6426E-03  0.3201E+00
     14.822  0.4329E-02  0.3206E+00
     14.942  0.2313E-02  0.3209E+00
     15.062  0.2234E-02  0.3211E+00
     15.182  0.1068E-01  0.3224E+00
     15.302  0.7309E-02  0.3233E+00
     15.422  0.1028E-01  0.3245E+00
     15.542  0.8105E-02  0.3255E+00
     15.662  0.4101E-02  0.3260E+00
     15.782  0.1754E-01  0.3281E+00
     15.902  0.1789E-01  0.3303E+00
     16.022  0.1684E-01  0.3323E+00
     16.142  0.1686E-01  0.3343E+00
     16.262  0.1485E-01  0.3361E+00
     16.383  0.1624E-01  0.3380E+00
     16.503  0.1546E-01  0.3399E+00
     16.623  0.1920E-01  0.3422E+00
     16.743  0.2126E-01  0.3447E+00
     16.863  0.3208E-01  0.3486E+00
     16.983  0.2208E-01  0.3513E+00
     17.103  0.1529E-01  0.3531E+00
     17.223  0.1630E-01  0.3550E+00
     17.343  0.3121E-01  0.3588E+00
     17.463  0.2667E-01  0.3620E+00
     17.583  0.2538E-01  0.3650E+00
     17.703  0.1610E-01  0.3670E+00
     17.823  0.2627E-01  0.3701E+00
     17.943  0.3396E-01  0.3742E+00
     18.063  0.3479E-01  0.3784E+00
     18.183  0.3458E-01  0.3825E+00
     18.304  0.4161E-01  0.3875E+00
     18.424  0.2955E-01  0.3911E+00
     18.544  0.3158E-01  0.3949E+00
     18.664  0.3608E-01  0.3992E+00
     18.784  0.3570E-01  0.4035E+00
     18.904  0.4839E-01  0.4093E+00
     19.024  0.4422E-01  0.4146E+00
     19.144  0.6560E-01  0.4225E+00
     19.264  0.3922E-01  0.4272E+00
     19.384  0.2856E-01  0.4306E+00
     19.504  0.3579E-01  0.4349E+00
     19.624  0.2679E-01  0.4381E+00
     19.744  0.2421E-01  0.4410E+00
     19.864  0.1896E-01  0.4433E+00
     19.984  0.2825E-01  0.4467E+00
     20.104  0.4351E-01  0.4519E+00
     20.225  0.2387E-01  0.4548E+00
     20.345  0.2919E-01  0.4583E+00
     20.465  0.2837E-01  0.4617E+00
     20.585  0.2758E-01  0.4650E+00
     20.705  0.2215E-01  0.4677E+00
     20.825  0.1532E-01  0.4695E+00
     20.945  0.9814E-02  0.4707E+00
     21.065  0.2096E-01  0.4732E+00
     21.185  0.1496E-01  0.4750E+00
     21.305  0.1475E-01  0.4768E+00
     21.425  0.1206E-01  0.4782E+00
     21.545  0.3929E-02  0.4787E+00
     21.665  0.5507E-02  0.4794E+00
     21.785  0.1979E-02  0.4796E+00
     21.905  0.4098E-03  0.4797E+00
     22.025  0.1666E-06  0.4797E+00
     22.146  0.3660E-03  0.4797E+00
     22.266  0.2511E-02  0.4800E+00
     22.386  0.3687E-04  0.4800E+00
     22.506  0.2760E-10  0.4800E+00
     22.626  0.0000E+00  0.4800E+00
     22.746  0.0000E+00  0.4800E+00
     22.866  0.0000E+00  0.4800E+00
     22.986  0.0000E+00  0.4800E+00
     23.106  0.0000E+00  0.4800E+00
     23.226  0.0000E+00  0.4800E+00
     23.346  0.0000E+00  0.4800E+00
     23.466  0.0000E+00  0.4800E+00
     23.586  0.0000E+00  0.4800E+00
     23.706  0.0000E+00  0.4800E+00
     23.826  0.0000E+00  0.4800E+00
