       N       E                     dE             d eps       ncg     rms          rms(c)
DAV:   1     0.980877711884E+02    0.98088E+02   -0.25718E+04  4032   0.198E+03
DAV:   2    -0.724175939408E+02   -0.17051E+03   -0.16823E+03  6648   0.223E+02
DAV:   3    -0.750915100159E+02   -0.26739E+01   -0.26739E+01  4728   0.395E+01
DAV:   4    -0.751084727075E+02   -0.16963E-01   -0.16963E-01  7440   0.245E+00
DAV:   5    -0.751084752689E+02   -0.25613E-05   -0.25613E-05  4656   0.365E-02    0.161E+01
DAV:   6    -0.733928895284E+02    0.17156E+01   -0.12970E+00  4752   0.603E+00    0.105E+01
DAV:   7    -0.728186915938E+02    0.57420E+00   -0.16899E+00  5760   0.697E+00    0.216E+00
DAV:   8    -0.728172790869E+02    0.14125E-02   -0.23453E-02  6696   0.115E+00    0.119E-01
DAV:   9    -0.728174726034E+02   -0.19352E-03   -0.45513E-04  5616   0.141E-01    0.618E-02
DAV:  10    -0.728175965380E+02   -0.12393E-03   -0.11961E-04  6408   0.861E-02    0.473E-03
DAV:  11    -0.728175976413E+02   -0.11032E-05   -0.15547E-06  6144   0.973E-03    0.279E-03
DAV:  12    -0.728175980057E+02   -0.36447E-06   -0.77642E-08  6240   0.249E-03    0.162E-04
DAV:  13    -0.728175980164E+02   -0.10710E-07   -0.16109E-10  6264   0.962E-05    0.784E-05
DAV:  14    -0.728175980181E+02   -0.16971E-08   -0.90777E-11  5712   0.831E-05
   1 F= -.72817598E+02 E0= -.72817598E+02  d E =-.728176E+02
