 vasp.5.4.4.18Apr17-6-g9f103f2a35 (build Jan 14 2019 14:48:31) complex          
  
 executed on             LinuxIFC date 2019.08.26  21:15:05
 running on   24 total cores
 distrk:  each k-point on   24 cores,    1 groups
 distr:  one band on NCORES_PER_BAND=   1 cores,   24 groups


--------------------------------------------------------------------------------------------------------


 INCAR:
 POTCAR:    PAW_PBE C_h 06Feb2004                 

 ----------------------------------------------------------------------------- 
|                                                                             |
|           W    W    AA    RRRRR   N    N  II  N    N   GGGG   !!!           |
|           W    W   A  A   R    R  NN   N  II  NN   N  G    G  !!!           |
|           W    W  A    A  R    R  N N  N  II  N N  N  G       !!!           |
|           W WW W  AAAAAA  RRRRR   N  N N  II  N  N N  G  GGG   !            |
|           WW  WW  A    A  R   R   N   NN  II  N   NN  G    G                |
|           W    W  A    A  R    R  N    N  II  N    N   GGGG   !!!           |
|                                                                             |
|      For optimal performance we recommend to set                            |
|        NCORE= 4 - approx SQRT( number of cores)                             |
|      NCORE specifies how many cores store one orbital (NPAR=cpu/NCORE).     |
|      This setting can  greatly improve the performance of VASP for DFT.     |
|      The default,   NCORE=1            might be grossly inefficient         |
|      on modern multi-core architectures or massively parallel machines.     |
|      Do your own testing !!!!                                               |
|      Unfortunately you need to use the default for GW and RPA calculations. |
|      (for HF NCORE is supported but not extensively tested yet)             |
|                                                                             |
 ----------------------------------------------------------------------------- 

 POTCAR:    PAW_PBE C_h 06Feb2004                 
   VRHFIN =C: s2p2                                                              
   LEXCH  = PE                                                                  
   EATOM  =   147.1560 eV,   10.8157 Ry                                         
                                                                                
   TITEL  = PAW_PBE C_h 06Feb2004                                               
   LULTRA =        F    use ultrasoft PP ?                                      
   IUNSCR =        1    unscreen: 0-lin 1-nonlin 2-no                           
   RPACOR =    0.800    partial core radius                                     
   POMASS =   12.011; ZVAL   =    4.000    mass and valenz                      
   RCORE  =    1.100    outmost cutoff radius                                   
   RWIGS  =    1.630; RWIGS  =    0.863    wigner-seitz radius (au A)           
   ENMAX  =  700.000; ENMIN  =  500.000 eV                                      
   ICORE  =        2    local potential                                         
   LCOR   =        T    correct aug charges                                     
   LPAW   =        T    paw PP                                                  
   EAUG   =  946.768                                                            
   DEXC   =    0.000                                                            
   RMAX   =    1.128    core radius for proj-oper                               
   RAUG   =    1.300    factor for augmentation sphere                          
   RDEP   =    1.162    radius for radial grids                                 
   RDEPT  =    1.088    core radius for aug-charge                              
                                                                                
   Atomic configuration                                                         
    4 entries                                                                   
     n  l   j            E        occ.                                          
     1  0  0.50      -273.3789   2.0000                                         
     2  0  0.50       -13.7508   2.0000                                         
     2  1  0.50        -5.2854   2.0000                                         
     3  2  1.50        -5.4423   0.0000                                         
   Description                                                                  
     l       E           TYP  RCUT    TYP  RCUT                                 
     0    -13.7508458     23  1.100                                             
     0     -8.2022199     23  1.100                                             
     1     -5.2854383     23  1.100                                             
     1      1.1560700     23  1.100                                             
     2     -5.4423304      7  1.100                                             
  local pseudopotential read in
  partial core-charges read in
  partial kinetic energy density read in
  atomic valenz-charges read in
  non local Contribution for L=           0  read in
    real space projection operators read in
  non local Contribution for L=           0  read in
    real space projection operators read in
  non local Contribution for L=           1  read in
    real space projection operators read in
  non local Contribution for L=           1  read in
    real space projection operators read in
    PAW grid and wavefunctions read in
 
   number of l-projection  operators is LMAX  =           4
   number of lm-projection operators is LMMAX =           8
 
  PAW_PBE C_h 06Feb2004                 :
 energy of atom  1       EATOM= -147.1560
 kinetic energy error for atom=    0.0044 (will be added to EATOM!!)
 
 
 POSCAR: C8                                      
  positions in direct lattice
  velocities in cartesian coordinates
 exchange correlation table for  LEXCH =        8
   RHO(1)=    0.500       N(1)  =     2000
   RHO(2)=  100.500       N(2)  =     4000

 VTST: version 3.1, (03/28/14)

 CHAIN: initializing optimizer
 
 OPT: Using VASP Conjugate-Gradient optimizer
 CHAIN: Read ICHAIN            0
 
 POSCAR: C8                                      
  positions in direct lattice
  velocities in cartesian coordinates
 


--------------------------------------------------------------------------------------------------------


 ion  position               nearest neighbor table
   1  0.250  0.250  0.250-   2 1.56   4 1.56   6 1.56   8 1.56
   2  0.000  0.000  0.000-   1 1.56   3 1.56   5 1.56   7 1.56
   3  0.250  0.750  0.750-   2 1.56   4 1.56   6 1.56   8 1.56
   4  0.000  0.500  0.500-   1 1.56   3 1.56   5 1.56   7 1.56
   5  0.750  0.250  0.750-   2 1.56   4 1.56   6 1.56   8 1.56
   6  0.500  0.000  0.500-   1 1.56   3 1.56   5 1.56   7 1.56
   7  0.750  0.750  0.250-   2 1.56   4 1.56   6 1.56   8 1.56
   8  0.500  0.500  0.000-   1 1.56   3 1.56   5 1.56   7 1.56
 
  LATTYP: Found a simple cubic cell.
 ALAT       =     3.5974291048
  
  Lattice vectors:
  
 A1 = (   3.5974291048,   0.0000000000,   0.0000000000)
 A2 = (   0.0000000000,   3.5974291048,   0.0000000000)
 A3 = (   0.0000000000,   0.0000000000,   3.5974291048)


Analysis of symmetry for initial positions (statically):
=====================================================================
 Subroutine PRICEL returns following result:
 
  LATTYP: Found a face centered cubic cell.
 ALAT       =     3.5974291048
  
  Lattice vectors:
  
 A1 = (   1.7987145524,   1.7987145524,  -0.0000000000)
 A2 = (   1.7987145524,   0.0000000000,  -1.7987145524)
 A3 = (   0.0000000000,   1.7987145524,  -1.7987145524)
 
   4 primitive cells build up your supercell.
 

 Routine SETGRP: Setting up the symmetry group for a 
 simple cubic supercell.


 Subroutine GETGRP returns: Found 48 space group operations
 (whereof 24 operations were pure point group operations)
 out of a pool of 48 trial point group operations.


The static configuration has the point symmetry T_d .
 The point group associated with its full space group is O_h .


Analysis of symmetry for dynamics (positions and initial velocities):
=====================================================================
 Subroutine PRICEL returns following result:
 
  LATTYP: Found a face centered cubic cell.
 ALAT       =     3.5974291048
  
  Lattice vectors:
  
 A1 = (   1.7987145524,   1.7987145524,  -0.0000000000)
 A2 = (   1.7987145524,   0.0000000000,  -1.7987145524)
 A3 = (   0.0000000000,   1.7987145524,  -1.7987145524)
 
   4 primitive cells build up your supercell.
 

 Routine SETGRP: Setting up the symmetry group for a 
 simple cubic supercell.


 Subroutine GETGRP returns: Found 48 space group operations
 (whereof 24 operations were pure point group operations)
 out of a pool of 48 trial point group operations.


The dynamic configuration has the point symmetry T_d .
 The point group associated with its full space group is O_h .


 Subroutine INISYM returns: Found 48 space group operations
 (whereof 24 operations are pure point group operations),
 and found     4 'primitive' translations

 
 
 KPOINTS: K-Mesh Generated with KP-Resolved Value 

Automatic generation of k-mesh.
Space group operators:
 irot       det(A)        alpha          n_x          n_y          n_z        tau_x        tau_y        tau_z
    1     1.000000     0.000000     1.000000     0.000000     0.000000     0.000000     0.000000     0.000000
    2     1.000000   120.000000    -0.577350    -0.577350    -0.577350     0.000000     0.000000     0.000000
    3     1.000000   120.000000     0.577350     0.577350     0.577350     0.000000     0.000000     0.000000
    4    -1.000000    90.000000     0.000000     0.000000    -1.000000     0.000000     0.000000     0.000000
    5    -1.000000   180.000000     0.000000     0.707107     0.707107     0.000000     0.000000     0.000000
    6    -1.000000    90.000000     0.000000     1.000000     0.000000     0.000000     0.000000     0.000000
    7     1.000000   180.000000     0.000000     0.000000     1.000000     0.000000     0.000000     0.000000
    8     1.000000   120.000000    -0.577350     0.577350     0.577350     0.000000     0.000000     0.000000
    9     1.000000   120.000000    -0.577350     0.577350    -0.577350     0.000000     0.000000     0.000000
   10    -1.000000    90.000000     0.000000     0.000000     1.000000     0.000000     0.000000     0.000000
   11    -1.000000    90.000000    -1.000000     0.000000     0.000000     0.000000     0.000000     0.000000
   12    -1.000000   180.000000     0.707107     0.000000     0.707107     0.000000     0.000000     0.000000
   13     1.000000   120.000000     0.577350    -0.577350     0.577350     0.000000     0.000000     0.000000
   14     1.000000   120.000000    -0.577350    -0.577350     0.577350     0.000000     0.000000     0.000000
   15     1.000000   180.000000     1.000000     0.000000     0.000000     0.000000     0.000000     0.000000
   16    -1.000000    90.000000     0.000000    -1.000000     0.000000     0.000000     0.000000     0.000000
   17    -1.000000   180.000000     0.707107     0.707107     0.000000     0.000000     0.000000     0.000000
   18    -1.000000    90.000000     1.000000     0.000000     0.000000     0.000000     0.000000     0.000000
   19     1.000000   120.000000     0.577350    -0.577350    -0.577350     0.000000     0.000000     0.000000
   20     1.000000   180.000000     0.000000     1.000000     0.000000     0.000000     0.000000     0.000000
   21     1.000000   120.000000     0.577350     0.577350    -0.577350     0.000000     0.000000     0.000000
   22    -1.000000   180.000000     0.000000    -0.707107     0.707107     0.000000     0.000000     0.000000
   23    -1.000000   180.000000     0.707107    -0.707107     0.000000     0.000000     0.000000     0.000000
   24    -1.000000   180.000000     0.707107     0.000000    -0.707107     0.000000     0.000000     0.000000
   25    -1.000000     0.000000     1.000000     0.000000     0.000000     0.750000     0.750000    -0.750000
   26    -1.000000   120.000000    -0.577350    -0.577350    -0.577350     0.750000     0.750000    -0.750000
   27    -1.000000   120.000000     0.577350     0.577350     0.577350     0.750000     0.750000    -0.750000
   28     1.000000    90.000000     0.000000     0.000000    -1.000000     0.750000     0.750000    -0.750000
   29     1.000000   180.000000     0.000000     0.707107     0.707107     0.750000     0.750000    -0.750000
   30     1.000000    90.000000     0.000000     1.000000     0.000000     0.750000     0.750000    -0.750000
   31    -1.000000   180.000000     0.000000     0.000000     1.000000     0.750000     0.750000    -0.750000
   32    -1.000000   120.000000    -0.577350     0.577350     0.577350     0.750000     0.750000    -0.750000
   33    -1.000000   120.000000    -0.577350     0.577350    -0.577350     0.750000     0.750000    -0.750000
   34     1.000000    90.000000     0.000000     0.000000     1.000000     0.750000     0.750000    -0.750000
   35     1.000000    90.000000    -1.000000     0.000000     0.000000     0.750000     0.750000    -0.750000
   36     1.000000   180.000000     0.707107     0.000000     0.707107     0.750000     0.750000    -0.750000
   37    -1.000000   120.000000     0.577350    -0.577350     0.577350     0.750000     0.750000    -0.750000
   38    -1.000000   120.000000    -0.577350    -0.577350     0.577350     0.750000     0.750000    -0.750000
   39    -1.000000   180.000000     1.000000     0.000000     0.000000     0.750000     0.750000    -0.750000
   40     1.000000    90.000000     0.000000    -1.000000     0.000000     0.750000     0.750000    -0.750000
   41     1.000000   180.000000     0.707107     0.707107     0.000000     0.750000     0.750000    -0.750000
   42     1.000000    90.000000     1.000000     0.000000     0.000000     0.750000     0.750000    -0.750000
   43    -1.000000   120.000000     0.577350    -0.577350    -0.577350     0.750000     0.750000    -0.750000
   44    -1.000000   180.000000     0.000000     1.000000     0.000000     0.750000     0.750000    -0.750000
   45    -1.000000   120.000000     0.577350     0.577350    -0.577350     0.750000     0.750000    -0.750000
   46     1.000000   180.000000     0.000000    -0.707107     0.707107     0.750000     0.750000    -0.750000
   47     1.000000   180.000000     0.707107    -0.707107     0.000000     0.750000     0.750000    -0.750000
   48     1.000000   180.000000     0.707107     0.000000    -0.707107     0.750000     0.750000    -0.750000
 
 Subroutine IBZKPT returns following result:
 ===========================================
 
 Found     84 irreducible k-points:
 
 Following reciprocal coordinates:
            Coordinates               Weight
  0.035714  0.035714  0.035714      8.000000
  0.107143  0.035714  0.035714     24.000000
  0.178571  0.035714  0.035714     24.000000
  0.250000  0.035714  0.035714     24.000000
  0.321429  0.035714  0.035714     24.000000
  0.392857  0.035714  0.035714     24.000000
  0.464286  0.035714  0.035714     24.000000
  0.107143  0.107143  0.035714     24.000000
  0.178571  0.107143  0.035714     48.000000
  0.250000  0.107143  0.035714     48.000000
  0.321429  0.107143  0.035714     48.000000
  0.392857  0.107143  0.035714     48.000000
  0.464286  0.107143  0.035714     48.000000
  0.178571  0.178571  0.035714     24.000000
  0.250000  0.178571  0.035714     48.000000
  0.321429  0.178571  0.035714     48.000000
  0.392857  0.178571  0.035714     48.000000
  0.464286  0.178571  0.035714     48.000000
  0.250000  0.250000  0.035714     24.000000
  0.321429  0.250000  0.035714     48.000000
  0.392857  0.250000  0.035714     48.000000
  0.464286  0.250000  0.035714     48.000000
  0.321429  0.321429  0.035714     24.000000
  0.392857  0.321429  0.035714     48.000000
  0.464286  0.321429  0.035714     48.000000
  0.392857  0.392857  0.035714     24.000000
  0.464286  0.392857  0.035714     48.000000
  0.464286  0.464286  0.035714     24.000000
  0.107143  0.107143  0.107143      8.000000
  0.178571  0.107143  0.107143     24.000000
  0.250000  0.107143  0.107143     24.000000
  0.321429  0.107143  0.107143     24.000000
  0.392857  0.107143  0.107143     24.000000
  0.464286  0.107143  0.107143     24.000000
  0.178571  0.178571  0.107143     24.000000
  0.250000  0.178571  0.107143     48.000000
  0.321429  0.178571  0.107143     48.000000
  0.392857  0.178571  0.107143     48.000000
  0.464286  0.178571  0.107143     48.000000
  0.250000  0.250000  0.107143     24.000000
  0.321429  0.250000  0.107143     48.000000
  0.392857  0.250000  0.107143     48.000000
  0.464286  0.250000  0.107143     48.000000
  0.321429  0.321429  0.107143     24.000000
  0.392857  0.321429  0.107143     48.000000
  0.464286  0.321429  0.107143     48.000000
  0.392857  0.392857  0.107143     24.000000
  0.464286  0.392857  0.107143     48.000000
  0.464286  0.464286  0.107143     24.000000
  0.178571  0.178571  0.178571      8.000000
  0.250000  0.178571  0.178571     24.000000
  0.321429  0.178571  0.178571     24.000000
  0.392857  0.178571  0.178571     24.000000
  0.464286  0.178571  0.178571     24.000000
  0.250000  0.250000  0.178571     24.000000
  0.321429  0.250000  0.178571     48.000000
  0.392857  0.250000  0.178571     48.000000
  0.464286  0.250000  0.178571     48.000000
  0.321429  0.321429  0.178571     24.000000
  0.392857  0.321429  0.178571     48.000000
  0.464286  0.321429  0.178571     48.000000
  0.392857  0.392857  0.178571     24.000000
  0.464286  0.392857  0.178571     48.000000
  0.464286  0.464286  0.178571     24.000000
  0.250000  0.250000  0.250000      8.000000
  0.321429  0.250000  0.250000     24.000000
  0.392857  0.250000  0.250000     24.000000
  0.464286  0.250000  0.250000     24.000000
  0.321429  0.321429  0.250000     24.000000
  0.392857  0.321429  0.250000     48.000000
  0.464286  0.321429  0.250000     48.000000
  0.392857  0.392857  0.250000     24.000000
  0.464286  0.392857  0.250000     48.000000
  0.464286  0.464286  0.250000     24.000000
  0.321429  0.321429  0.321429      8.000000
  0.392857  0.321429  0.321429     24.000000
  0.464286  0.321429  0.321429     24.000000
  0.392857  0.392857  0.321429     24.000000
  0.464286  0.392857  0.321429     48.000000
  0.464286  0.464286  0.321429     24.000000
  0.392857  0.392857  0.392857      8.000000
  0.464286  0.392857  0.392857     24.000000
  0.464286  0.464286  0.392857     24.000000
  0.464286  0.464286  0.464286      8.000000
 
 Following cartesian coordinates:
            Coordinates               Weight
  0.009928  0.009928  0.009928      8.000000
  0.029783  0.009928  0.009928     24.000000
  0.049639  0.009928  0.009928     24.000000
  0.069494  0.009928  0.009928     24.000000
  0.089350  0.009928  0.009928     24.000000
  0.109205  0.009928  0.009928     24.000000
  0.129060  0.009928  0.009928     24.000000
  0.029783  0.029783  0.009928     24.000000
  0.049639  0.029783  0.009928     48.000000
  0.069494  0.029783  0.009928     48.000000
  0.089350  0.029783  0.009928     48.000000
  0.109205  0.029783  0.009928     48.000000
  0.129060  0.029783  0.009928     48.000000
  0.049639  0.049639  0.009928     24.000000
  0.069494  0.049639  0.009928     48.000000
  0.089350  0.049639  0.009928     48.000000
  0.109205  0.049639  0.009928     48.000000
  0.129060  0.049639  0.009928     48.000000
  0.069494  0.069494  0.009928     24.000000
  0.089350  0.069494  0.009928     48.000000
  0.109205  0.069494  0.009928     48.000000
  0.129060  0.069494  0.009928     48.000000
  0.089350  0.089350  0.009928     24.000000
  0.109205  0.089350  0.009928     48.000000
  0.129060  0.089350  0.009928     48.000000
  0.109205  0.109205  0.009928     24.000000
  0.129060  0.109205  0.009928     48.000000
  0.129060  0.129060  0.009928     24.000000
  0.029783  0.029783  0.029783      8.000000
  0.049639  0.029783  0.029783     24.000000
  0.069494  0.029783  0.029783     24.000000
  0.089350  0.029783  0.029783     24.000000
  0.109205  0.029783  0.029783     24.000000
  0.129060  0.029783  0.029783     24.000000
  0.049639  0.049639  0.029783     24.000000
  0.069494  0.049639  0.029783     48.000000
  0.089350  0.049639  0.029783     48.000000
  0.109205  0.049639  0.029783     48.000000
  0.129060  0.049639  0.029783     48.000000
  0.069494  0.069494  0.029783     24.000000
  0.089350  0.069494  0.029783     48.000000
  0.109205  0.069494  0.029783     48.000000
  0.129060  0.069494  0.029783     48.000000
  0.089350  0.089350  0.029783     24.000000
  0.109205  0.089350  0.029783     48.000000
  0.129060  0.089350  0.029783     48.000000
  0.109205  0.109205  0.029783     24.000000
  0.129060  0.109205  0.029783     48.000000
  0.129060  0.129060  0.029783     24.000000
  0.049639  0.049639  0.049639      8.000000
  0.069494  0.049639  0.049639     24.000000
  0.089350  0.049639  0.049639     24.000000
  0.109205  0.049639  0.049639     24.000000
  0.129060  0.049639  0.049639     24.000000
  0.069494  0.069494  0.049639     24.000000
  0.089350  0.069494  0.049639     48.000000
  0.109205  0.069494  0.049639     48.000000
  0.129060  0.069494  0.049639     48.000000
  0.089350  0.089350  0.049639     24.000000
  0.109205  0.089350  0.049639     48.000000
  0.129060  0.089350  0.049639     48.000000
  0.109205  0.109205  0.049639     24.000000
  0.129060  0.109205  0.049639     48.000000
  0.129060  0.129060  0.049639     24.000000
  0.069494  0.069494  0.069494      8.000000
  0.089350  0.069494  0.069494     24.000000
  0.109205  0.069494  0.069494     24.000000
  0.129060  0.069494  0.069494     24.000000
  0.089350  0.089350  0.069494     24.000000
  0.109205  0.089350  0.069494     48.000000
  0.129060  0.089350  0.069494     48.000000
  0.109205  0.109205  0.069494     24.000000
  0.129060  0.109205  0.069494     48.000000
  0.129060  0.129060  0.069494     24.000000
  0.089350  0.089350  0.089350      8.000000
  0.109205  0.089350  0.089350     24.000000
  0.129060  0.089350  0.089350     24.000000
  0.109205  0.109205  0.089350     24.000000
  0.129060  0.109205  0.089350     48.000000
  0.129060  0.129060  0.089350     24.000000
  0.109205  0.109205  0.109205      8.000000
  0.129060  0.109205  0.109205     24.000000
  0.129060  0.129060  0.109205     24.000000
  0.129060  0.129060  0.129060      8.000000
 


--------------------------------------------------------------------------------------------------------




 Dimension of arrays:
   k-points           NKPTS =     84   k-points in BZ     NKDIM =     84   number of bands    NBANDS=     24
   number of dos      NEDOS =    301   number of ions     NIONS =      8
   non local maximal  LDIM  =      4   non local SUM 2l+1 LMDIM =      8
   total plane-waves  NPLWV =  46656
   max r-space proj   IRMAX =      1   max aug-charges    IRDMAX=  15956
   dimension x,y,z NGX =    36 NGY =   36 NGZ =   36
   dimension x,y,z NGXF=    48 NGYF=   48 NGZF=   48
   support grid    NGXF=    96 NGYF=   96 NGZF=   96
   ions per type =               8
   NGX,Y,Z   is equivalent  to a cutoff of  16.64, 16.64, 16.64 a.u.
   NGXF,Y,Z  is equivalent  to a cutoff of  22.18, 22.18, 22.18 a.u.

 SYSTEM =  unknown system                          
 POSCAR =  C8                                      

 Startparameter for this run:
   NWRITE =      2    write-flag & timer
   PREC   = high      normal or accurate (medium, high low for compatibility)
   ISTART =      0    job   : 0-new  1-cont  2-samecut
   ICHARG =      2    charge: 1-file 2-atom 10-const
   ISPIN  =      1    spin polarized calculation?
   LNONCOLLINEAR =      F non collinear calculations
   LSORBIT =      F    spin-orbit coupling
   INIWAV =      1    electr: 0-lowe 1-rand  2-diag
   LASPH  =      F    aspherical Exc in radial PAW
   METAGGA=      F    non-selfconsistent MetaGGA calc.

 Electronic Relaxation 1
   ENCUT  =  875.0 eV  64.31 Ry    8.02 a.u.   8.68  8.68  8.68*2*pi/ulx,y,z
   ENINI  =  875.0     initial cutoff
   ENAUG  =  946.8 eV  augmentation charge cutoff
   NELM   =     40;   NELMIN=  4; NELMDL= -5     # of ELM steps 
   EDIFF  = 0.1E-07   stopping-criterion for ELM
   LREAL  =      F    real-space projection
   NLSPLINE    = F    spline interpolate recip. space projectors
   LCOMPAT=      F    compatible to vasp.4.4
   GGA_COMPAT  = T    GGA compatible to vasp.4.4-vasp.4.6
   LMAXPAW     = -100 max onsite density
   LMAXMIX     =    2 max onsite mixed and CHGCAR
   VOSKOWN=      0    Vosko Wilk Nusair interpolation
   ROPT   =    0.00000
 Ionic relaxation
   EDIFFG = -.1E-01   stopping-criterion for IOM
   NSW    =    100    number of steps for IOM
   NBLOCK =      1;   KBLOCK =    100    inner block; outer block 
   IBRION =      2    ionic relax: 0-MD 1-quasi-New 2-CG
   NFREE  =      1    steps in history (QN), initial steepest desc. (CG)
   ISIF   =      2    stress and relaxation
   IWAVPR =     11    prediction:  0-non 1-charg 2-wave 3-comb
   ISYM   =      2    0-nonsym 1-usesym 2-fastsym
   LCORR  =      T    Harris-Foulkes like correction to forces

   POTIM  = 0.5000    time-step for ionic-motion
   TEIN   =    0.0    initial temperature
   TEBEG  =    0.0;   TEEND  =   0.0 temperature during run
   SMASS  =  -3.00    Nose mass-parameter (am)
   estimated Nose-frequenzy (Omega)   =  0.10E-29 period in steps =****** mass=  -0.296E-27a.u.
   SCALEE = 1.0000    scale energy and forces
   NPACO  =    256;   APACO  = 16.0  distance and # of slots for P.C.
   PSTRESS=    0.0 pullay stress

  Mass of Ions in am
   POMASS =  12.01
  Ionic Valenz
   ZVAL   =   4.00
  Atomic Wigner-Seitz radii
   RWIGS  =  -1.00
  virtual crystal weights 
   VCA    =   1.00
   NELECT =      32.0000    total number of electrons
   NUPDOWN=      -1.0000    fix difference up-down

 DOS related values:
   EMIN   =  10.00;   EMAX   =-10.00  energy-range for DOS
   EFERMI =   0.00
   ISMEAR =     0;   SIGMA  =   0.05  broadening in eV -4-tet -1-fermi 0-gaus

 Electronic relaxation 2 (details)
   IALGO  =     38    algorithm
   LDIAG  =      T    sub-space diagonalisation (order eigenvalues)
   LSUBROT=      F    optimize rotation matrix (better conditioning)
   TURBO    =      0    0=normal 1=particle mesh
   IRESTART =      0    0=no restart 2=restart with 2 vectors
   NREBOOT  =      0    no. of reboots
   NMIN     =      0    reboot dimension
   EREF     =   0.00    reference energy to select bands
   IMIX   =      4    mixing-type and parameters
     AMIX     =   0.40;   BMIX     =  1.00
     AMIX_MAG =   1.60;   BMIX_MAG =  1.00
     AMIN     =   0.10
     WC   =   100.;   INIMIX=   1;  MIXPRE=   1;  MAXMIX= -45

 Intra band minimization:
   WEIMIN = 0.0010     energy-eigenvalue tresh-hold
   EBREAK =  0.10E-09  absolut break condition
   DEPER  =   0.30     relativ break condition  

   TIME   =   0.40     timestep for ELM

  volume/ion in A,a.u.               =       5.82        39.27
  Fermi-wavevector in a.u.,A,eV,Ry     =   1.444772  2.730223 28.400331  2.087365
  Thomas-Fermi vector in A             =   2.563029
 
 Write flags
   LWAVE        =      F    write WAVECAR
   LDOWNSAMPLE  =      F    k-point downsampling of WAVECAR
   LCHARG       =      F    write CHGCAR
   LVTOT        =      F    write LOCPOT, total local potential
   LVHAR        =      F    write LOCPOT, Hartree potential only
   LELF         =      F    write electronic localiz. function (ELF)
   LORBIT       =      0    0 simple, 1 ext, 2 COOP (PROOUT), +10 PAW based schemes


 Dipole corrections
   LMONO  =      F    monopole corrections only (constant potential shift)
   LDIPOL =      F    correct potential (dipole corrections)
   IDIPOL =      0    1-x, 2-y, 3-z, 4-all directions 
   EPSILON=  1.0000000 bulk dielectric constant

 Exchange correlation treatment:
   GGA     =    --    GGA type
   LEXCH   =     8    internal setting for exchange type
   VOSKOWN=      0    Vosko Wilk Nusair interpolation
   LHFCALC =     F    Hartree Fock is set to
   LHFONE  =     F    Hartree Fock one center treatment
   AEXX    =    0.0000 exact exchange contribution

 Linear response parameters
   LEPSILON=     F    determine dielectric tensor
   LRPA    =     F    only Hartree local field effects (RPA)
   LNABLA  =     F    use nabla operator in PAW spheres
   LVEL    =     F    velocity operator in full k-point grid
   LINTERFAST=   F  fast interpolation
   KINTER  =     0    interpolate to denser k-point grid
   CSHIFT  =0.1000    complex shift for real part using Kramers Kronig
   OMEGAMAX=  -1.0    maximum frequency
   DEG_THRESHOLD= 0.2000000E-02 threshold for treating states as degnerate
   RTIME   =   -0.100 relaxation time in fs
  (WPLASMAI=    0.000 imaginary part of plasma frequency in eV, 0.658/RTIME)
   DFIELD  = 0.0000000 0.0000000 0.0000000 field for delta impulse in time
 
 Orbital magnetization related:
   ORBITALMAG=     F  switch on orbital magnetization
   LCHIMAG   =     F  perturbation theory with respect to B field
   DQ        =  0.001000  dq finite difference perturbation B field
   LLRAUG    =     F  two centre corrections for induced B field



--------------------------------------------------------------------------------------------------------


 conjugate gradient relaxation of ions
 charge density and potential will be updated during run
 non-spin polarized calculation
 Variant of blocked Davidson
 Davidson routine will perform the subspace rotation
 perform sub-space diagonalisation
    after iterative eigenvector-optimisation
 modified Broyden-mixing scheme, WC =      100.0
 initial mixing is a Kerker type mixing with AMIX =  0.4000 and BMIX =      1.0000
 Hartree-type preconditioning will be used
 using additional bands            8
 reciprocal scheme for non local part
 use partial core corrections
 calculate Harris-corrections to forces 
   (improved forces if not selfconsistent)
 use gradient corrections 
 use of overlap-Matrix (Vanderbilt PP)
 Gauss-broadening in eV      SIGMA  =   0.05


--------------------------------------------------------------------------------------------------------


  energy-cutoff  :      875.00
  volume of cell :       46.56
      direct lattice vectors                 reciprocal lattice vectors
     3.597429105  0.000000000  0.000000000     0.277976291  0.000000000  0.000000000
     0.000000000  3.597429105  0.000000000     0.000000000  0.277976291  0.000000000
     0.000000000  0.000000000  3.597429105     0.000000000  0.000000000  0.277976291

  length of vectors
     3.597429105  3.597429105  3.597429105     0.277976291  0.277976291  0.277976291


 
 k-points in units of 2pi/SCALE and weight: K-Mesh Generated with KP-Resolved Value 
   0.00992772  0.00992772  0.00992772       0.003
   0.02978317  0.00992772  0.00992772       0.009
   0.04963862  0.00992772  0.00992772       0.009
   0.06949407  0.00992772  0.00992772       0.009
   0.08934952  0.00992772  0.00992772       0.009
   0.10920497  0.00992772  0.00992772       0.009
   0.12906042  0.00992772  0.00992772       0.009
   0.02978317  0.02978317  0.00992772       0.009
   0.04963862  0.02978317  0.00992772       0.017
   0.06949407  0.02978317  0.00992772       0.017
   0.08934952  0.02978317  0.00992772       0.017
   0.10920497  0.02978317  0.00992772       0.017
   0.12906042  0.02978317  0.00992772       0.017
   0.04963862  0.04963862  0.00992772       0.009
   0.06949407  0.04963862  0.00992772       0.017
   0.08934952  0.04963862  0.00992772       0.017
   0.10920497  0.04963862  0.00992772       0.017
   0.12906042  0.04963862  0.00992772       0.017
   0.06949407  0.06949407  0.00992772       0.009
   0.08934952  0.06949407  0.00992772       0.017
   0.10920497  0.06949407  0.00992772       0.017
   0.12906042  0.06949407  0.00992772       0.017
   0.08934952  0.08934952  0.00992772       0.009
   0.10920497  0.08934952  0.00992772       0.017
   0.12906042  0.08934952  0.00992772       0.017
   0.10920497  0.10920497  0.00992772       0.009
   0.12906042  0.10920497  0.00992772       0.017
   0.12906042  0.12906042  0.00992772       0.009
   0.02978317  0.02978317  0.02978317       0.003
   0.04963862  0.02978317  0.02978317       0.009
   0.06949407  0.02978317  0.02978317       0.009
   0.08934952  0.02978317  0.02978317       0.009
   0.10920497  0.02978317  0.02978317       0.009
   0.12906042  0.02978317  0.02978317       0.009
   0.04963862  0.04963862  0.02978317       0.009
   0.06949407  0.04963862  0.02978317       0.017
   0.08934952  0.04963862  0.02978317       0.017
   0.10920497  0.04963862  0.02978317       0.017
   0.12906042  0.04963862  0.02978317       0.017
   0.06949407  0.06949407  0.02978317       0.009
   0.08934952  0.06949407  0.02978317       0.017
   0.10920497  0.06949407  0.02978317       0.017
   0.12906042  0.06949407  0.02978317       0.017
   0.08934952  0.08934952  0.02978317       0.009
   0.10920497  0.08934952  0.02978317       0.017
   0.12906042  0.08934952  0.02978317       0.017
   0.10920497  0.10920497  0.02978317       0.009
   0.12906042  0.10920497  0.02978317       0.017
   0.12906042  0.12906042  0.02978317       0.009
   0.04963862  0.04963862  0.04963862       0.003
   0.06949407  0.04963862  0.04963862       0.009
   0.08934952  0.04963862  0.04963862       0.009
   0.10920497  0.04963862  0.04963862       0.009
   0.12906042  0.04963862  0.04963862       0.009
   0.06949407  0.06949407  0.04963862       0.009
   0.08934952  0.06949407  0.04963862       0.017
   0.10920497  0.06949407  0.04963862       0.017
   0.12906042  0.06949407  0.04963862       0.017
   0.08934952  0.08934952  0.04963862       0.009
   0.10920497  0.08934952  0.04963862       0.017
   0.12906042  0.08934952  0.04963862       0.017
   0.10920497  0.10920497  0.04963862       0.009
   0.12906042  0.10920497  0.04963862       0.017
   0.12906042  0.12906042  0.04963862       0.009
   0.06949407  0.06949407  0.06949407       0.003
   0.08934952  0.06949407  0.06949407       0.009
   0.10920497  0.06949407  0.06949407       0.009
   0.12906042  0.06949407  0.06949407       0.009
   0.08934952  0.08934952  0.06949407       0.009
   0.10920497  0.08934952  0.06949407       0.017
   0.12906042  0.08934952  0.06949407       0.017
   0.10920497  0.10920497  0.06949407       0.009
   0.12906042  0.10920497  0.06949407       0.017
   0.12906042  0.12906042  0.06949407       0.009
   0.08934952  0.08934952  0.08934952       0.003
   0.10920497  0.08934952  0.08934952       0.009
   0.12906042  0.08934952  0.08934952       0.009
   0.10920497  0.10920497  0.08934952       0.009
   0.12906042  0.10920497  0.08934952       0.017
   0.12906042  0.12906042  0.08934952       0.009
   0.10920497  0.10920497  0.10920497       0.003
   0.12906042  0.10920497  0.10920497       0.009
   0.12906042  0.12906042  0.10920497       0.009
   0.12906042  0.12906042  0.12906042       0.003
 
 k-points in reciprocal lattice and weights: K-Mesh Generated with KP-Resolved Value 
   0.03571429  0.03571429  0.03571429       0.003
   0.10714286  0.03571429  0.03571429       0.009
   0.17857143  0.03571429  0.03571429       0.009
   0.25000000  0.03571429  0.03571429       0.009
   0.32142857  0.03571429  0.03571429       0.009
   0.39285714  0.03571429  0.03571429       0.009
   0.46428571  0.03571429  0.03571429       0.009
   0.10714286  0.10714286  0.03571429       0.009
   0.17857143  0.10714286  0.03571429       0.017
   0.25000000  0.10714286  0.03571429       0.017
   0.32142857  0.10714286  0.03571429       0.017
   0.39285714  0.10714286  0.03571429       0.017
   0.46428571  0.10714286  0.03571429       0.017
   0.17857143  0.17857143  0.03571429       0.009
   0.25000000  0.17857143  0.03571429       0.017
   0.32142857  0.17857143  0.03571429       0.017
   0.39285714  0.17857143  0.03571429       0.017
   0.46428571  0.17857143  0.03571429       0.017
   0.25000000  0.25000000  0.03571429       0.009
   0.32142857  0.25000000  0.03571429       0.017
   0.39285714  0.25000000  0.03571429       0.017
   0.46428571  0.25000000  0.03571429       0.017
   0.32142857  0.32142857  0.03571429       0.009
   0.39285714  0.32142857  0.03571429       0.017
   0.46428571  0.32142857  0.03571429       0.017
   0.39285714  0.39285714  0.03571429       0.009
   0.46428571  0.39285714  0.03571429       0.017
   0.46428571  0.46428571  0.03571429       0.009
   0.10714286  0.10714286  0.10714286       0.003
   0.17857143  0.10714286  0.10714286       0.009
   0.25000000  0.10714286  0.10714286       0.009
   0.32142857  0.10714286  0.10714286       0.009
   0.39285714  0.10714286  0.10714286       0.009
   0.46428571  0.10714286  0.10714286       0.009
   0.17857143  0.17857143  0.10714286       0.009
   0.25000000  0.17857143  0.10714286       0.017
   0.32142857  0.17857143  0.10714286       0.017
   0.39285714  0.17857143  0.10714286       0.017
   0.46428571  0.17857143  0.10714286       0.017
   0.25000000  0.25000000  0.10714286       0.009
   0.32142857  0.25000000  0.10714286       0.017
   0.39285714  0.25000000  0.10714286       0.017
   0.46428571  0.25000000  0.10714286       0.017
   0.32142857  0.32142857  0.10714286       0.009
   0.39285714  0.32142857  0.10714286       0.017
   0.46428571  0.32142857  0.10714286       0.017
   0.39285714  0.39285714  0.10714286       0.009
   0.46428571  0.39285714  0.10714286       0.017
   0.46428571  0.46428571  0.10714286       0.009
   0.17857143  0.17857143  0.17857143       0.003
   0.25000000  0.17857143  0.17857143       0.009
   0.32142857  0.17857143  0.17857143       0.009
   0.39285714  0.17857143  0.17857143       0.009
   0.46428571  0.17857143  0.17857143       0.009
   0.25000000  0.25000000  0.17857143       0.009
   0.32142857  0.25000000  0.17857143       0.017
   0.39285714  0.25000000  0.17857143       0.017
   0.46428571  0.25000000  0.17857143       0.017
   0.32142857  0.32142857  0.17857143       0.009
   0.39285714  0.32142857  0.17857143       0.017
   0.46428571  0.32142857  0.17857143       0.017
   0.39285714  0.39285714  0.17857143       0.009
   0.46428571  0.39285714  0.17857143       0.017
   0.46428571  0.46428571  0.17857143       0.009
   0.25000000  0.25000000  0.25000000       0.003
   0.32142857  0.25000000  0.25000000       0.009
   0.39285714  0.25000000  0.25000000       0.009
   0.46428571  0.25000000  0.25000000       0.009
   0.32142857  0.32142857  0.25000000       0.009
   0.39285714  0.32142857  0.25000000       0.017
   0.46428571  0.32142857  0.25000000       0.017
   0.39285714  0.39285714  0.25000000       0.009
   0.46428571  0.39285714  0.25000000       0.017
   0.46428571  0.46428571  0.25000000       0.009
   0.32142857  0.32142857  0.32142857       0.003
   0.39285714  0.32142857  0.32142857       0.009
   0.46428571  0.32142857  0.32142857       0.009
   0.39285714  0.39285714  0.32142857       0.009
   0.46428571  0.39285714  0.32142857       0.017
   0.46428571  0.46428571  0.32142857       0.009
   0.39285714  0.39285714  0.39285714       0.003
   0.46428571  0.39285714  0.39285714       0.009
   0.46428571  0.46428571  0.39285714       0.009
   0.46428571  0.46428571  0.46428571       0.003
 
 position of ions in fractional coordinates (direct lattice) 
   0.25000000  0.25000000  0.25000000
   0.00000000  0.00000000  0.00000000
   0.25000000  0.75000000  0.75000000
   0.00000000  0.50000000  0.50000000
   0.75000000  0.25000000  0.75000000
   0.50000000  0.00000000  0.50000000
   0.75000000  0.75000000  0.25000000
   0.50000000  0.50000000  0.00000000
 
 position of ions in cartesian coordinates  (Angst):
   0.89935728  0.89935728  0.89935728
   0.00000000  0.00000000  0.00000000
   0.89935728  2.69807183  2.69807183
   0.00000000  1.79871455  1.79871455
   2.69807183  0.89935728  2.69807183
   1.79871455  0.00000000  1.79871455
   2.69807183  2.69807183  0.89935728
   1.79871455  1.79871455  0.00000000
 


--------------------------------------------------------------------------------------------------------


 k-point  1 :   0.0357 0.0357 0.0357  plane waves:    2764
 k-point  2 :   0.1071 0.0357 0.0357  plane waves:    2742
 k-point  3 :   0.1786 0.0357 0.0357  plane waves:    2740
 k-point  4 :   0.2500 0.0357 0.0357  plane waves:    2746
 k-point  5 :   0.3214 0.0357 0.0357  plane waves:    2744
 k-point  6 :   0.3929 0.0357 0.0357  plane waves:    2756
 k-point  7 :   0.4643 0.0357 0.0357  plane waves:    2747
 k-point  8 :   0.1071 0.1071 0.0357  plane waves:    2741
 k-point  9 :   0.1786 0.1071 0.0357  plane waves:    2740
 k-point 10 :   0.2500 0.1071 0.0357  plane waves:    2739
 k-point 11 :   0.3214 0.1071 0.0357  plane waves:    2746
 k-point 12 :   0.3929 0.1071 0.0357  plane waves:    2742
 k-point 13 :   0.4643 0.1071 0.0357  plane waves:    2747
 k-point 14 :   0.1786 0.1786 0.0357  plane waves:    2736
 k-point 15 :   0.2500 0.1786 0.0357  plane waves:    2731
 k-point 16 :   0.3214 0.1786 0.0357  plane waves:    2739
 k-point 17 :   0.3929 0.1786 0.0357  plane waves:    2743
 k-point 18 :   0.4643 0.1786 0.0357  plane waves:    2739
 k-point 19 :   0.2500 0.2500 0.0357  plane waves:    2733
 k-point 20 :   0.3214 0.2500 0.0357  plane waves:    2729
 k-point 21 :   0.3929 0.2500 0.0357  plane waves:    2734
 k-point 22 :   0.4643 0.2500 0.0357  plane waves:    2736
 k-point 23 :   0.3214 0.3214 0.0357  plane waves:    2719
 k-point 24 :   0.3929 0.3214 0.0357  plane waves:    2726
 k-point 25 :   0.4643 0.3214 0.0357  plane waves:    2729
 k-point 26 :   0.3929 0.3929 0.0357  plane waves:    2726
 k-point 27 :   0.4643 0.3929 0.0357  plane waves:    2730
 k-point 28 :   0.4643 0.4643 0.0357  plane waves:    2724
 k-point 29 :   0.1071 0.1071 0.1071  plane waves:    2731
 k-point 30 :   0.1786 0.1071 0.1071  plane waves:    2743
 k-point 31 :   0.2500 0.1071 0.1071  plane waves:    2749
 k-point 32 :   0.3214 0.1071 0.1071  plane waves:    2741
 k-point 33 :   0.3929 0.1071 0.1071  plane waves:    2739
 k-point 34 :   0.4643 0.1071 0.1071  plane waves:    2740
 k-point 35 :   0.1786 0.1786 0.1071  plane waves:    2734
 k-point 36 :   0.2500 0.1786 0.1071  plane waves:    2730
 k-point 37 :   0.3214 0.1786 0.1071  plane waves:    2734
 k-point 38 :   0.3929 0.1786 0.1071  plane waves:    2739
 k-point 39 :   0.4643 0.1786 0.1071  plane waves:    2740
 k-point 40 :   0.2500 0.2500 0.1071  plane waves:    2734
 k-point 41 :   0.3214 0.2500 0.1071  plane waves:    2732
 k-point 42 :   0.3929 0.2500 0.1071  plane waves:    2734
 k-point 43 :   0.4643 0.2500 0.1071  plane waves:    2734
 k-point 44 :   0.3214 0.3214 0.1071  plane waves:    2726
 k-point 45 :   0.3929 0.3214 0.1071  plane waves:    2731
 k-point 46 :   0.4643 0.3214 0.1071  plane waves:    2736
 k-point 47 :   0.3929 0.3929 0.1071  plane waves:    2731
 k-point 48 :   0.4643 0.3929 0.1071  plane waves:    2734
 k-point 49 :   0.4643 0.4643 0.1071  plane waves:    2741
 k-point 50 :   0.1786 0.1786 0.1786  plane waves:    2731
 k-point 51 :   0.2500 0.1786 0.1786  plane waves:    2740
 k-point 52 :   0.3214 0.1786 0.1786  plane waves:    2743
 k-point 53 :   0.3929 0.1786 0.1786  plane waves:    2735
 k-point 54 :   0.4643 0.1786 0.1786  plane waves:    2745
 k-point 55 :   0.2500 0.2500 0.1786  plane waves:    2739
 k-point 56 :   0.3214 0.2500 0.1786  plane waves:    2737
 k-point 57 :   0.3929 0.2500 0.1786  plane waves:    2734
 k-point 58 :   0.4643 0.2500 0.1786  plane waves:    2740
 k-point 59 :   0.3214 0.3214 0.1786  plane waves:    2729
 k-point 60 :   0.3929 0.3214 0.1786  plane waves:    2737
 k-point 61 :   0.4643 0.3214 0.1786  plane waves:    2739
 k-point 62 :   0.3929 0.3929 0.1786  plane waves:    2735
 k-point 63 :   0.4643 0.3929 0.1786  plane waves:    2737
 k-point 64 :   0.4643 0.4643 0.1786  plane waves:    2729
 k-point 65 :   0.2500 0.2500 0.2500  plane waves:    2740
 k-point 66 :   0.3214 0.2500 0.2500  plane waves:    2744
 k-point 67 :   0.3929 0.2500 0.2500  plane waves:    2737
 k-point 68 :   0.4643 0.2500 0.2500  plane waves:    2733
 k-point 69 :   0.3214 0.3214 0.2500  plane waves:    2742
 k-point 70 :   0.3929 0.3214 0.2500  plane waves:    2731
 k-point 71 :   0.4643 0.3214 0.2500  plane waves:    2732
 k-point 72 :   0.3929 0.3929 0.2500  plane waves:    2736
 k-point 73 :   0.4643 0.3929 0.2500  plane waves:    2739
 k-point 74 :   0.4643 0.4643 0.2500  plane waves:    2729
 k-point 75 :   0.3214 0.3214 0.3214  plane waves:    2725
 k-point 76 :   0.3929 0.3214 0.3214  plane waves:    2733
 k-point 77 :   0.4643 0.3214 0.3214  plane waves:    2735
 k-point 78 :   0.3929 0.3929 0.3214  plane waves:    2731
 k-point 79 :   0.4643 0.3929 0.3214  plane waves:    2733
 k-point 80 :   0.4643 0.4643 0.3214  plane waves:    2724
 k-point 81 :   0.3929 0.3929 0.3929  plane waves:    2734
 k-point 82 :   0.4643 0.3929 0.3929  plane waves:    2733
 k-point 83 :   0.4643 0.4643 0.3929  plane waves:    2736
 k-point 84 :   0.4643 0.4643 0.4643  plane waves:    2746

 maximum and minimum number of plane-waves per node :      2764     2719

 maximum number of plane-waves:      2764
 maximum index in each direction: 
   IXMAX=    8   IYMAX=    8   IZMAX=    8
   IXMIN=   -9   IYMIN=   -9   IZMIN=   -9


 serial   3D FFT for wavefunctions
 parallel 3D FFT for charge:
    minimum data exchange during FFTs selected (reduces bandwidth)


 total amount of memory used by VASP MPI-rank0    52204. kBytes
=======================================================================

   base      :      30000. kBytes
   nonl-proj :      15323. kBytes
   fftplans  :        905. kBytes
   grid      :       2114. kBytes
   one-center:         24. kBytes
   wavefun   :       3838. kBytes
 
     INWAV:  cpu time    0.0000: real time    0.0000
 Broyden mixing: mesh for mixing (old mesh)
   NGX = 17   NGY = 17   NGZ = 17
  (NGX  = 48   NGY  = 48   NGZ  = 48)
  gives a total of   4913 points

 initial charge density was supplied:
 charge density of overlapping atoms calculated
 number of electron      32.0000000 magnetization 
 keeping initial charge density in first step


--------------------------------------------------------------------------------------------------------


 Maximum index for augmentation-charges          749 (set IRDMAX)


--------------------------------------------------------------------------------------------------------


 First call to EWALD:  gamma=   0.493
 Maximum number of real-space cells 3x 3x 3
 Maximum number of reciprocal cells 3x 3x 3

    FEWALD:  cpu time    0.0020: real time    0.0042


--------------------------------------- Iteration      1(   1)  ---------------------------------------


    POTLOK:  cpu time    0.0160: real time    0.0374
    SETDIJ:  cpu time    0.0150: real time    0.0217
     EDDAV:  cpu time    1.3578: real time    1.4541
       DOS:  cpu time    0.0030: real time    0.0129
    --------------------------------------------
      LOOP:  cpu time    1.3918: real time    1.5264

 eigenvalue-minimisations  :  4032
 total energy-change (2. order) : 0.9808777E+02  (-0.2571770E+04)
 number of electron      32.0000000 magnetization 
 augmentation part       32.0000000 magnetization 

 Free energy of the ion-electron system (eV)
  ---------------------------------------------------
  alpha Z        PSCENC =        75.36126283
  Ewald energy   TEWEN  =     -1379.98548272
  -Hartree energ DENC   =       -72.24267606
  -exchange      EXHF   =         0.00000000
  -V(xc)+E(xc)   XCENC  =        61.54653018
  PAW double counting   =       914.77613359     -872.73161751
  entropy T*S    EENTRO =        -0.00136869
  eigenvalues    EBANDS =       194.15221691
  atomic energy  EATOM  =      1177.21277265
  Solvation  Ediel_sol  =         0.00000000
  ---------------------------------------------------
  free energy    TOTEN  =        98.08777119 eV

  energy without entropy =       98.08913988  energy(sigma->0) =       98.08845554


--------------------------------------------------------------------------------------------------------




--------------------------------------- Iteration      1(   2)  ---------------------------------------


     EDDAV:  cpu time    2.3806: real time    2.4108
       DOS:  cpu time    0.0010: real time    0.0006
    --------------------------------------------
      LOOP:  cpu time    2.3816: real time    2.4114

 eigenvalue-minimisations  :  6648
 total energy-change (2. order) :-0.1705054E+03  (-0.1682329E+03)
 number of electron      32.0000000 magnetization 
 augmentation part       32.0000000 magnetization 

 Free energy of the ion-electron system (eV)
  ---------------------------------------------------
  alpha Z        PSCENC =        75.36126283
  Ewald energy   TEWEN  =     -1379.98548272
  -Hartree energ DENC   =       -72.24267606
  -exchange      EXHF   =         0.00000000
  -V(xc)+E(xc)   XCENC  =        61.54653018
  PAW double counting   =       914.77613359     -872.73161751
  entropy T*S    EENTRO =        -0.00000000
  eigenvalues    EBANDS =        23.64548309
  atomic energy  EATOM  =      1177.21277265
  Solvation  Ediel_sol  =         0.00000000
  ---------------------------------------------------
  free energy    TOTEN  =       -72.41759394 eV

  energy without entropy =      -72.41759394  energy(sigma->0) =      -72.41759394


--------------------------------------------------------------------------------------------------------




--------------------------------------- Iteration      1(   3)  ---------------------------------------


     EDDAV:  cpu time    1.6428: real time    1.6527
       DOS:  cpu time    0.0010: real time    0.0006
    --------------------------------------------
      LOOP:  cpu time    1.6437: real time    1.6533

 eigenvalue-minimisations  :  4728
 total energy-change (2. order) :-0.2673916E+01  (-0.2673916E+01)
 number of electron      32.0000000 magnetization 
 augmentation part       32.0000000 magnetization 

 Free energy of the ion-electron system (eV)
  ---------------------------------------------------
  alpha Z        PSCENC =        75.36126283
  Ewald energy   TEWEN  =     -1379.98548272
  -Hartree energ DENC   =       -72.24267606
  -exchange      EXHF   =         0.00000000
  -V(xc)+E(xc)   XCENC  =        61.54653018
  PAW double counting   =       914.77613359     -872.73161751
  entropy T*S    EENTRO =        -0.00000000
  eigenvalues    EBANDS =        20.97156702
  atomic energy  EATOM  =      1177.21277265
  Solvation  Ediel_sol  =         0.00000000
  ---------------------------------------------------
  free energy    TOTEN  =       -75.09151002 eV

  energy without entropy =      -75.09151002  energy(sigma->0) =      -75.09151002


--------------------------------------------------------------------------------------------------------




--------------------------------------- Iteration      1(   4)  ---------------------------------------


     EDDAV:  cpu time    2.8206: real time    2.8326
       DOS:  cpu time    0.0000: real time    0.0006
    --------------------------------------------
      LOOP:  cpu time    2.8206: real time    2.8332

 eigenvalue-minimisations  :  7440
 total energy-change (2. order) :-0.1696269E-01  (-0.1696269E-01)
 number of electron      32.0000000 magnetization 
 augmentation part       32.0000000 magnetization 

 Free energy of the ion-electron system (eV)
  ---------------------------------------------------
  alpha Z        PSCENC =        75.36126283
  Ewald energy   TEWEN  =     -1379.98548272
  -Hartree energ DENC   =       -72.24267606
  -exchange      EXHF   =         0.00000000
  -V(xc)+E(xc)   XCENC  =        61.54653018
  PAW double counting   =       914.77613359     -872.73161751
  entropy T*S    EENTRO =        -0.00000000
  eigenvalues    EBANDS =        20.95460432
  atomic energy  EATOM  =      1177.21277265
  Solvation  Ediel_sol  =         0.00000000
  ---------------------------------------------------
  free energy    TOTEN  =       -75.10847271 eV

  energy without entropy =      -75.10847271  energy(sigma->0) =      -75.10847271


--------------------------------------------------------------------------------------------------------




--------------------------------------- Iteration      1(   5)  ---------------------------------------


     EDDAV:  cpu time    1.6228: real time    1.6287
       DOS:  cpu time    0.0010: real time    0.0006
    CHARGE:  cpu time    0.0790: real time    0.1138
    MIXING:  cpu time    0.0020: real time    0.0175
    --------------------------------------------
      LOOP:  cpu time    1.7047: real time    1.7606

 eigenvalue-minimisations  :  4656
 total energy-change (2. order) :-0.2561339E-05  (-0.2561338E-05)
 number of electron      32.0000000 magnetization 
 augmentation part       -0.0724833 magnetization 

 Broyden mixing:
  rms(total) = 0.16078E+01    rms(broyden)= 0.16077E+01
  rms(prec ) = 0.25440E+01
  weight for this iteration     100.00

 Free energy of the ion-electron system (eV)
  ---------------------------------------------------
  alpha Z        PSCENC =        75.36126283
  Ewald energy   TEWEN  =     -1379.98548272
  -Hartree energ DENC   =       -72.24267606
  -exchange      EXHF   =         0.00000000
  -V(xc)+E(xc)   XCENC  =        61.54653018
  PAW double counting   =       914.77613359     -872.73161751
  entropy T*S    EENTRO =        -0.00000000
  eigenvalues    EBANDS =        20.95460176
  atomic energy  EATOM  =      1177.21277265
  Solvation  Ediel_sol  =         0.00000000
  ---------------------------------------------------
  free energy    TOTEN  =       -75.10847527 eV

  energy without entropy =      -75.10847527  energy(sigma->0) =      -75.10847527


--------------------------------------------------------------------------------------------------------




--------------------------------------- Iteration      1(   6)  ---------------------------------------


    POTLOK:  cpu time    0.0060: real time    0.0165
    SETDIJ:  cpu time    0.0040: real time    0.0036
     EDDAV:  cpu time    1.6148: real time    1.6181
       DOS:  cpu time    0.0010: real time    0.0007
    CHARGE:  cpu time    0.0740: real time    0.0739
    MIXING:  cpu time    0.0020: real time    0.0211
    --------------------------------------------
      LOOP:  cpu time    1.7017: real time    1.7339

 eigenvalue-minimisations  :  4752
 total energy-change (2. order) : 0.1715586E+01  (-0.1297034E+00)
 number of electron      32.0000000 magnetization 
 augmentation part       -0.0749645 magnetization 

 Broyden mixing:
  rms(total) = 0.10524E+01    rms(broyden)= 0.10524E+01
  rms(prec ) = 0.14993E+01
  weight for this iteration     100.00

 eigenvalues of (default mixing * dielectric matrix)
  average eigenvalue GAMMA=   2.7353
  2.7353

 Free energy of the ion-electron system (eV)
  ---------------------------------------------------
  alpha Z        PSCENC =        75.36126283
  Ewald energy   TEWEN  =     -1379.98548272
  -Hartree energ DENC   =       -87.12519199
  -exchange      EXHF   =         0.00000000
  -V(xc)+E(xc)   XCENC  =        62.77585144
  PAW double counting   =      3589.73151786    -3548.02186736
  entropy T*S    EENTRO =        -0.00000000
  eigenvalues    EBANDS =        36.65824776
  atomic energy  EATOM  =      1177.21277265
  Solvation  Ediel_sol  =         0.00000000
  ---------------------------------------------------
  free energy    TOTEN  =       -73.39288953 eV

  energy without entropy =      -73.39288953  energy(sigma->0) =      -73.39288953


--------------------------------------------------------------------------------------------------------




--------------------------------------- Iteration      1(   7)  ---------------------------------------


    POTLOK:  cpu time    0.0070: real time    0.0168
    SETDIJ:  cpu time    0.0030: real time    0.0035
     EDDAV:  cpu time    2.0317: real time    2.0373
       DOS:  cpu time    0.0010: real time    0.0007
    CHARGE:  cpu time    0.0740: real time    0.0738
    MIXING:  cpu time    0.0010: real time    0.0089
    --------------------------------------------
      LOOP:  cpu time    2.1177: real time    2.1410

 eigenvalue-minimisations  :  5760
 total energy-change (2. order) : 0.5741979E+00  (-0.1689914E+00)
 number of electron      32.0000000 magnetization 
 augmentation part       -0.0783178 magnetization 

 Broyden mixing:
  rms(total) = 0.21645E+00    rms(broyden)= 0.21644E+00
  rms(prec ) = 0.24167E+00
  weight for this iteration     100.00

 eigenvalues of (default mixing * dielectric matrix)
  average eigenvalue GAMMA=   2.1735
  1.9303  2.4166

 Free energy of the ion-electron system (eV)
  ---------------------------------------------------
  alpha Z        PSCENC =        75.36126283
  Ewald energy   TEWEN  =     -1379.98548272
  -Hartree energ DENC   =      -107.75024176
  -exchange      EXHF   =         0.00000000
  -V(xc)+E(xc)   XCENC  =        64.56379238
  PAW double counting   =     11787.31544242   -11745.86905496
  entropy T*S    EENTRO =        -0.00000000
  eigenvalues    EBANDS =        56.33281756
  atomic energy  EATOM  =      1177.21277265
  Solvation  Ediel_sol  =         0.00000000
  ---------------------------------------------------
  free energy    TOTEN  =       -72.81869159 eV

  energy without entropy =      -72.81869159  energy(sigma->0) =      -72.81869159


--------------------------------------------------------------------------------------------------------




--------------------------------------- Iteration      1(   8)  ---------------------------------------


    POTLOK:  cpu time    0.0060: real time    0.0142
    SETDIJ:  cpu time    0.0030: real time    0.0035
     EDDAV:  cpu time    2.4706: real time    2.4747
       DOS:  cpu time    0.0010: real time    0.0007
    CHARGE:  cpu time    0.0740: real time    0.0739
    MIXING:  cpu time    0.0010: real time    0.0062
    --------------------------------------------
      LOOP:  cpu time    2.5556: real time    2.5732

 eigenvalue-minimisations  :  6696
 total energy-change (2. order) : 0.1412507E-02  (-0.2345314E-02)
 number of electron      32.0000000 magnetization 
 augmentation part       -0.0781751 magnetization 

 Broyden mixing:
  rms(total) = 0.11867E-01    rms(broyden)= 0.11867E-01
  rms(prec ) = 0.19258E-01
  weight for this iteration     100.00

 eigenvalues of (default mixing * dielectric matrix)
  average eigenvalue GAMMA=   2.0281
  1.5389  2.2726  2.2726

 Free energy of the ion-electron system (eV)
  ---------------------------------------------------
  alpha Z        PSCENC =        75.36126283
  Ewald energy   TEWEN  =     -1379.98548272
  -Hartree energ DENC   =      -106.79740337
  -exchange      EXHF   =         0.00000000
  -V(xc)+E(xc)   XCENC  =        64.51819048
  PAW double counting   =     13862.26165669   -13820.70204574
  entropy T*S    EENTRO =        -0.00000000
  eigenvalues    EBANDS =        55.31377008
  atomic energy  EATOM  =      1177.21277265
  Solvation  Ediel_sol  =         0.00000000
  ---------------------------------------------------
  free energy    TOTEN  =       -72.81727909 eV

  energy without entropy =      -72.81727909  energy(sigma->0) =      -72.81727909


--------------------------------------------------------------------------------------------------------




--------------------------------------- Iteration      1(   9)  ---------------------------------------


    POTLOK:  cpu time    0.0170: real time    0.0185
    SETDIJ:  cpu time    0.0040: real time    0.0036
     EDDAV:  cpu time    2.0247: real time    2.0284
       DOS:  cpu time    0.0010: real time    0.0007
    CHARGE:  cpu time    0.0730: real time    0.0738
    MIXING:  cpu time    0.0000: real time    0.0005
    --------------------------------------------
      LOOP:  cpu time    2.1197: real time    2.1254

 eigenvalue-minimisations  :  5616
 total energy-change (2. order) :-0.1935165E-03  (-0.4551276E-04)
 number of electron      32.0000000 magnetization 
 augmentation part       -0.0780677 magnetization 

 Broyden mixing:
  rms(total) = 0.61757E-02    rms(broyden)= 0.61757E-02
  rms(prec ) = 0.94472E-02
  weight for this iteration     100.00

 eigenvalues of (default mixing * dielectric matrix)
  average eigenvalue GAMMA=   1.9792
  0.9818  2.0263  2.4543  2.4543

 Free energy of the ion-electron system (eV)
  ---------------------------------------------------
  alpha Z        PSCENC =        75.36126283
  Ewald energy   TEWEN  =     -1379.98548272
  -Hartree energ DENC   =      -106.61080780
  -exchange      EXHF   =         0.00000000
  -V(xc)+E(xc)   XCENC  =        64.50308545
  PAW double counting   =     13800.79554317   -13759.22598254
  entropy T*S    EENTRO =        -0.00000000
  eigenvalues    EBANDS =        55.13213634
  atomic energy  EATOM  =      1177.21277265
  Solvation  Ediel_sol  =         0.00000000
  ---------------------------------------------------
  free energy    TOTEN  =       -72.81747260 eV

  energy without entropy =      -72.81747260  energy(sigma->0) =      -72.81747260


--------------------------------------------------------------------------------------------------------




--------------------------------------- Iteration      1(  10)  ---------------------------------------


    POTLOK:  cpu time    0.0070: real time    0.0158
    SETDIJ:  cpu time    0.0040: real time    0.0035
     EDDAV:  cpu time    2.3666: real time    2.3713
       DOS:  cpu time    0.0010: real time    0.0006
    CHARGE:  cpu time    0.0730: real time    0.0738
    MIXING:  cpu time    0.0010: real time    0.0006
    --------------------------------------------
      LOOP:  cpu time    2.4526: real time    2.4656

 eigenvalue-minimisations  :  6408
 total energy-change (2. order) :-0.1239346E-03  (-0.1196105E-04)
 number of electron      32.0000000 magnetization 
 augmentation part       -0.0780358 magnetization 

 Broyden mixing:
  rms(total) = 0.47275E-03    rms(broyden)= 0.47265E-03
  rms(prec ) = 0.77464E-03
  weight for this iteration     100.00

 eigenvalues of (default mixing * dielectric matrix)
  average eigenvalue GAMMA=   1.9244
  2.8220  2.4222  1.0316  2.0040  1.3423

 Free energy of the ion-electron system (eV)
  ---------------------------------------------------
  alpha Z        PSCENC =        75.36126283
  Ewald energy   TEWEN  =     -1379.98548272
  -Hartree energ DENC   =      -106.70312567
  -exchange      EXHF   =         0.00000000
  -V(xc)+E(xc)   XCENC  =        64.51047080
  PAW double counting   =     13733.98982494   -13692.41794357
  entropy T*S    EENTRO =        -0.00000000
  eigenvalues    EBANDS =        55.21462419
  atomic energy  EATOM  =      1177.21277265
  Solvation  Ediel_sol  =         0.00000000
  ---------------------------------------------------
  free energy    TOTEN  =       -72.81759654 eV

  energy without entropy =      -72.81759654  energy(sigma->0) =      -72.81759654


--------------------------------------------------------------------------------------------------------




--------------------------------------- Iteration      1(  11)  ---------------------------------------


    POTLOK:  cpu time    0.0060: real time    0.0185
    SETDIJ:  cpu time    0.0040: real time    0.0035
     EDDAV:  cpu time    2.2507: real time    2.2548
       DOS:  cpu time    0.0000: real time    0.0006
    CHARGE:  cpu time    0.0750: real time    0.0741
    MIXING:  cpu time    0.0000: real time    0.0006
    --------------------------------------------
      LOOP:  cpu time    2.3356: real time    2.3522

 eigenvalue-minimisations  :  6144
 total energy-change (2. order) :-0.1103243E-05  (-0.1554655E-06)
 number of electron      32.0000000 magnetization 
 augmentation part       -0.0780338 magnetization 

 Broyden mixing:
  rms(total) = 0.27862E-03    rms(broyden)= 0.27862E-03
  rms(prec ) = 0.32481E-03
  weight for this iteration     100.00

 eigenvalues of (default mixing * dielectric matrix)
  average eigenvalue GAMMA=   2.0036
  2.9048  2.6194  2.4203  2.0597  1.0087  1.0087

 Free energy of the ion-electron system (eV)
  ---------------------------------------------------
  alpha Z        PSCENC =        75.36126283
  Ewald energy   TEWEN  =     -1379.98548272
  -Hartree energ DENC   =      -106.71030777
  -exchange      EXHF   =         0.00000000
  -V(xc)+E(xc)   XCENC  =        64.51110125
  PAW double counting   =     13733.48090626   -13691.90881934
  entropy T*S    EENTRO =        -0.00000000
  eigenvalues    EBANDS =        55.22096918
  atomic energy  EATOM  =      1177.21277265
  Solvation  Ediel_sol  =         0.00000000
  ---------------------------------------------------
  free energy    TOTEN  =       -72.81759764 eV

  energy without entropy =      -72.81759764  energy(sigma->0) =      -72.81759764


--------------------------------------------------------------------------------------------------------




--------------------------------------- Iteration      1(  12)  ---------------------------------------


    POTLOK:  cpu time    0.0060: real time    0.0139
    SETDIJ:  cpu time    0.0040: real time    0.0036
     EDDAV:  cpu time    2.3066: real time    2.3108
       DOS:  cpu time    0.0000: real time    0.0007
    CHARGE:  cpu time    0.0740: real time    0.0740
    MIXING:  cpu time    0.0010: real time    0.0006
    --------------------------------------------
      LOOP:  cpu time    2.3916: real time    2.4036

 eigenvalue-minimisations  :  6240
 total energy-change (2. order) :-0.3644745E-06  (-0.7764208E-08)
 number of electron      32.0000000 magnetization 
 augmentation part       -0.0780345 magnetization 

 Broyden mixing:
  rms(total) = 0.16247E-04    rms(broyden)= 0.16246E-04
  rms(prec ) = 0.16908E-04
  weight for this iteration     100.00

 eigenvalues of (default mixing * dielectric matrix)
  average eigenvalue GAMMA=   1.9375
  2.8813  2.6702  2.4162  2.0464  1.0103  0.9744  1.5634

 Free energy of the ion-electron system (eV)
  ---------------------------------------------------
  alpha Z        PSCENC =        75.36126283
  Ewald energy   TEWEN  =     -1379.98548272
  -Hartree energ DENC   =      -106.71179414
  -exchange      EXHF   =         0.00000000
  -V(xc)+E(xc)   XCENC  =        64.51124650
  PAW double counting   =     13735.63085171   -13694.05887731
  entropy T*S    EENTRO =        -0.00000000
  eigenvalues    EBANDS =        55.22242246
  atomic energy  EATOM  =      1177.21277265
  Solvation  Ediel_sol  =         0.00000000
  ---------------------------------------------------
  free energy    TOTEN  =       -72.81759801 eV

  energy without entropy =      -72.81759801  energy(sigma->0) =      -72.81759801


--------------------------------------------------------------------------------------------------------




--------------------------------------- Iteration      1(  13)  ---------------------------------------


    POTLOK:  cpu time    0.0060: real time    0.0154
    SETDIJ:  cpu time    0.0040: real time    0.0035
     EDDAV:  cpu time    2.3126: real time    2.3191
       DOS:  cpu time    0.0000: real time    0.0006
    CHARGE:  cpu time    0.0750: real time    0.0743
    MIXING:  cpu time    0.0000: real time    0.0006
    --------------------------------------------
      LOOP:  cpu time    2.3976: real time    2.4134

 eigenvalue-minimisations  :  6264
 total energy-change (2. order) :-0.1071021E-07  (-0.1610895E-10)
 number of electron      32.0000000 magnetization 
 augmentation part       -0.0780346 magnetization 

 Broyden mixing:
  rms(total) = 0.78369E-05    rms(broyden)= 0.78369E-05
  rms(prec ) = 0.83779E-05
  weight for this iteration     100.00

 eigenvalues of (default mixing * dielectric matrix)
  average eigenvalue GAMMA=   1.9613
  2.0600  2.9200  2.6949  2.6118  2.4231  1.0089  1.0089  0.9627

 Free energy of the ion-electron system (eV)
  ---------------------------------------------------
  alpha Z        PSCENC =        75.36126283
  Ewald energy   TEWEN  =     -1379.98548272
  -Hartree energ DENC   =      -106.71183098
  -exchange      EXHF   =         0.00000000
  -V(xc)+E(xc)   XCENC  =        64.51124955
  PAW double counting   =     13735.49888856   -13693.92691926
  entropy T*S    EENTRO =        -0.00000000
  eigenvalues    EBANDS =        55.22246135
  atomic energy  EATOM  =      1177.21277265
  Solvation  Ediel_sol  =         0.00000000
  ---------------------------------------------------
  free energy    TOTEN  =       -72.81759802 eV

  energy without entropy =      -72.81759802  energy(sigma->0) =      -72.81759802


--------------------------------------------------------------------------------------------------------




--------------------------------------- Iteration      1(  14)  ---------------------------------------


    POTLOK:  cpu time    0.0060: real time    0.0151
    SETDIJ:  cpu time    0.0040: real time    0.0035
     EDDAV:  cpu time    2.1017: real time    2.1059
       DOS:  cpu time    0.0000: real time    0.0007
    --------------------------------------------
      LOOP:  cpu time    2.1117: real time    2.1251

 eigenvalue-minimisations  :  5712
 total energy-change (2. order) :-0.1697117E-08  (-0.9077702E-11)
 number of electron      32.0000000 magnetization 
 augmentation part       -0.0780346 magnetization 

 Free energy of the ion-electron system (eV)
  ---------------------------------------------------
  alpha Z        PSCENC =        75.36126283
  Ewald energy   TEWEN  =     -1379.98548272
  -Hartree energ DENC   =      -106.71183604
  -exchange      EXHF   =         0.00000000
  -V(xc)+E(xc)   XCENC  =        64.51125251
  PAW double counting   =     13735.50902611   -13693.93705515
  entropy T*S    EENTRO =        -0.00000000
  eigenvalues    EBANDS =        55.22246179
  atomic energy  EATOM  =      1177.21277265
  Solvation  Ediel_sol  =         0.00000000
  ---------------------------------------------------
  free energy    TOTEN  =       -72.81759802 eV

  energy without entropy =      -72.81759802  energy(sigma->0) =      -72.81759802


--------------------------------------------------------------------------------------------------------




 average (electrostatic) potential at core
  the test charge radii are     0.5770
  (the norm of the test charge is              1.0000)
       1 -72.0125       2 -72.0125       3 -72.0125       4 -72.0125       5 -72.0125
       6 -72.0125       7 -72.0125       8 -72.0125
 
 
 
 E-fermi :  10.7471     XC(G=0): -13.2471     alpha+bet :-18.1643


 k-point     1 :       0.0357    0.0357    0.0357
  band No.  band energies     occupation 
      1     -10.5550      2.00000
      2      -2.5805      2.00000
      3      -2.5805      2.00000
      4      -2.5805      2.00000
      5      -1.4630      2.00000
      6      -1.4630      2.00000
      7      -1.4630      2.00000
      8       4.2896      2.00000
      9       4.2896      2.00000
     10       4.2896      2.00000
     11       4.4299      2.00000
     12       4.4299      2.00000
     13       4.4299      2.00000
     14      10.2922      2.00000
     15      10.4791      2.00000
     16      10.4791      2.00000
     17      15.1711      0.00000
     18      15.1711      0.00000
     19      15.1711      0.00000
     20      15.5515      0.00000
     21      15.5515      0.00000
     22      15.5515      0.00000
     23      16.1528      0.00000
     24      16.1529      0.00000

 k-point     2 :       0.1071    0.0357    0.0357
  band No.  band energies     occupation 
      1     -10.4625      2.00000
      2      -3.6501      2.00000
      3      -2.5181      2.00000
      4      -2.5181      2.00000
      5      -1.4135      2.00000
      6      -1.4135      2.00000
      7      -0.3097      2.00000
      8       3.9719      2.00000
      9       3.9719      2.00000
     10       4.3671      2.00000
     11       4.3671      2.00000
     12       4.3827      2.00000
     13       4.5195      2.00000
     14       9.8476      2.00000
     15      10.1272      2.00000
     16      10.3638      2.00000
     17      14.9367      0.00000
     18      15.4538      0.00000
     19      15.4538      0.00000
     20      16.0016      0.00000
     21      16.0051      0.00000
     22      16.0051      0.00000
     23      16.0845      0.00000
     24      16.5821      0.00000

 k-point     3 :       0.1786    0.0357    0.0357
  band No.  band energies     occupation 
      1     -10.2777      2.00000
      2      -4.6621      2.00000
      3      -2.3977      2.00000
      4      -2.3977      2.00000
      5      -1.3213      2.00000
      6      -1.3213      2.00000
      7       0.8646      2.00000
      8       3.5411      2.00000
      9       3.5411      2.00000
     10       4.1292      2.00000
     11       4.1292      2.00000
     12       4.5688      2.00000
     13       4.6983      2.00000
     14       9.2273      2.00000
     15       9.5488      2.00000
     16       9.9898      2.00000
     17      14.7882      0.00000
     18      15.9468      0.00000
     19      16.0528      0.00000
     20      16.0528      0.00000
     21      16.5804      0.00000
     22      16.7868      0.00000
     23      16.7868      0.00000
     24      17.3141      0.00000

 k-point     4 :       0.2500    0.0357    0.0357
  band No.  band energies     occupation 
      1     -10.0011      2.00000
      2      -5.6086      2.00000
      3      -2.2302      2.00000
      4      -2.2302      2.00000
      5      -1.2012      2.00000
      6      -1.2012      2.00000
      7       2.0425      2.00000
      8       3.0743      2.00000
      9       3.0743      2.00000
     10       3.7824      2.00000
     11       3.7824      2.00000
     12       4.8489      2.00000
     13       4.9644      2.00000
     14       8.5198      2.00000
     15       8.8687      2.00000
     16       9.4145      2.00000
     17      14.7240      0.00000
     18      15.7618      0.00000
     19      16.9254      0.00000
     20      16.9254      0.00000
     21      17.2871      0.00000
     22      17.7982      0.00000
     23      17.7982      0.00000
     24      18.2198      0.00000

 k-point     5 :       0.3214    0.0357    0.0357
  band No.  band energies     occupation 
      1      -9.6335      2.00000
      2      -6.4832      2.00000
      3      -2.0353      2.00000
      4      -2.0353      2.00000
      5      -1.0779      2.00000
      6      -1.0779      2.00000
      7       2.6466      2.00000
      8       2.6466      2.00000
      9       3.2024      2.00000
     10       3.4062      2.00000
     11       3.4062      2.00000
     12       5.2252      2.00000
     13       5.3159      2.00000
     14       7.7802      2.00000
     15       8.1646      2.00000
     16       8.6929      2.00000
     17      14.7355      0.00000
     18      15.5491      0.00000
     19      17.9986      0.00000
     20      17.9986      0.00000
     21      18.1230      0.00000
     22      18.9595      0.00000
     23      18.9595      0.00000
     24      19.2143      0.00000

 k-point     6 :       0.3929    0.0357    0.0357
  band No.  band energies     occupation 
      1      -9.1760      2.00000
      2      -7.2808      2.00000
      3      -1.8488      2.00000
      4      -1.8488      2.00000
      5      -0.9825      2.00000
      6      -0.9825      2.00000
      7       2.3246      2.00000
      8       2.3246      2.00000
      9       3.0813      2.00000
     10       3.0813      2.00000
     11       4.3158      2.00000
     12       5.7053      2.00000
     13       5.7491      2.00000
     14       7.0276      2.00000
     15       7.4799      2.00000
     16       7.8799      2.00000
     17      14.8134      0.00000
     18      15.3302      0.00000
     19      19.0807      0.00000
     20      19.1908      0.00000
     21      19.1908      0.00000
     22      20.1803      0.00000
     23      20.1875      0.00000
     24      20.2607      0.00000

 k-point     7 :       0.4643    0.0357    0.0357
  band No.  band energies     occupation 
      1      -8.6301      2.00000
      2      -7.9975      2.00000
      3      -1.7270      2.00000
      4      -1.7270      2.00000
      5      -0.9361      2.00000
      6      -0.9361      2.00000
      7       2.1553      2.00000
      8       2.1553      2.00000
      9       2.8881      2.00000
     10       2.8881      2.00000
     11       5.3416      2.00000
     12       6.2373      2.00000
     13       6.2594      2.00000
     14       6.3080      2.00000
     15       6.8397      2.00000
     16       7.0504      2.00000
     17      14.9469      0.00000
     18      15.1239      0.00000
     19      20.1352      0.00000
     20      20.3537      0.00000
     21      20.3537      0.00000
     22      21.1619      0.00000
     23      21.1627      0.00000
     24      21.2136      0.00000

 k-point     8 :       0.1071    0.1071    0.0357
  band No.  band energies     occupation 
      1     -10.3701      2.00000
      2      -3.5785      2.00000
      3      -3.5785      2.00000
      4      -2.4620      2.00000
      5      -1.3676      2.00000
      6      -0.2819      2.00000
      7      -0.2819      2.00000
      8       3.4630      2.00000
      9       4.0728      2.00000
     10       4.0728      2.00000
     11       4.4613      2.00000
     12       4.4613      2.00000
     13       4.5829      2.00000
     14       9.3061      2.00000
     15       9.8554      2.00000
     16      10.3697      2.00000
     17      15.2776      0.00000
     18      15.2776      0.00000
     19      15.4137      0.00000
     20      16.3329      0.00000
     21      16.3931      0.00000
     22      16.3931      0.00000
     23      16.6866      0.00000
     24      16.7016      0.00000

 k-point     9 :       0.1786    0.1071    0.0357
  band No.  band energies     occupation 
      1     -10.1855      2.00000
      2      -4.5844      2.00000
      3      -3.4380      2.00000
      4      -2.3583      2.00000
      5      -1.2823      2.00000
      6      -0.2376      2.00000
      7       0.8580      2.00000
      8       2.9179      2.00000
      9       3.6512      2.00000
     10       4.2418      2.00000
     11       4.2760      2.00000
     12       4.5962      2.00000
     13       4.6515      2.00000
     14       8.6321      2.00000
     15       9.3050      2.00000
     16      10.1556      2.00000
     17      15.1495      0.00000
     18      15.7215      0.00000
     19      15.9301      0.00000
     20      16.2920      0.00000
     21      16.9439      0.00000
     22      17.1134      0.00000
     23      17.3109      0.00000
     24      17.4827      0.00000

 k-point    10 :       0.2500    0.1071    0.0357
  band No.  band energies     occupation 
      1      -9.9093      2.00000
      2      -5.5266      2.00000
      3      -3.2350      2.00000
      4      -2.2275      2.00000
      5      -1.1692      2.00000
      6      -0.2015      2.00000
      7       1.9786      2.00000
      8       2.4170      2.00000
      9       3.1894      2.00000
     10       3.9370      2.00000
     11       4.4351      2.00000
     12       4.5831      2.00000
     13       4.9430      2.00000
     14       7.8992      2.00000
     15       8.6434      2.00000
     16       9.6994      2.00000
     17      15.0959      0.00000
     18      16.1256      0.00000
     19      16.3665      0.00000
     20      16.8388      0.00000
     21      17.6287      0.00000
     22      18.0756      0.00000
     23      18.1952      0.00000
     24      18.2403      0.00000

 k-point    11 :       0.3214    0.1071    0.0357
  band No.  band energies     occupation 
      1      -9.5421      2.00000
      2      -6.3982      2.00000
[...]
     11       5.8297      2.00000
     12       6.8497      2.00000
     13       6.9545      2.00000
     14       6.9545      2.00000
     15       7.2978      2.00000
     16       8.3966      2.00000
     17      17.7677      0.00000
     18      18.1759      0.00000
     19      18.1759      0.00000
     20      18.6739      0.00000
     21      18.9943      0.00000
     22      19.3474      0.00000
     23      19.8556      0.00000
     24      19.8556      0.00000

 k-point    73 :       0.4643    0.3929    0.2500
  band No.  band energies     occupation 
      1      -6.7890      2.00000
      2      -6.1992      2.00000
      3      -5.1143      2.00000
      4      -4.6762      2.00000
      5      -1.6302      2.00000
      6      -1.2053      2.00000
      7      -0.1586      2.00000
      8       0.4114      2.00000
      9       5.2724      2.00000
     10       5.5733      2.00000
     11       6.3805      2.00000
     12       6.8582      2.00000
     13       7.0493      2.00000
     14       7.0759      2.00000
     15       7.5725      2.00000
     16       8.0893      2.00000
     17      18.2017      0.00000
     18      18.4294      0.00000
     19      18.6468      0.00000
     20      18.6998      0.00000
     21      19.1119      0.00000
     22      19.3709      0.00000
     23      19.4097      0.00000
     24      19.9133      0.00000

 k-point    74 :       0.4643    0.4643    0.2500
  band No.  band energies     occupation 
      1      -6.2869      2.00000
      2      -5.7217      2.00000
      3      -5.7217      2.00000
      4      -5.1998      2.00000
      5      -1.2771      2.00000
      6      -0.7721      2.00000
      7      -0.7721      2.00000
      8      -0.2260      2.00000
      9       5.6650      2.00000
     10       6.0364      2.00000
     11       6.0364      2.00000
     12       6.4624      2.00000
     13       7.4279      2.00000
     14       7.6061      2.00000
     15       7.6061      2.00000
     16       7.9631      2.00000
     17      18.3616      0.00000
     18      18.7126      0.00000
     19      18.7126      0.00000
     20      18.8171      0.00000
     21      19.2198      0.00000
     22      19.3438      0.00000
     23      19.3438      0.00000
     24      19.9952      0.00000

 k-point    75 :       0.3214    0.3214    0.3214
  band No.  band energies     occupation 
      1      -7.8329      2.00000
      2      -4.9397      2.00000
      3      -4.9397      2.00000
      4      -4.9397      2.00000
      5      -1.0767      2.00000
      6      -1.0767      2.00000
      7      -1.0767      2.00000
      8       1.7227      2.00000
      9       5.4011      2.00000
     10       5.4011      2.00000
     11       5.4011      2.00000
     12       6.5471      2.00000
     13       6.5471      2.00000
     14       6.5471      2.00000
     15       8.3478      2.00000
     16       8.3478      2.00000
     17      17.3990      0.00000
     18      17.3990      0.00000
     19      17.3990      0.00000
     20      18.6616      0.00000
     21      18.6616      0.00000
     22      18.7811      0.00000
     23      21.3668      0.00000
     24      21.3668      0.00000

 k-point    76 :       0.3929    0.3214    0.3214
  band No.  band energies     occupation 
      1      -7.3945      2.00000
      2      -5.6321      2.00000
      3      -4.6697      2.00000
      4      -4.6697      2.00000
      5      -1.6445      2.00000
      6      -1.6445      2.00000
      7      -0.7132      2.00000
      8       0.9939      2.00000
      9       5.5942      2.00000
     10       5.5942      2.00000
     11       6.3772      2.00000
     12       6.7394      2.00000
     13       6.7394      2.00000
     14       6.8578      2.00000
     15       7.9724      2.00000
     16       8.2679      2.00000
     17      17.6828      0.00000
     18      17.8378      0.00000
     19      17.8378      0.00000
     20      18.4800      0.00000
     21      18.9919      0.00000
     22      19.0562      0.00000
     23      20.5085      0.00000
     24      20.5085      0.00000

 k-point    77 :       0.4643    0.3214    0.3214
  band No.  band energies     occupation 
      1      -6.8763      2.00000
      2      -6.2850      2.00000
      3      -4.4789      2.00000
      4      -4.4789      2.00000
      5      -1.9863      2.00000
      6      -1.9863      2.00000
      7      -0.2352      2.00000
      8       0.3379      2.00000
      9       5.6959      2.00000
     10       5.6959      2.00000
     11       6.8289      2.00000
     12       6.8289      2.00000
     13       7.2085      2.00000
     14       7.2242      2.00000
     15       7.5859      2.00000
     16       7.8771      2.00000
     17      17.9732      0.00000
     18      18.2459      0.00000
     19      18.4607      0.00000
     20      18.4607      0.00000
     21      19.4459      0.00000
     22      19.5363      0.00000
     23      19.6107      0.00000
     24      19.6107      0.00000

 k-point    78 :       0.3929    0.3929    0.3214
  band No.  band energies     occupation 
      1      -6.9646      2.00000
      2      -5.2797      2.00000
      3      -5.2797      2.00000
      4      -4.5599      2.00000
      5      -2.0676      2.00000
      6      -1.3659      2.00000
      7      -1.3659      2.00000
      8       0.2686      2.00000
      9       5.9285      2.00000
     10       6.4409      2.00000
     11       6.4409      2.00000
     12       7.0461      2.00000
     13       7.0859      2.00000
     14       7.0859      2.00000
     15       7.7920      2.00000
     16       8.2187      2.00000
     17      18.0021      0.00000
     18      18.1054      0.00000
     19      18.1054      0.00000
     20      18.7137      0.00000
     21      18.9627      0.00000
     22      19.0269      0.00000
     23      19.9361      0.00000
     24      19.9361      0.00000

 k-point    79 :       0.4643    0.3929    0.3214
  band No.  band energies     occupation 
      1      -6.4598      2.00000
      2      -5.8912      2.00000
      3      -4.9211      2.00000
      4      -4.6433      2.00000
      5      -2.1453      2.00000
      6      -1.8734      2.00000
      7      -0.9294      2.00000
      8      -0.3773      2.00000
      9       6.1765      2.00000
     10       6.3519      2.00000
     11       7.0422      2.00000
     12       7.2208      2.00000
     13       7.2307      2.00000
     14       7.4550      2.00000
     15       7.5495      2.00000
     16       7.9905      2.00000
     17      18.3725      0.00000
     18      18.4013      0.00000
     19      18.6071      0.00000
     20      18.6490      0.00000
     21      19.1263      0.00000
     22      19.2638      0.00000
     23      19.4390      0.00000
     24      19.4623      0.00000

 k-point    80 :       0.4643    0.4643    0.3214
  band No.  band energies     occupation 
      1      -5.9778      2.00000
      2      -5.4504      2.00000
      3      -5.4504      2.00000
      4      -5.0051      2.00000
      5      -1.9516      2.00000
      6      -1.5168      2.00000
      7      -1.5168      2.00000
      8      -1.0034      2.00000
      9       6.5312      2.00000
     10       6.8142      2.00000
     11       6.8142      2.00000
     12       7.1680      2.00000
     13       7.5316      2.00000
     14       7.6550      2.00000
     15       7.6550      2.00000
     16       7.9401      2.00000
     17      18.5357      0.00000
     18      18.7886      0.00000
     19      18.7886      0.00000
     20      18.8943      0.00000
     21      19.0181      0.00000
     22      19.1095      0.00000
     23      19.1095      0.00000
     24      19.4962      0.00000

 k-point    81 :       0.3929    0.3929    0.3929
  band No.  band energies     occupation 
      1      -6.5470      2.00000
      2      -5.0032      2.00000
      3      -5.0032      2.00000
      4      -5.0032      2.00000
      5      -1.9560      2.00000
      6      -1.9560      2.00000
      7      -1.9560      2.00000
      8      -0.4519      2.00000
      9       6.7925      2.00000
     10       6.7925      2.00000
     11       6.7925      2.00000
     12       7.2729      2.00000
     13       7.2729      2.00000
     14       7.2729      2.00000
     15       8.0053      2.00000
     16       8.0053      2.00000
     17      18.2547      0.00000
     18      18.2547      0.00000
     19      18.2547      0.00000
     20      18.8490      0.00000
     21      18.8490      0.00000
     22      18.9599      0.00000
     23      19.8899      0.00000
     24      19.8900      0.00000

 k-point    82 :       0.4643    0.3929    0.3929
  band No.  band energies     occupation 
      1      -6.0635      2.00000
      2      -5.5344      2.00000
      3      -4.8065      2.00000
      4      -4.8065      2.00000
      5      -2.3109      2.00000
      6      -2.3109      2.00000
      7      -1.5981      2.00000
      8      -1.0820      2.00000
      9       6.9172      2.00000
     10       6.9172      2.00000
     11       7.4310      2.00000
     12       7.4310      2.00000
     13       7.4719      2.00000
     14       7.5179      2.00000
     15       7.7672      2.00000
     16       7.8949      2.00000
     17      18.4975      0.00000
     18      18.6072      0.00000
     19      18.6072      0.00000
     20      18.7019      0.00000
     21      19.0929      0.00000
     22      19.1261      0.00000
     23      19.2974      0.00000
     24      19.2974      0.00000

 k-point    83 :       0.4643    0.4643    0.3929
  band No.  band energies     occupation 
      1      -5.6196      2.00000
      2      -5.1707      2.00000
      3      -5.1707      2.00000
      4      -4.8889      2.00000
      5      -2.3935      2.00000
      6      -2.1166      2.00000
      7      -2.1166      2.00000
      8      -1.6770      2.00000
      9       7.2296      2.00000
     10       7.3942      2.00000
     11       7.3942      2.00000
     12       7.6401      2.00000
     13       7.6477      2.00000
     14       7.6963      2.00000
     15       7.6963      2.00000
     16       7.8970      2.00000
     17      18.7037      0.00000
     18      18.7885      0.00000
     19      18.7885      0.00000
     20      18.9013      0.00000
     21      18.9321      0.00000
     22      19.0529      0.00000
     23      19.0529      0.00000
     24      19.1400      0.00000

 k-point    84 :       0.4643    0.4643    0.4643
  band No.  band energies     occupation 
      1      -5.2542      2.00000
      2      -4.9711      2.00000
      3      -4.9711      2.00000
      4      -4.9711      2.00000
      5      -2.4775      2.00000
      6      -2.4775      2.00000
      7      -2.4775      2.00000
      8      -2.1990      2.00000
      9       7.6841      2.00000
     10       7.6841      2.00000
     11       7.6841      2.00000
     12       7.7429      2.00000
     13       7.7429      2.00000
     14       7.7429      2.00000
     15       7.8308      2.00000
     16       7.8308      2.00000
     17      18.8326      0.00000
     18      18.8326      0.00000
     19      18.8326      0.00000
     20      18.8978      0.00000
     21      18.8981      0.00000
     22      19.0186      0.00000
     23      19.0194      0.00000
     24      19.0396      0.00000


--------------------------------------------------------------------------------------------------------


 soft charge-density along one line, spin component           1
         0         1         2         3         4         5         6         7         8         9
 total charge-density along one line
 
 pseudopotential strength for first ion, spin component:           1
 12.181  20.486  -0.000   0.000  -0.000  -0.000   0.000   0.000
 20.486  34.452  -0.000   0.000  -0.000  -0.000   0.000  -0.000
 -0.000  -0.000  -2.975   0.000   0.000  -5.317   0.000   0.000
  0.000   0.000   0.000  -2.975   0.000   0.000  -5.317   0.000
 -0.000  -0.000   0.000   0.000  -2.975   0.000   0.000  -5.317
 -0.000  -0.000  -5.317   0.000   0.000  -9.480   0.000   0.000
  0.000   0.000   0.000  -5.317   0.000   0.000  -9.480   0.000
  0.000  -0.000   0.000   0.000  -5.317   0.000   0.000  -9.480
 total augmentation occupancy for first ion, spin component:           1
  6.994  -2.416  -0.000   0.000   0.000   0.000   0.000   0.000
 -2.416   0.890  -0.000   0.000  -0.000   0.000   0.000  -0.000
  0.000  -0.000   5.514   0.000   0.000  -1.773   0.000  -0.000
  0.000  -0.000   0.000   5.514   0.000   0.000  -1.773  -0.000
  0.000  -0.000   0.000   0.000   5.514  -0.000   0.000  -1.773
  0.000  -0.000  -1.773  -0.000  -0.000   0.587  -0.000   0.000
  0.000  -0.000  -0.000  -1.773  -0.000  -0.000   0.587   0.000
 -0.000   0.000   0.000   0.000  -1.773   0.000  -0.000   0.587


------------------------ aborting loop because EDIFF is reached ----------------------------------------


    CHARGE:  cpu time    0.0720: real time    0.0728
    FORLOC:  cpu time    0.0010: real time    0.0032
    FORNL :  cpu time    0.2010: real time    0.2114
    STRESS:  cpu time    1.2348: real time    1.2538
    FORCOR:  cpu time    0.0040: real time    0.0146
    FORHAR:  cpu time    0.0020: real time    0.0050
    MIXING:  cpu time    0.0000: real time    0.0005
    OFIELD:  cpu time    0.0010: real time    0.0029

  FORCE on cell =-STRESS in cart. coord.  units (eV):
  Direction    XX          YY          ZZ          XY          YZ          ZX
  --------------------------------------------------------------------------------------
  Alpha Z    75.36126    75.36126    75.36126
  Ewald    -459.99595  -459.99595  -459.99595    -0.00000    -0.00000    -0.00000
  Hartree    35.57061    35.57061    35.57061    -0.00000    -0.00000    -0.00000
  E(xc)    -131.42254  -131.42254  -131.42254     0.00000    -0.00000    -0.00000
  Local    -127.91175  -127.91175  -127.91175    -0.00000     0.00000     0.00000
  n-local    29.77865    28.99942    29.55832     0.59763     0.80651     0.39465
  augment     0.50048     0.50048     0.50048    -0.00000    -0.00000    -0.00000
  Kinetic   564.70028   581.61042   580.65813    -5.96142    -7.88614    -4.26277
  Fock        0.00000     0.00000     0.00000     0.00000     0.00000     0.00000
  -------------------------------------------------------------------------------------
  Total      -2.79615    -2.79615    -2.79615    -0.00000    -0.00000     0.00000
  in kB     -96.22645   -96.22645   -96.22645    -0.00000    -0.00000     0.00000
  external pressure =      -96.23 kB  Pullay stress =        0.00 kB


 VOLUME and BASIS-vectors are now :
 -----------------------------------------------------------------------------
  energy-cutoff  :      875.00
  volume of cell :       46.56
      direct lattice vectors                 reciprocal lattice vectors
     3.597429105  0.000000000  0.000000000     0.277976291  0.000000000  0.000000000
     0.000000000  3.597429105  0.000000000     0.000000000  0.277976291  0.000000000
     0.000000000  0.000000000  3.597429105     0.000000000  0.000000000  0.277976291

  length of vectors
     3.597429105  3.597429105  3.597429105     0.277976291  0.277976291  0.277976291


 FORCES acting on ions
    electron-ion (+dipol)            ewald-force                    non-local-force                 convergence-correction
 -----------------------------------------------------------------------------------------------
   -.178E-13 0.212E-12 0.255E-13   -.142E-13 0.711E-14 0.000E+00   -.191E-16 0.694E-17 0.156E-16   -.309E-14 -.227E-14 0.104E-13
   0.395E-14 -.400E-14 0.144E-13   -.198E-13 -.211E-13 0.710E-14   -.347E-17 0.295E-16 0.434E-17   -.814E-14 -.167E-14 0.122E-13
   -.202E-13 0.247E-12 0.441E-13   0.000E+00 0.213E-13 -.711E-14   -.104E-16 -.529E-16 -.199E-16   -.296E-14 -.231E-14 0.834E-14
   0.839E-14 0.223E-13 0.443E-13   -.763E-14 -.709E-14 0.398E-16   -.399E-16 -.434E-17 0.286E-16   -.746E-14 -.210E-14 0.751E-14
   0.356E-13 -.190E-12 -.328E-12   -.711E-14 0.711E-14 0.000E+00   0.278E-16 0.260E-17 -.321E-16   0.397E-14 -.228E-14 0.873E-14
   0.104E-13 -.702E-14 -.710E-12   -.398E-16 -.229E-13 0.715E-14   0.295E-16 0.269E-16 0.373E-16   -.400E-14 -.213E-14 0.707E-14
   0.341E-13 -.529E-12 -.606E-14   0.142E-13 0.213E-13 -.711E-14   0.867E-17 -.226E-16 -.173E-17   0.380E-14 -.886E-15 0.110E-13
   0.178E-13 -.379E-12 -.393E-12   0.213E-13 -.708E-14 0.110E-15   -.347E-17 -.191E-16 -.304E-16   -.506E-14 -.200E-14 0.120E-13
 -----------------------------------------------------------------------------------------------
   0.721E-13 -.628E-12 -.131E-11   -.133E-13 -.133E-14 0.181E-15   -.104E-16 -.330E-16 0.173E-17   -.229E-13 -.157E-13 0.773E-13
 
 
 POSITION                                       TOTAL-FORCE (eV/Angst)
 -----------------------------------------------------------------------------------
      0.89936      0.89936      0.89936         0.000000      0.000000     -0.000000
      0.00000      0.00000      0.00000        -0.000000     -0.000000     -0.000000
      0.89936      2.69807      2.69807        -0.000000      0.000000      0.000000
      0.00000      1.79871      1.79871         0.000000      0.000000     -0.000000
      2.69807      0.89936      2.69807        -0.000000     -0.000000      0.000000
      1.79871      0.00000      1.79871         0.000000     -0.000000     -0.000000
      2.69807      2.69807      0.89936        -0.000000     -0.000000      0.000000
      1.79871      1.79871      0.00000        -0.000000      0.000000     -0.000000
 -----------------------------------------------------------------------------------
    total drift:                                0.000000     -0.000000     -0.000000


--------------------------------------------------------------------------------------------------------



  FREE ENERGIE OF THE ION-ELECTRON SYSTEM (eV)
  ---------------------------------------------------
  free  energy   TOTEN  =       -72.81759802 eV

  energy  without entropy=      -72.81759802  energy(sigma->0) =      -72.81759802
 


--------------------------------------------------------------------------------------------------------


    POTLOK:  cpu time    0.0120: real time    0.0172


--------------------------------------------------------------------------------------------------------


 stress matrix after NEB project (eV)
     -2.79615      0.00000      0.00000
     -0.00000     -2.79615     -0.00000
      0.00000     -0.00000     -2.79615
  FORCES: max atom, RMS     0.000000    0.000000
  FORCE total and by dimension    0.000000    0.000000
  Stress total and by dimension    4.843076    2.796151


--------------------------------------------------------------------------------------------------------


  
 reached required accuracy - stopping structural energy minimisation
     LOOP+:  cpu time   31.7472: real time   32.2396
    4ORBIT:  cpu time    0.0000: real time    0.0000

 total amount of memory used by VASP MPI-rank0    52204. kBytes
=======================================================================

   base      :      30000. kBytes
   nonl-proj :      15323. kBytes
   fftplans  :        905. kBytes
   grid      :       2114. kBytes
   one-center:         24. kBytes
   wavefun   :       3838. kBytes
 
  
  
 General timing and accounting informations for this job:
 ========================================================
  
                  Total CPU time used (sec):       34.268
                            User time (sec):       33.240
                          System time (sec):        1.028
                         Elapsed time (sec):       35.667
  
                   Maximum memory used (kb):      126972.
                   Average memory used (kb):           0.
  
                          Minor page faults:        31786
                          Major page faults:          382
                 Voluntary context switches:         9018
