<?xml version="1.0" encoding="ISO-8859-1"?>
<modeling>
 <generator>
  <i name="program" type="string">vasp </i>
  <i name="version" type="string">5.4.4.18Apr17-6-g9f103f2a35  </i>
  <i name="subversion" type="string">(build Jan 14 2019 14:48:31) complex            parallel </i>
  <i name="platform" type="string">LinuxIFC </i>
  <i name="date" type="string">2019 08 26 </i>
  <i name="time" type="string">21:15:05 </i>
 </generator>
 <incar>
  <i type="int" name="ISTART">     0</i>
  <i type="string" name="PREC">high     (precision level)</i>
  <i type="logical" name="ADDGRID"> T  </i>
  <i type="int" name="NELM">    40</i>
  <i type="int" name="NELMIN">     4</i>
  <i type="int" name="IBRION">     2</i>
  <i name="EDIFF">      0.00000001</i>
  <i name="EDIFFG">     -0.01000000</i>
  <i type="int" name="NSW">   100</i>
  <i type="int" name="ISIF">     2</i>
  <i type="logical" name="LREAL"> F  </i>
  <i type="int" name="ISMEAR">     0</i>
  <i name="SIGMA">      0.05000000</i>
  <i type="logical" name="LWAVE"> F  </i>
  <i type="logical" name="LCHARG"> F  </i>
  <v type="int" name="KPOINT_BSE">    -1     0     0     0</v>
  <i type="int" name="NELM">    40</i>
 </incar>
 <structure name="primitive_cell" >
  <crystal>
   <varray name="basis" >
    <v>       1.79871455       1.79871455      -0.00000000 </v>
    <v>       1.79871455       0.00000000      -1.79871455 </v>
    <v>       0.00000000       1.79871455      -1.79871455 </v>
   </varray>
   <i name="volume">     11.63902874 </i>
   <varray name="rec_basis" >
    <v>       0.27797629       0.27797629       0.27797629 </v>
    <v>       0.27797629      -0.27797629      -0.27797629 </v>
    <v>      -0.27797629       0.27797629      -0.27797629 </v>
   </varray>
  </crystal>
  <varray name="positions" >
   <v>      -0.25000000      -0.25000000      -0.25000000 </v>
   <v>       0.00000000       0.00000000       0.00000000 </v>
  </varray>
 </structure>
 <varray name="primitive_index" >
  <v type="int" >        1 </v>
  <v type="int" >        2 </v>
 </varray>
 <kpoints>
  <generation param="Monkhorst-Pack">
   <v type="int" name="divisions">      14       14       14 </v>
   <v name="usershift">      0.00000000       0.00000000       0.00000000 </v>
   <v name="genvec1">      0.07142857       0.00000000       0.00000000 </v>
   <v name="genvec2">      0.00000000       0.07142857       0.00000000 </v>
   <v name="genvec3">      0.00000000       0.00000000       0.07142857 </v>
   <v name="shift">      0.50000000       0.50000000       0.50000000 </v>
  </generation>
  <varray name="kpointlist" >
   <v>       0.03571429       0.03571429       0.03571429 </v>
   <v>       0.10714286       0.03571429       0.03571429 </v>
   <v>       0.17857143       0.03571429       0.03571429 </v>
   <v>       0.25000000       0.03571429       0.03571429 </v>
   <v>       0.32142857       0.03571429       0.03571429 </v>
   <v>       0.39285714       0.03571429       0.03571429 </v>
   <v>       0.46428571       0.03571429       0.03571429 </v>
   <v>       0.10714286       0.10714286       0.03571429 </v>
   <v>       0.17857143       0.10714286       0.03571429 </v>
   <v>       0.25000000       0.10714286       0.03571429 </v>
   <v>       0.32142857       0.10714286       0.03571429 </v>
   <v>       0.39285714       0.10714286       0.03571429 </v>
   <v>       0.46428571       0.10714286       0.03571429 </v>
   <v>       0.17857143       0.17857143       0.03571429 </v>
   <v>       0.25000000       0.17857143       0.03571429 </v>
   <v>       0.32142857       0.17857143       0.03571429 </v>
   <v>       0.39285714       0.17857143       0.03571429 </v>
   <v>       0.46428571       0.17857143       0.03571429 </v>
   <v>       0.25000000       0.25000000       0.03571429 </v>
   <v>       0.32142857       0.25000000       0.03571429 </v>
   <v>       0.39285714       0.25000000       0.03571429 </v>
   <v>       0.46428571       0.25000000       0.03571429 </v>
   <v>       0.32142857       0.32142857       0.03571429 </v>
   <v>       0.39285714       0.32142857       0.03571429 </v>
   <v>       0.46428571       0.32142857       0.03571429 </v>
   <v>       0.39285714       0.39285714       0.03571429 </v>
   <v>       0.46428571       0.39285714       0.03571429 </v>
   <v>       0.46428571       0.46428571       0.03571429 </v>
   <v>       0.10714286       0.10714286       0.10714286 </v>
   <v>       0.17857143       0.10714286       0.10714286 </v>
   <v>       0.25000000       0.10714286       0.10714286 </v>
   <v>       0.32142857       0.10714286       0.10714286 </v>
   <v>       0.39285714       0.10714286       0.10714286 </v>
   <v>       0.46428571       0.10714286       0.10714286 </v>
   <v>       0.17857143       0.17857143       0.10714286 </v>
   <v>       0.25000000       0.17857143       0.10714286 </v>
   <v>       0.32142857       0.17857143       0.10714286 </v>
   <v>       0.39285714       0.17857143       0.10714286 </v>
   <v>       0.46428571       0.17857143       0.10714286 </v>
   <v>       0.25000000       0.25000000       0.10714286 </v>
   <v>       0.32142857       0.25000000       0.10714286 </v>
   <v>       0.39285714       0.25000000       0.10714286 </v>
   <v>       0.46428571       0.25000000       0.10714286 </v>
   <v>       0.32142857       0.32142857       0.10714286 </v>
   <v>       0.39285714       0.32142857       0.10714286 </v>
   <v>       0.46428571       0.32142857       0.10714286 </v>
   <v>       0.39285714       0.39285714       0.10714286 </v>
   <v>       0.46428571       0.39285714       0.10714286 </v>
   <v>       0.46428571       0.46428571       0.10714286 </v>
   <v>       0.17857143       0.17857143       0.17857143 </v>
   <v>       0.25000000       0.17857143       0.17857143 </v>
   <v>       0.32142857       0.17857143       0.17857143 </v>
   <v>       0.39285714       0.17857143       0.17857143 </v>
   <v>       0.46428571       0.17857143       0.17857143 </v>
   <v>       0.25000000       0.25000000       0.17857143 </v>
   <v>       0.32142857       0.25000000       0.17857143 </v>
   <v>       0.39285714       0.25000000       0.17857143 </v>
   <v>       0.46428571       0.25000000       0.17857143 </v>
   <v>       0.32142857       0.32142857       0.17857143 </v>
   <v>       0.39285714       0.32142857       0.17857143 </v>
   <v>       0.46428571       0.32142857       0.17857143 </v>
   <v>       0.39285714       0.39285714       0.17857143 </v>
   <v>       0.46428571       0.39285714       0.17857143 </v>
   <v>       0.46428571       0.46428571       0.17857143 </v>
   <v>       0.25000000       0.25000000       0.25000000 </v>
   <v>       0.32142857       0.25000000       0.25000000 </v>
   <v>       0.39285714       0.25000000       0.25000000 </v>
   <v>       0.46428571       0.25000000       0.25000000 </v>
   <v>       0.32142857       0.32142857       0.25000000 </v>
   <v>       0.39285714       0.32142857       0.25000000 </v>
   <v>       0.46428571       0.32142857       0.25000000 </v>
   <v>       0.39285714       0.39285714       0.25000000 </v>
   <v>       0.46428571       0.39285714       0.25000000 </v>
   <v>       0.46428571       0.46428571       0.25000000 </v>
   <v>       0.32142857       0.32142857       0.32142857 </v>
   <v>       0.39285714       0.32142857       0.32142857 </v>
   <v>       0.46428571       0.32142857       0.32142857 </v>
   <v>       0.39285714       0.39285714       0.32142857 </v>
   <v>       0.46428571       0.39285714       0.32142857 </v>
   <v>       0.46428571       0.46428571       0.32142857 </v>
   <v>       0.39285714       0.39285714       0.39285714 </v>
   <v>       0.46428571       0.39285714       0.39285714 </v>
   <v>       0.46428571       0.46428571       0.39285714 </v>
   <v>       0.46428571       0.46428571       0.46428571 </v>
  </varray>
  <varray name="weights" >
   <v>       0.00291545 </v>
   <v>       0.00874636 </v>
   <v>       0.00874636 </v>
   <v>       0.00874636 </v>
   <v>       0.00874636 </v>
   <v>       0.00874636 </v>
   <v>       0.00874636 </v>
   <v>       0.00874636 </v>
   <v>       0.01749271 </v>
   <v>       0.01749271 </v>
   <v>       0.01749271 </v>
   <v>       0.01749271 </v>
   <v>       0.01749271 </v>
   <v>       0.00874636 </v>
   <v>       0.01749271 </v>
   <v>       0.01749271 </v>
   <v>       0.01749271 </v>
   <v>       0.01749271 </v>
   <v>       0.00874636 </v>
   <v>       0.01749271 </v>
   <v>       0.01749271 </v>
   <v>       0.01749271 </v>
   <v>       0.00874636 </v>
   <v>       0.01749271 </v>
   <v>       0.01749271 </v>
   <v>       0.00874636 </v>
   <v>       0.01749271 </v>
   <v>       0.00874636 </v>
   <v>       0.00291545 </v>
   <v>       0.00874636 </v>
   <v>       0.00874636 </v>
   <v>       0.00874636 </v>
   <v>       0.00874636 </v>
   <v>       0.00874636 </v>
   <v>       0.00874636 </v>
   <v>       0.01749271 </v>
   <v>       0.01749271 </v>
   <v>       0.01749271 </v>
   <v>       0.01749271 </v>
   <v>       0.00874636 </v>
   <v>       0.01749271 </v>
   <v>       0.01749271 </v>
   <v>       0.01749271 </v>
   <v>       0.00874636 </v>
   <v>       0.01749271 </v>
   <v>       0.01749271 </v>
   <v>       0.00874636 </v>
   <v>       0.01749271 </v>
   <v>       0.00874636 </v>
   <v>       0.00291545 </v>
   <v>       0.00874636 </v>
   <v>       0.00874636 </v>
   <v>       0.00874636 </v>
   <v>       0.00874636 </v>
   <v>       0.00874636 </v>
   <v>       0.01749271 </v>
   <v>       0.01749271 </v>
   <v>       0.01749271 </v>
   <v>       0.00874636 </v>
   <v>       0.01749271 </v>
   <v>       0.01749271 </v>
   <v>       0.00874636 </v>
   <v>       0.01749271 </v>
   <v>       0.00874636 </v>
   <v>       0.00291545 </v>
   <v>       0.00874636 </v>
   <v>       0.00874636 </v>
   <v>       0.00874636 </v>
   <v>       0.00874636 </v>
   <v>       0.01749271 </v>
   <v>       0.01749271 </v>
   <v>       0.00874636 </v>
   <v>       0.01749271 </v>
   <v>       0.00874636 </v>
   <v>       0.00291545 </v>
   <v>       0.00874636 </v>
   <v>       0.00874636 </v>
   <v>       0.00874636 </v>
   <v>       0.01749271 </v>
   <v>       0.00874636 </v>
   <v>       0.00291545 </v>
   <v>       0.00874636 </v>
   <v>       0.00874636 </v>
   <v>       0.00291545 </v>
  </varray>
 </kpoints>
 <parameters>
  <separator name="general" >
   <i type="string" name="SYSTEM">unknown system</i>
   <i type="logical" name="LCOMPAT"> F  </i>
  </separator>
  <separator name="electronic" >
   <i type="string" name="PREC">high</i>
   <i name="ENMAX">    875.00000000</i>
   <i name="ENAUG">    946.76800000</i>
   <i name="EDIFF">      0.00000001</i>
   <i type="int" name="IALGO">    38</i>
   <i type="int" name="IWAVPR">    11</i>
   <i type="int" name="NBANDS">    24</i>
   <i name="NELECT">     32.00000000</i>
   <i type="int" name="TURBO">     0</i>
   <i type="int" name="IRESTART">     0</i>
   <i type="int" name="NREBOOT">     0</i>
   <i type="int" name="NMIN">     0</i>
   <i name="EREF">      0.00000000</i>
   <separator name="electronic smearing" >
    <i type="int" name="ISMEAR">     0</i>
    <i name="SIGMA">      0.05000000</i>
    <i name="KSPACING">      0.50000000</i>
    <i type="logical" name="KGAMMA"> T  </i>
   </separator>
   <separator name="electronic projectors" >
    <i type="logical" name="LREAL"> F  </i>
    <v name="ROPT">      0.00000000</v>
    <i type="int" name="LMAXPAW">  -100</i>
    <i type="int" name="LMAXMIX">     2</i>
    <i type="logical" name="NLSPLINE"> F  </i>
   </separator>
   <separator name="electronic startup" >
    <i type="int" name="ISTART">     0</i>
    <i type="int" name="ICHARG">     2</i>
    <i type="int" name="INIWAV">     1</i>
   </separator>
   <separator name="electronic spin" >
    <i type="int" name="ISPIN">     1</i>
    <i type="logical" name="LNONCOLLINEAR"> F  </i>
    <v name="MAGMOM">      1.00000000      1.00000000      1.00000000      1.00000000      1.00000000      1.00000000      1.00000000      1.00000000</v>
    <i name="NUPDOWN">     -1.00000000</i>
    <i type="logical" name="LSORBIT"> F  </i>
    <v name="SAXIS">      0.00000000      0.00000000      1.00000000</v>
    <i type="logical" name="LSPIRAL"> F  </i>
    <v name="QSPIRAL">      0.00000000      0.00000000      0.00000000</v>
    <i type="logical" name="LZEROZ"> F  </i>
   </separator>
   <separator name="electronic exchange-correlation" >
    <i type="logical" name="LASPH"> F  </i>
    <i type="logical" name="LMETAGGA"> F  </i>
   </separator>
   <separator name="electronic convergence" >
    <i type="int" name="NELM">    40</i>
    <i type="int" name="NELMDL">    -5</i>
    <i type="int" name="NELMIN">     4</i>
    <i name="ENINI">    875.00000000</i>
    <separator name="electronic convergence detail" >
     <i type="logical" name="LDIAG"> T  </i>
     <i type="logical" name="LSUBROT"> F  </i>
     <i name="WEIMIN">      0.00100000</i>
     <i name="EBREAK">      0.00000000</i>
     <i name="DEPER">      0.30000000</i>
     <i type="int" name="NRMM">     4</i>
     <i name="TIME">      0.40000000</i>
    </separator>
   </separator>
   <separator name="electronic mixer" >
    <i name="AMIX">      0.40000000</i>
    <i name="BMIX">      1.00000000</i>
    <i name="AMIN">      0.10000000</i>
    <i name="AMIX_MAG">      1.60000000</i>
    <i name="BMIX_MAG">      1.00000000</i>
    <separator name="electronic mixer details" >
     <i type="int" name="IMIX">     4</i>
     <i type="logical" name="MIXFIRST"> F  </i>
     <i type="int" name="MAXMIX">   -45</i>
     <i name="WC">    100.00000000</i>
     <i type="int" name="INIMIX">     1</i>
     <i type="int" name="MIXPRE">     1</i>
     <i type="int" name="MREMOVE">     5</i>
    </separator>
   </separator>
   <separator name="electronic dipolcorrection" >
    <i type="logical" name="LDIPOL"> F  </i>
    <i type="logical" name="LMONO"> F  </i>
    <i type="int" name="IDIPOL">     0</i>
    <i name="EPSILON">      1.00000000</i>
    <v name="DIPOL">   -100.00000000   -100.00000000   -100.00000000</v>
    <i name="EFIELD">      0.00000000</i>
   </separator>
  </separator>
  <separator name="grids" >
   <i type="int" name="NGX">    36</i>
   <i type="int" name="NGY">    36</i>
   <i type="int" name="NGZ">    36</i>
   <i type="int" name="NGXF">    48</i>
   <i type="int" name="NGYF">    48</i>
   <i type="int" name="NGZF">    48</i>
   <i type="logical" name="ADDGRID"> T  </i>
  </separator>
  <separator name="ionic" >
   <i type="int" name="NSW">   100</i>
   <i type="int" name="IBRION">     2</i>
   <i type="int" name="MDALGO">     0</i>
   <i type="int" name="ISIF">     2</i>
   <i name="PSTRESS">      0.00000000</i>
   <i name="EDIFFG">     -0.01000000</i>
   <i type="int" name="NFREE">     1</i>
   <i name="POTIM">      0.50000000</i>
   <i name="SMASS">     -3.00000000</i>
   <i name="SCALEE">      1.00000000</i>
  </separator>
  <separator name="ionic md" >
   <i name="TEBEG">      0.00010000</i>
   <i name="TEEND">      0.00010000</i>
   <i type="int" name="NBLOCK">     1</i>
   <i type="int" name="KBLOCK">   100</i>
   <i type="int" name="NPACO">   256</i>
   <i name="APACO">     16.00000000</i>
  </separator>
  <separator name="symmetry" >
   <i type="int" name="ISYM">     2</i>
   <i name="SYMPREC">      0.00001000</i>
  </separator>
  <separator name="dos" >
   <i type="int" name="LORBIT">     0</i>
   <v name="RWIGS">     -1.00000000</v>
   <i type="int" name="NEDOS">   301</i>
   <i name="EMIN">     10.00000000</i>
   <i name="EMAX">    -10.00000000</i>
   <i name="EFERMI">      0.00000000</i>
  </separator>
  <separator name="writing" >
   <i type="int" name="NWRITE">     2</i>
   <i type="logical" name="LWAVE"> F  </i>
   <i type="logical" name="LDOWNSAMPLE"> F  </i>
   <i type="logical" name="LCHARG"> F  </i>
   <i type="logical" name="LPARD"> F  </i>
   <i type="logical" name="LVTOT"> F  </i>
   <i type="logical" name="LVHAR"> F  </i>
   <i type="logical" name="LELF"> F  </i>
   <i type="logical" name="LOPTICS"> F  </i>
   <v name="STM">      0.00000000      0.00000000      0.00000000      0.00000000      0.00000000      0.00000000      0.00000000</v>
  </separator>
  <separator name="performance" >
   <i type="int" name="NPAR">    24</i>
   <i type="int" name="NSIM">     4</i>
   <i type="int" name="NBLK">    -1</i>
   <i type="logical" name="LPLANE"> T  </i>
   <i type="logical" name="LSCALAPACK"> T  </i>
   <i type="logical" name="LSCAAWARE"> F  </i>
   <i type="logical" name="LSCALU"> F  </i>
   <i type="logical" name="LASYNC"> F  </i>
   <i type="logical" name="LORBITALREAL"> F  </i>
  </separator>
  <separator name="miscellaneous" >
   <i type="int" name="IDIOT">     3</i>
   <i type="int" name="ISPECIAL">     0</i>
   <i type="logical" name="LMUSIC"> F  </i>
   <v name="POMASS">     12.01100000</v>
   <v name="DARWINR">      0.00000000</v>
   <v name="DARWINV">      1.00000000</v>
   <i type="logical" name="LCORR"> T  </i>
  </separator>
  <i type="logical" name="GGA_COMPAT"> T  </i>
  <i type="logical" name="LBERRY"> F  </i>
  <i type="int" name="ICORELEVEL">     0</i>
  <i type="logical" name="LDAU"> F  </i>
  <i type="int" name="I_CONSTRAINED_M">     0</i>
  <separator name="electronic exchange-correlation" >
   <i type="string" name="GGA">--</i>
   <i type="int" name="VOSKOWN">     0</i>
   <i type="logical" name="LHFCALC"> F  </i>
   <i type="string" name="PRECFOCK"></i>
   <i type="logical" name="LSYMGRAD"> F  </i>
   <i type="logical" name="LHFONE"> F  </i>
   <i type="logical" name="LRHFCALC"> F  </i>
   <i type="logical" name="LTHOMAS"> F  </i>
   <i type="logical" name="LMODELHF"> F  </i>
   <i name="ENCUT4O">     -1.00000000</i>
   <i type="int" name="EXXOEP">     0</i>
   <i type="int" name="FOURORBIT">     0</i>
   <i name="AEXX">      0.00000000</i>
   <i name="HFALPHA">      0.00000000</i>
   <i name="MCALPHA">      0.00000000</i>
   <i name="ALDAX">      1.00000000</i>
   <i name="AGGAX">      1.00000000</i>
   <i name="ALDAC">      1.00000000</i>
   <i name="AGGAC">      1.00000000</i>
   <i type="int" name="NKREDX">     1</i>
   <i type="int" name="NKREDY">     1</i>
   <i type="int" name="NKREDZ">     1</i>
   <i type="logical" name="SHIFTRED"> F  </i>
   <i type="logical" name="ODDONLY"> F  </i>
   <i type="logical" name="EVENONLY"> F  </i>
   <i type="int" name="LMAXFOCK">     0</i>
   <i type="int" name="NMAXFOCKAE">     0</i>
   <i type="logical" name="LFOCKAEDFT"> F  </i>
   <i name="HFSCREEN">      0.00000000</i>
   <i name="HFSCREENC">      0.00000000</i>
   <i type="int" name="NBANDSGWLOW">     0</i>
  </separator>
  <separator name="vdW DFT" >
   <i type="logical" name="LUSE_VDW"> F  </i>
   <i name="Zab_VDW">     -0.84910000</i>
   <i name="PARAM1">      0.12340000</i>
   <i name="PARAM2">      1.00000000</i>
   <i name="PARAM3">      0.00000000</i>
  </separator>
  <separator name="model GW" >
   <i type="int" name="MODEL_GW">     0</i>
   <i name="MODEL_EPS0">      3.49170862</i>
   <i name="MODEL_ALPHA">      1.00000000</i>
  </separator>
  <separator name="linear response parameters" >
   <i type="logical" name="LEPSILON"> F  </i>
   <i type="logical" name="LRPA"> F  </i>
   <i type="logical" name="LNABLA"> F  </i>
   <i type="logical" name="LVEL"> F  </i>
   <i type="int" name="KINTER">     0</i>
   <i name="CSHIFT">      0.10000000</i>
   <i name="OMEGAMAX">     -1.00000000</i>
   <i name="DEG_THRESHOLD">      0.00200000</i>
   <i name="RTIME">     -0.10000000</i>
   <i name="WPLASMAI">      0.00000000</i>
   <v name="DFIELD">      0.00000000      0.00000000      0.00000000</v>
   <v name="WPLASMA">      0.00000000      0.00000000      0.00000000      0.00000000      0.00000000      0.00000000      0.00000000      0.00000000      0.00000000</v>
  </separator>
  <separator name="orbital magnetization" >
   <i type="logical" name="NUCIND"> F  </i>
   <v name="MAGPOS">      0.00000000      0.00000000      0.00000000</v>
   <i type="logical" name="LNICSALL"> T  </i>
   <i type="logical" name="ORBITALMAG"> F  </i>
   <i type="logical" name="LMAGBLOCH"> F  </i>
   <i type="logical" name="LCHIMAG"> F  </i>
   <i type="logical" name="LGAUGE"> T  </i>
   <i type="int" name="MAGATOM">     0</i>
   <v name="MAGDIPOL">      0.00000000      0.00000000      0.00000000</v>
   <v name="AVECCONST">      0.00000000      0.00000000      0.00000000</v>
  </separator>
  <separator name="response functions" >
   <i type="logical" name="LADDER"> F  </i>
   <i type="logical" name="LRPAFORCE"> F  </i>
   <i type="logical" name="LFXC"> F  </i>
   <i type="logical" name="LHARTREE"> T  </i>
   <i type="int" name="IBSE">     0</i>
   <v type="int" name="KPOINT">    -1     0     0     0</v>
   <i type="logical" name="LTCTE"> F  </i>
   <i type="logical" name="LTETE"> F  </i>
   <i type="logical" name="LTRIPLET"> F  </i>
   <i type="logical" name="LFXCEPS"> F  </i>
   <i type="logical" name="LFXHEG"> F  </i>
   <i type="int" name="NATURALO">     2</i>
   <i type="logical" name="L2ORDER"> F  </i>
   <i type="logical" name="LMP2LT"> F  </i>
   <i type="logical" name="LUSEW"> F  </i>
   <i name="ENCUTGW">     -2.00000000</i>
   <i name="ENCUTGWSOFT">     -2.00000000</i>
   <i name="ENCUTLF">     -1.00000000</i>
   <i type="int" name="LMAXMP2">    -1</i>
   <i name="SCISSOR">      0.00000000</i>
   <i type="int" name="NOMEGA">     0</i>
   <i type="int" name="NOMEGAR">     0</i>
   <i type="int" name="NBANDSGW">    -1</i>
   <i type="int" name="NBANDSO">    -1</i>
   <i type="int" name="NBANDSV">    -1</i>
   <i type="int" name="NELM">    40</i>
   <i type="int" name="NELMHF">     1</i>
   <i type="int" name="DIM">     3</i>
   <i type="int" name="ANTIRES">     0</i>
   <i name="OMEGAMAX">    -30.00000000</i>
   <i name="OMEGAMIN">    -30.00000000</i>
   <i name="OMEGATL">   -200.00000000</i>
   <i type="int" name="OMEGAGRID">   140</i>
   <i name="CSHIFT">     -0.10000000</i>
   <i type="logical" name="SELFENERGY"> F  </i>
   <i type="logical" name="LSPECTRAL"> F  </i>
   <i type="logical" name="LSPECTRALGW"> F  </i>
   <i type="logical" name="LSINGLES"> F  </i>
   <i type="logical" name="LFERMIGW"> F  </i>
   <i type="logical" name="ODDONLYGW"> F  </i>
   <i type="logical" name="EVENONLYGW"> F  </i>
   <i type="int" name="NKREDLFX">     1</i>
   <i type="int" name="NKREDLFY">     1</i>
   <i type="int" name="NKREDLFZ">     1</i>
   <i type="int" name="MAXMEM">  2800</i>
   <i type="int" name="TELESCOPE">     0</i>
   <i type="int" name="TAUPAR">     1</i>
   <i type="int" name="OMEGAPAR">    -1</i>
   <i name="LAMBDA">      1.00000000</i>
  </separator>
  <separator name="External order field" >
   <i name="OFIELD_KAPPA">      0.00000000</i>
   <v name="OFIELD_K">      0.00000000      0.00000000      0.00000000</v>
   <i name="OFIELD_Q6_NEAR">      0.00000000</i>
   <i name="OFIELD_Q6_FAR">      0.00000000</i>
   <i name="OFIELD_A">      0.00000000</i>
  </separator>
 </parameters>
 <atominfo>
  <atoms>       8 </atoms>
  <types>       1 </types>
  <array name="atoms" >
   <dimension dim="1">ion</dimension>
   <field type="string">element</field>
   <field type="int">atomtype</field>
   <set>
    <rc><c>C </c><c>   1</c></rc>
    <rc><c>C </c><c>   1</c></rc>
    <rc><c>C </c><c>   1</c></rc>
    <rc><c>C </c><c>   1</c></rc>
    <rc><c>C </c><c>   1</c></rc>
    <rc><c>C </c><c>   1</c></rc>
    <rc><c>C </c><c>   1</c></rc>
    <rc><c>C </c><c>   1</c></rc>
   </set>
  </array>
  <array name="atomtypes" >
   <dimension dim="1">type</dimension>
   <field type="int">atomspertype</field>
   <field type="string">element</field>
   <field>mass</field>
   <field>valence</field>
   <field type="string">pseudopotential</field>
   <set>
    <rc><c>   8</c><c>C </c><c>     12.01100000</c><c>      4.00000000</c><c>  PAW_PBE C_h 06Feb2004                 </c></rc>
   </set>
  </array>
 </atominfo>
 <structure name="initialpos" >
  <crystal>
   <varray name="basis" >
    <v>       3.59742910       0.00000000       0.00000000 </v>
    <v>       0.00000000       3.59742910       0.00000000 </v>
    <v>       0.00000000       0.00000000       3.59742910 </v>
   </varray>
   <i name="volume">     46.55611496 </i>
   <varray name="rec_basis" >
    <v>       0.27797629       0.00000000       0.00000000 </v>
    <v>       0.00000000       0.27797629       0.00000000 </v>
    <v>       0.00000000       0.00000000       0.27797629 </v>
   </varray>
  </crystal>
  <varray name="positions" >
   <v>       0.25000000       0.25000000       0.25000000 </v>
   <v>       0.00000000       0.00000000       0.00000000 </v>
   <v>       0.25000000       0.75000000       0.75000000 </v>
   <v>       0.00000000       0.50000000       0.50000000 </v>
   <v>       0.75000000       0.25000000       0.75000000 </v>
   <v>       0.50000000       0.00000000       0.50000000 </v>
   <v>       0.75000000       0.75000000       0.25000000 </v>
   <v>       0.50000000       0.50000000       0.00000000 </v>
  </varray>
 </structure>
 <calculation>
  <scstep>
   <time name="dav">    1.36    1.45</time>
   <time name="total">    1.39    1.53</time>
   <energy>
    <i name="alphaZ">     75.36126283 </i>
    <i name="ewald">  -1379.98548272 </i>
    <i name="hartreedc">    -72.24267606 </i>
    <i name="XCdc">     61.54653018 </i>
    <i name="pawpsdc">    914.77613359 </i>
    <i name="pawaedc">   -872.73161751 </i>
    <i name="eentropy">     -0.00136869 </i>
    <i name="bandstr">    194.15221691 </i>
    <i name="atom">   1177.21277265 </i>
    <i name="e_fr_energy">     98.08777119 </i>
    <i name="e_wo_entrp">     98.08913988 </i>
    <i name="e_0_energy">     98.08845554 </i>
   </energy>
  </scstep>
  <scstep>
   <time name="dav">    2.38    2.41</time>
   <time name="total">    2.38    2.41</time>
   <energy>
    <i name="e_fr_energy">    -72.41759394 </i>
    <i name="e_wo_entrp">    -72.41759394 </i>
    <i name="e_0_energy">    -72.41759394 </i>
   </energy>
  </scstep>
  <scstep>
   <time name="dav">    1.64    1.65</time>
   <time name="total">    1.64    1.65</time>
   <energy>
    <i name="e_fr_energy">    -75.09151002 </i>
    <i name="e_wo_entrp">    -75.09151002 </i>
    <i name="e_0_energy">    -75.09151002 </i>
   </energy>
  </scstep>
  <scstep>
   <time name="dav">    2.82    2.83</time>
   <time name="total">    2.82    2.83</time>
   <energy>
    <i name="e_fr_energy">    -75.10847271 </i>
    <i name="e_wo_entrp">    -75.10847271 </i>
    <i name="e_0_energy">    -75.10847271 </i>
   </energy>
  </scstep>
  <scstep>
   <time name="dav">    1.62    1.63</time>
   <time name="total">    1.70    1.76</time>
   <energy>
    <i name="e_fr_energy">    -75.10847527 </i>
    <i name="e_wo_entrp">    -75.10847527 </i>
    <i name="e_0_energy">    -75.10847527 </i>
   </energy>
  </scstep>
  <scstep>
   <time name="dav">    1.61    1.62</time>
   <time name="total">    1.70    1.73</time>
   <energy>
    <i name="e_fr_energy">    -73.39288953 </i>
    <i name="e_wo_entrp">    -73.39288953 </i>
    <i name="e_0_energy">    -73.39288953 </i>
   </energy>
  </scstep>
  <scstep>
   <time name="dav">    2.03    2.04</time>
   <time name="total">    2.12    2.14</time>
   <energy>
    <i name="e_fr_energy">    -72.81869159 </i>
    <i name="e_wo_entrp">    -72.81869159 </i>
    <i name="e_0_energy">    -72.81869159 </i>
   </energy>
  </scstep>
  <scstep>
   <time name="dav">    2.47    2.47</time>
   <time name="total">    2.56    2.57</time>
   <energy>
    <i name="e_fr_energy">    -72.81727909 </i>
    <i name="e_wo_entrp">    -72.81727909 </i>
    <i name="e_0_energy">    -72.81727909 </i>
   </energy>
  </scstep>
  <scstep>
   <time name="dav">    2.02    2.03</time>
   <time name="total">    2.12    2.13</time>
   <energy>
    <i name="e_fr_energy">    -72.81747260 </i>
    <i name="e_wo_entrp">    -72.81747260 </i>
    <i name="e_0_energy">    -72.81747260 </i>
   </energy>
  </scstep>
  <scstep>
   <time name="dav">    2.37    2.37</time>
   <time name="total">    2.45    2.47</time>
   <energy>
    <i name="e_fr_energy">    -72.81759654 </i>
    <i name="e_wo_entrp">    -72.81759654 </i>
    <i name="e_0_energy">    -72.81759654 </i>
   </energy>
  </scstep>
  <scstep>
   <time name="dav">    2.25    2.25</time>
   <time name="total">    2.34    2.35</time>
   <energy>
    <i name="e_fr_energy">    -72.81759764 </i>
    <i name="e_wo_entrp">    -72.81759764 </i>
    <i name="e_0_energy">    -72.81759764 </i>
   </energy>
  </scstep>
  <scstep>
   <time name="dav">    2.31    2.31</time>
   <time name="total">    2.39    2.40</time>
   <energy>
    <i name="e_fr_energy">    -72.81759801 </i>
    <i name="e_wo_entrp">    -72.81759801 </i>
    <i name="e_0_energy">    -72.81759801 </i>
   </energy>
  </scstep>
  <scstep>
   <time name="dav">    2.31    2.32</time>
   <time name="total">    2.40    2.41</time>
   <energy>
    <i name="e_fr_energy">    -72.81759802 </i>
    <i name="e_wo_entrp">    -72.81759802 </i>
    <i name="e_0_energy">    -72.81759802 </i>
   </energy>
  </scstep>
  <scstep>
   <time name="dav">    2.10    2.11</time>
   <time name="total">    2.11    2.13</time>
   <energy>
    <i name="alphaZ">     75.36126283 </i>
    <i name="ewald">  -1379.98548272 </i>
    <i name="hartreedc">   -106.71183604 </i>
    <i name="XCdc">     64.51125251 </i>
    <i name="pawpsdc">  13735.50902611 </i>
    <i name="pawaedc"> -13693.93705515 </i>
    <i name="eentropy">     -0.00000000 </i>
    <i name="bandstr">     55.22246179 </i>
    <i name="atom">   1177.21277265 </i>
    <i name="e_fr_energy">    -72.81759802 </i>
    <i name="e_wo_entrp">    -72.81759802 </i>
    <i name="e_0_energy">    -72.81759802 </i>
   </energy>
  </scstep>
  <structure>
   <crystal>
    <varray name="basis" >
     <v>       3.59742910       0.00000000       0.00000000 </v>
     <v>       0.00000000       3.59742910       0.00000000 </v>
     <v>       0.00000000       0.00000000       3.59742910 </v>
    </varray>
    <i name="volume">     46.55611496 </i>
    <varray name="rec_basis" >
     <v>       0.27797629       0.00000000       0.00000000 </v>
     <v>       0.00000000       0.27797629       0.00000000 </v>
     <v>       0.00000000       0.00000000       0.27797629 </v>
    </varray>
   </crystal>
   <varray name="positions" >
    <v>       0.25000000       0.25000000       0.25000000 </v>
    <v>       0.00000000       0.00000000       0.00000000 </v>
    <v>       0.25000000       0.75000000       0.75000000 </v>
    <v>       0.00000000       0.50000000       0.50000000 </v>
    <v>       0.75000000       0.25000000       0.75000000 </v>
    <v>       0.50000000       0.00000000       0.50000000 </v>
    <v>       0.75000000       0.75000000       0.25000000 </v>
    <v>       0.50000000       0.50000000       0.00000000 </v>
   </varray>
  </structure>
  <varray name="forces" >
   <v>       0.00000000       0.00000000      -0.00000000 </v>
   <v>      -0.00000000      -0.00000000      -0.00000000 </v>
   <v>      -0.00000000       0.00000000       0.00000000 </v>
   <v>       0.00000000       0.00000000      -0.00000000 </v>
   <v>      -0.00000000      -0.00000000       0.00000000 </v>
   <v>       0.00000000      -0.00000000      -0.00000000 </v>
   <v>      -0.00000000      -0.00000000       0.00000000 </v>
   <v>      -0.00000000       0.00000000      -0.00000000 </v>
  </varray>
  <varray name="stress" >
   <v>     -96.22645147       0.00000000       0.00000000 </v>
   <v>      -0.00000000     -96.22645147      -0.00000000 </v>
   <v>       0.00000000      -0.00000000     -96.22645147 </v>
  </varray>
  <energy>
   <i name="e_fr_energy">    -72.81759802 </i>
   <i name="e_wo_entrp">    -72.81759802 </i>
   <i name="e_0_energy">     -0.00000000 </i>
  </energy>
  <time name="totalsc">   31.75   32.24</time>
  <eigenvalues>
   <array>
    <dimension dim="1">band</dimension>
    <dimension dim="2">kpoint</dimension>
    <dimension dim="3">spin</dimension>
    <field>eigene</field>
    <field>occ</field>
    <set>
     <set comment="spin 1">
      <set comment="kpoint 1">
       <r>  -10.5550    1.0000 </r>
       <r>   -2.5805    1.0000 </r>
       <r>   -2.5805    1.0000 </r>
       <r>   -2.5805    1.0000 </r>
       <r>   -1.4630    1.0000 </r>
       <r>   -1.4630    1.0000 </r>
       <r>   -1.4630    1.0000 </r>
       <r>    4.2896    1.0000 </r>
       <r>    4.2896    1.0000 </r>
       <r>    4.2896    1.0000 </r>
       <r>    4.4299    1.0000 </r>
       <r>    4.4299    1.0000 </r>
       <r>    4.4299    1.0000 </r>
       <r>   10.2922    1.0000 </r>
       <r>   10.4791    1.0000 </r>
       <r>   10.4791    1.0000 </r>
       <r>   15.1711    0.0000 </r>
       <r>   15.1711    0.0000 </r>
       <r>   15.1711    0.0000 </r>
       <r>   15.5515    0.0000 </r>
       <r>   15.5515    0.0000 </r>
       <r>   15.5515    0.0000 </r>
       <r>   16.1528    0.0000 </r>
       <r>   16.1529    0.0000 </r>
      </set>
      <set comment="kpoint 2">
       <r>  -10.4625    1.0000 </r>
       <r>   -3.6501    1.0000 </r>
       <r>   -2.5181    1.0000 </r>
       <r>   -2.5181    1.0000 </r>
       <r>   -1.4135    1.0000 </r>
       <r>   -1.4135    1.0000 </r>
       <r>   -0.3097    1.0000 </r>
       <r>    3.9719    1.0000 </r>
       <r>    3.9719    1.0000 </r>
       <r>    4.3671    1.0000 </r>
       <r>    4.3671    1.0000 </r>
       <r>    4.3827    1.0000 </r>
       <r>    4.5195    1.0000 </r>
       <r>    9.8476    1.0000 </r>
       <r>   10.1272    1.0000 </r>
       <r>   10.3638    1.0000 </r>
       <r>   14.9367    0.0000 </r>
       <r>   15.4538    0.0000 </r>
       <r>   15.4538    0.0000 </r>
       <r>   16.0016    0.0000 </r>
       <r>   16.0051    0.0000 </r>
       <r>   16.0051    0.0000 </r>
       <r>   16.0845    0.0000 </r>
       <r>   16.5821    0.0000 </r>
      </set>
      <set comment="kpoint 3">
       <r>  -10.2777    1.0000 </r>
       <r>   -4.6621    1.0000 </r>
       <r>   -2.3977    1.0000 </r>
       <r>   -2.3977    1.0000 </r>
       <r>   -1.3213    1.0000 </r>
       <r>   -1.3213    1.0000 </r>
       <r>    0.8646    1.0000 </r>
       <r>    3.5411    1.0000 </r>
       <r>    3.5411    1.0000 </r>
       <r>    4.1292    1.0000 </r>
       <r>    4.1292    1.0000 </r>
       <r>    4.5688    1.0000 </r>
       <r>    4.6983    1.0000 </r>
       <r>    9.2273    1.0000 </r>
       <r>    9.5488    1.0000 </r>
       <r>    9.9898    1.0000 </r>
       <r>   14.7882    0.0000 </r>
       <r>   15.9468    0.0000 </r>
       <r>   16.0528    0.0000 </r>
       <r>   16.0528    0.0000 </r>
       <r>   16.5804    0.0000 </r>
       <r>   16.7868    0.0000 </r>
       <r>   16.7868    0.0000 </r>
       <r>   17.3141    0.0000 </r>
      </set>
      <set comment="kpoint 4">
       <r>  -10.0011    1.0000 </r>
       <r>   -5.6086    1.0000 </r>
       <r>   -2.2302    1.0000 </r>
       <r>   -2.2302    1.0000 </r>
       <r>   -1.2012    1.0000 </r>
       <r>   -1.2012    1.0000 </r>
       <r>    2.0425    1.0000 </r>
       <r>    3.0743    1.0000 </r>
       <r>    3.0743    1.0000 </r>
       <r>    3.7824    1.0000 </r>
       <r>    3.7824    1.0000 </r>
       <r>    4.8489    1.0000 </r>
       <r>    4.9644    1.0000 </r>
       <r>    8.5198    1.0000 </r>
       <r>    8.8687    1.0000 </r>
       <r>    9.4145    1.0000 </r>
       <r>   14.7240    0.0000 </r>
       <r>   15.7618    0.0000 </r>
       <r>   16.9254    0.0000 </r>
       <r>   16.9254    0.0000 </r>
       <r>   17.2871    0.0000 </r>
       <r>   17.7982    0.0000 </r>
       <r>   17.7982    0.0000 </r>
       <r>   18.2198    0.0000 </r>
      </set>
      <set comment="kpoint 5">
       <r>   -9.6335    1.0000 </r>
       <r>   -6.4832    1.0000 </r>
       <r>   -2.0353    1.0000 </r>
       <r>   -2.0353    1.0000 </r>
       <r>   -1.0779    1.0000 </r>
       <r>   -1.0779    1.0000 </r>
       <r>    2.6466    1.0000 </r>
       <r>    2.6466    1.0000 </r>
       <r>    3.2024    1.0000 </r>
       <r>    3.4062    1.0000 </r>
       <r>    3.4062    1.0000 </r>
       <r>    5.2252    1.0000 </r>
       <r>    5.3159    1.0000 </r>
       <r>    7.7802    1.0000 </r>
       <r>    8.1646    1.0000 </r>
       <r>    8.6929    1.0000 </r>
       <r>   14.7355    0.0000 </r>
       <r>   15.5491    0.0000 </r>
       <r>   17.9986    0.0000 </r>
       <r>   17.9986    0.0000 </r>
       <r>   18.1230    0.0000 </r>
       <r>   18.9595    0.0000 </r>
       <r>   18.9595    0.0000 </r>
       <r>   19.2143    0.0000 </r>
      </set>
      <set comment="kpoint 6">
       <r>   -9.1760    1.0000 </r>
       <r>   -7.2808    1.0000 </r>
       <r>   -1.8488    1.0000 </r>
       <r>   -1.8488    1.0000 </r>
       <r>   -0.9825    1.0000 </r>
       <r>   -0.9825    1.0000 </r>
       <r>    2.3246    1.0000 </r>
       <r>    2.3246    1.0000 </r>
       <r>    3.0813    1.0000 </r>
       <r>    3.0813    1.0000 </r>
       <r>    4.3158    1.0000 </r>
       <r>    5.7053    1.0000 </r>
       <r>    5.7491    1.0000 </r>
       <r>    7.0276    1.0000 </r>
       <r>    7.4799    1.0000 </r>
       <r>    7.8799    1.0000 </r>
       <r>   14.8134    0.0000 </r>
       <r>   15.3302    0.0000 </r>
       <r>   19.0807    0.0000 </r>
       <r>   19.1908    0.0000 </r>
       <r>   19.1908    0.0000 </r>
       <r>   20.1803    0.0000 </r>
       <r>   20.1875    0.0000 </r>
       <r>   20.2607    0.0000 </r>
      </set>
      <set comment="kpoint 7">
       <r>   -8.6301    1.0000 </r>
       <r>   -7.9975    1.0000 </r>
       <r>   -1.7270    1.0000 </r>
       <r>   -1.7270    1.0000 </r>
       <r>   -0.9361    1.0000 </r>
       <r>   -0.9361    1.0000 </r>
       <r>    2.1553    1.0000 </r>
       <r>    2.1553    1.0000 </r>
       <r>    2.8881    1.0000 </r>
       <r>    2.8881    1.0000 </r>
       <r>    5.3416    1.0000 </r>
       <r>    6.2373    1.0000 </r>
       <r>    6.2594    1.0000 </r>
       <r>    6.3080    1.0000 </r>
       <r>    6.8397    1.0000 </r>
       <r>    7.0504    1.0000 </r>
       <r>   14.9469    0.0000 </r>
       <r>   15.1239    0.0000 </r>
       <r>   20.1352    0.0000 </r>
       <r>   20.3537    0.0000 </r>
       <r>   20.3537    0.0000 </r>
       <r>   21.1619    0.0000 </r>
       <r>   21.1627    0.0000 </r>
       <r>   21.2136    0.0000 </r>
      </set>
      <set comment="kpoint 8">
       <r>  -10.3701    1.0000 </r>
       <r>   -3.5785    1.0000 </r>
       <r>   -3.5785    1.0000 </r>
       <r>   -2.4620    1.0000 </r>
       <r>   -1.3676    1.0000 </r>
       <r>   -0.2819    1.0000 </r>
       <r>   -0.2819    1.0000 </r>
       <r>    3.4630    1.0000 </r>
       <r>    4.0728    1.0000 </r>
       <r>    4.0728    1.0000 </r>
       <r>    4.4613    1.0000 </r>
       <r>    4.4613    1.0000 </r>
       <r>    4.5829    1.0000 </r>
       <r>    9.3061    1.0000 </r>
       <r>    9.8554    1.0000 </r>
       <r>   10.3697    1.0000 </r>
       <r>   15.2776    0.0000 </r>
       <r>   15.2776    0.0000 </r>
       <r>   15.4137    0.0000 </r>
       <r>   16.3329    0.0000 </r>
       <r>   16.3931    0.0000 </r>
       <r>   16.3931    0.0000 </r>
       <r>   16.6866    0.0000 </r>
       <r>   16.7016    0.0000 </r>
      </set>
      <set comment="kpoint 9">
       <r>  -10.1855    1.0000 </r>
       <r>   -4.5844    1.0000 </r>
       <r>   -3.4380    1.0000 </r>
       <r>   -2.3583    1.0000 </r>
       <r>   -1.2823    1.0000 </r>
       <r>   -0.2376    1.0000 </r>
       <r>    0.8580    1.0000 </r>
       <r>    2.9179    1.0000 </r>
       <r>    3.6512    1.0000 </r>
       <r>    4.2418    1.0000 </r>
       <r>    4.2760    1.0000 </r>
       <r>    4.5962    1.0000 </r>
       <r>    4.6515    1.0000 </r>
       <r>    8.6321    1.0000 </r>
       <r>    9.3050    1.0000 </r>
       <r>   10.1556    1.0000 </r>
       <r>   15.1495    0.0000 </r>
       <r>   15.7215    0.0000 </r>
       <r>   15.9301    0.0000 </r>
       <r>   16.2920    0.0000 </r>
       <r>   16.9439    0.0000 </r>
       <r>   17.1134    0.0000 </r>
       <r>   17.3109    0.0000 </r>
       <r>   17.4827    0.0000 </r>
      </set>
      <set comment="kpoint 10">
       <r>   -9.9093    1.0000 </r>
       <r>   -5.5266    1.0000 </r>
       <r>   -3.2350    1.0000 </r>
       <r>   -2.2275    1.0000 </r>
       <r>   -1.1692    1.0000 </r>
       <r>   -0.2015    1.0000 </r>
       <r>    1.9786    1.0000 </r>
       <r>    2.4170    1.0000 </r>
       <r>    3.1894    1.0000 </r>
       <r>    3.9370    1.0000 </r>
       <r>    4.4351    1.0000 </r>
       <r>    4.5831    1.0000 </r>
       <r>    4.9430    1.0000 </r>
       <r>    7.8992    1.0000 </r>
       <r>    8.6434    1.0000 </r>
       <r>    9.6994    1.0000 </r>
       <r>   15.0959    0.0000 </r>
       <r>   16.1256    0.0000 </r>
       <r>   16.3665    0.0000 </r>
       <r>   16.8388    0.0000 </r>
       <r>   17.6287    0.0000 </r>
       <r>   18.0756    0.0000 </r>
       <r>   18.1952    0.0000 </r>
       <r>   18.2403    0.0000 </r>
      </set>
      <set comment="kpoint 11">
       <r>   -9.5421    1.0000 </r>
       <r>   -6.3982    1.0000 </r>
       <r>   -2.9810    1.0000 </r>
       <r>   -2.1125    1.0000 </r>
       <r>   -1.0375    1.0000 </r>
       <r>   -0.2102    1.0000 </r>
       <r>    2.0380    1.0000 </r>
       <r>    2.7472    1.0000 </r>
       <r>    3.0436    1.0000 </r>
       <r>    3.6436    1.0000 </r>
       <r>    4.1649    1.0000 </r>
       <r>    4.9913    1.0000 </r>
       <r>    5.3521    1.0000 </r>
       <r>    7.1485    1.0000 </r>
       <r>    7.9507    1.0000 </r>
       <r>    9.0568    1.0000 </r>
       <r>   15.1136    0.0000 </r>
       <r>   15.9218    0.0000 </r>
       <r>   17.2802    0.0000 </r>
       <r>   17.9362    0.0000 </r>
       <r>   18.4433    0.0000 </r>
       <r>   19.1207    0.0000 </r>
       <r>   19.1878    0.0000 </r>
       <r>   19.1940    0.0000 </r>
      </set>
      <set comment="kpoint 12">
       <r>   -9.0852    1.0000 </r>
       <r>   -7.1937    1.0000 </r>
       <r>   -2.6961    1.0000 </r>
       <r>   -2.0821    1.0000 </r>
       <r>   -0.8793    1.0000 </r>
       <r>   -0.2984    1.0000 </r>
       <r>    1.8459    1.0000 </r>
       <r>    2.3604    1.0000 </r>
       <r>    3.4596    1.0000 </r>
       <r>    3.8618    1.0000 </r>
       <r>    4.0127    1.0000 </r>
       <r>    5.4820    1.0000 </r>
       <r>    5.9118    1.0000 </r>
       <r>    6.3990    1.0000 </r>
       <r>    7.2705    1.0000 </r>
       <r>    8.2884    1.0000 </r>
       <r>   15.1947    0.0000 </r>
       <r>   15.7083    0.0000 </r>
       <r>   18.3759    0.0000 </r>
       <r>   19.1469    0.0000 </r>
       <r>   19.3788    0.0000 </r>
       <r>   20.0761    0.0000 </r>
       <r>   20.2468    0.0000 </r>
       <r>   20.3095    0.0000 </r>
      </set>
      <set comment="kpoint 13">
       <r>   -8.5401    1.0000 </r>
       <r>   -7.9087    1.0000 </r>
       <r>   -2.4144    1.0000 </r>
       <r>   -2.1892    1.0000 </r>
       <r>   -0.6815    1.0000 </r>
       <r>   -0.4691    1.0000 </r>
       <r>    1.8621    1.0000 </r>
       <r>    2.0522    1.0000 </r>
       <r>    3.4469    1.0000 </r>
       <r>    3.5991    1.0000 </r>
       <r>    4.8698    1.0000 </r>
       <r>    5.6488    1.0000 </r>
       <r>    6.0293    1.0000 </r>
       <r>    6.6263    1.0000 </r>
       <r>    6.6335    1.0000 </r>
       <r>    7.4558    1.0000 </r>
       <r>   15.3292    0.0000 </r>
       <r>   15.5051    0.0000 </r>
       <r>   19.5410    0.0000 </r>
       <r>   20.2281    0.0000 </r>
       <r>   20.4090    0.0000 </r>
       <r>   20.8433    0.0000 </r>
       <r>   21.0617    0.0000 </r>
       <r>   21.3143    0.0000 </r>
      </set>
      <set comment="kpoint 14">
       <r>  -10.0013    1.0000 </r>
       <r>   -4.4307    1.0000 </r>
       <r>   -4.4307    1.0000 </r>
       <r>   -2.2974    1.0000 </r>
       <r>   -1.2080    1.0000 </r>
       <r>    0.8269    1.0000 </r>
       <r>    0.8269    1.0000 </r>
       <r>    2.3368    1.0000 </r>
       <r>    3.8701    1.0000 </r>
       <r>    3.8701    1.0000 </r>
       <r>    4.4773    1.0000 </r>
       <r>    4.4773    1.0000 </r>
       <r>    4.8839    1.0000 </r>
       <r>    7.9289    1.0000 </r>
       <r>    8.7849    1.0000 </r>
       <r>   10.1403    1.0000 </r>
       <r>   15.7250    0.0000 </r>
       <r>   15.8292    0.0000 </r>
       <r>   15.8292    0.0000 </r>
       <r>   16.6917    0.0000 </r>
       <r>   17.4940    0.0000 </r>
       <r>   17.6212    0.0000 </r>
       <r>   17.6212    0.0000 </r>
       <r>   17.8159    0.0000 </r>
      </set>
      <set comment="kpoint 15">
       <r>   -9.7258    1.0000 </r>
       <r>   -5.3639    1.0000 </r>
       <r>   -4.2051    1.0000 </r>
       <r>   -2.2593    1.0000 </r>
       <r>   -1.0978    1.0000 </r>
       <r>    0.7389    1.0000 </r>
       <r>    1.8315    1.0000 </r>
       <r>    1.8803    1.0000 </r>
       <r>    3.4097    1.0000 </r>
       <r>    4.1906    1.0000 </r>
       <r>    4.2688    1.0000 </r>
       <r>    4.8599    1.0000 </r>
       <r>    4.9692    1.0000 </r>
       <r>    7.1860    1.0000 </r>
       <r>    8.1478    1.0000 </r>
       <r>    9.8613    1.0000 </r>
       <r>   15.7897    0.0000 </r>
       <r>   16.0931    0.0000 </r>
       <r>   16.7178    0.0000 </r>
       <r>   16.7612    0.0000 </r>
       <r>   18.1968    0.0000 </r>
       <r>   18.2679    0.0000 </r>
       <r>   18.3299    0.0000 </r>
       <r>   18.5331    0.0000 </r>
      </set>
      <set comment="kpoint 16">
       <r>   -9.3596    1.0000 </r>
       <r>   -6.2291    1.0000 </r>
       <r>   -3.9149    1.0000 </r>
       <r>   -2.3143    1.0000 </r>
       <r>   -0.9341    1.0000 </r>
       <r>    0.5618    1.0000 </r>
       <r>    1.6214    1.0000 </r>
       <r>    2.7384    1.0000 </r>
       <r>    2.9373    1.0000 </r>
       <r>    4.1275    1.0000 </r>
       <r>    4.5949    1.0000 </r>
       <r>    4.8809    1.0000 </r>
       <r>    5.4185    1.0000 </r>
       <r>    6.4380    1.0000 </r>
       <r>    7.4740    1.0000 </r>
       <r>    9.3467    1.0000 </r>
       <r>   15.8142    0.0000 </r>
       <r>   16.5700    0.0000 </r>
       <r>   16.7886    0.0000 </r>
       <r>   17.8753    0.0000 </r>
       <r>   18.9946    0.0000 </r>
       <r>   19.0435    0.0000 </r>
       <r>   19.1607    0.0000 </r>
       <r>   19.5736    0.0000 </r>
      </set>
      <set comment="kpoint 17">
       <r>   -8.9041    1.0000 </r>
       <r>   -7.0200    1.0000 </r>
       <r>   -3.5723    1.0000 </r>
       <r>   -2.5110    1.0000 </r>
       <r>   -0.6946    1.0000 </r>
       <r>    0.2908    1.0000 </r>
       <r>    1.5911    1.0000 </r>
       <r>    2.4822    1.0000 </r>
       <r>    3.5408    1.0000 </r>
       <r>    4.1171    1.0000 </r>
       <r>    4.6824    1.0000 </r>
       <r>    5.0651    1.0000 </r>
       <r>    5.7028    1.0000 </r>
       <r>    6.1478    1.0000 </r>
       <r>    6.8085    1.0000 </r>
       <r>    8.6539    1.0000 </r>
       <r>   15.8965    0.0000 </r>
       <r>   16.3826    0.0000 </r>
       <r>   17.7345    0.0000 </r>
       <r>   19.0976    0.0000 </r>
       <r>   19.7709    0.0000 </r>
       <r>   19.9364    0.0000 </r>
       <r>   20.2144    0.0000 </r>
       <r>   20.4454    0.0000 </r>
      </set>
      <set comment="kpoint 18">
       <r>   -8.3608    1.0000 </r>
       <r>   -7.7318    1.0000 </r>
       <r>   -3.1980    1.0000 </r>
       <r>   -2.8263    1.0000 </r>
       <r>   -0.3858    1.0000 </r>
       <r>   -0.0417    1.0000 </r>
       <r>    1.7616    1.0000 </r>
       <r>    2.0764    1.0000 </r>
       <r>    4.2374    1.0000 </r>
       <r>    4.2743    1.0000 </r>
       <r>    4.4456    1.0000 </r>
       <r>    4.9851    1.0000 </r>
       <r>    5.5935    1.0000 </r>
       <r>    6.1769    1.0000 </r>
       <r>    6.9848    1.0000 </r>
       <r>    7.8451    1.0000 </r>
       <r>   16.0274    0.0000 </r>
       <r>   16.1946    0.0000 </r>
       <r>   18.8307    0.0000 </r>
       <r>   19.8563    0.0000 </r>
       <r>   20.5494    0.0000 </r>
       <r>   20.6177    0.0000 </r>
       <r>   20.9176    0.0000 </r>
       <r>   21.2982    0.0000 </r>
      </set>
      <set comment="kpoint 19">
       <r>   -9.4513    1.0000 </r>
       <r>   -5.1231    1.0000 </r>
       <r>   -5.1231    1.0000 </r>
       <r>   -2.3929    1.0000 </r>
       <r>   -0.9646    1.0000 </r>
       <r>    1.5439    1.0000 </r>
       <r>    1.5802    1.0000 </r>
       <r>    1.5802    1.0000 </r>
       <r>    3.7170    1.0000 </r>
       <r>    3.7170    1.0000 </r>
       <r>    4.8045    1.0000 </r>
       <r>    4.8045    1.0000 </r>
       <r>    5.3218    1.0000 </r>
       <r>    6.4453    1.0000 </r>
       <r>    7.5333    1.0000 </r>
       <r>    9.7784    1.0000 </r>
       <r>   16.1645    0.0000 </r>
       <r>   16.7324    0.0000 </r>
       <r>   16.7324    0.0000 </r>
       <r>   17.2270    0.0000 </r>
       <r>   18.4430    0.0000 </r>
       <r>   18.5473    0.0000 </r>
       <r>   19.1267    0.0000 </r>
       <r>   19.1267    0.0000 </r>
      </set>
      <set comment="kpoint 20">
       <r>   -9.0866    1.0000 </r>
       <r>   -5.9779    1.0000 </r>
       <r>   -4.8092    1.0000 </r>
       <r>   -2.6733    1.0000 </r>
       <r>   -0.7448    1.0000 </r>
       <r>    1.2287    1.0000 </r>
       <r>    1.4456    1.0000 </r>
       <r>    2.3181    1.0000 </r>
       <r>    3.2072    1.0000 </r>
       <r>    4.0960    1.0000 </r>
       <r>    4.8332    1.0000 </r>
       <r>    5.4721    1.0000 </r>
       <r>    5.5320    1.0000 </r>
       <r>    5.7077    1.0000 </r>
       <r>    6.8789    1.0000 </r>
       <r>    9.4357    1.0000 </r>
       <r>   16.5890    0.0000 </r>
       <r>   16.7583    0.0000 </r>
       <r>   17.3339    0.0000 </r>
       <r>   17.8507    0.0000 </r>
       <r>   18.9179    0.0000 </r>
       <r>   19.1899    0.0000 </r>
       <r>   19.8382    0.0000 </r>
       <r>   20.0569    0.0000 </r>
      </set>
      <set comment="kpoint 21">
       <r>   -8.6332    1.0000 </r>
       <r>   -6.7614    1.0000 </r>
       <r>   -4.4299    1.0000 </r>
       <r>   -3.0749    1.0000 </r>
       <r>   -0.4367    1.0000 </r>
       <r>    0.8099    1.0000 </r>
       <r>    1.5626    1.0000 </r>
       <r>    2.7012    1.0000 </r>
       <r>    2.9890    1.0000 </r>
       <r>    4.5407    1.0000 </r>
       <r>    4.9503    1.0000 </r>
       <r>    4.9905    1.0000 </r>
       <r>    5.4483    1.0000 </r>
       <r>    6.2304    1.0000 </r>
       <r>    6.3845    1.0000 </r>
       <r>    8.8660    1.0000 </r>
       <r>   16.8342    0.0000 </r>
       <r>   17.2365    0.0000 </r>
       <r>   17.3222    0.0000 </r>
       <r>   19.0693    0.0000 </r>
       <r>   19.4327    0.0000 </r>
       <r>   20.1986    0.0000 </r>
       <r>   20.3315    0.0000 </r>
       <r>   20.6275    0.0000 </r>
      </set>
      <set comment="kpoint 22">
       <r>   -8.0928    1.0000 </r>
       <r>   -7.4677    1.0000 </r>
       <r>   -3.9979    1.0000 </r>
       <r>   -3.5345    1.0000 </r>
       <r>   -0.0576    1.0000 </r>
       <r>    0.3682    1.0000 </r>
       <r>    1.8420    1.0000 </r>
       <r>    2.2346    1.0000 </r>
       <r>    3.6394    1.0000 </r>
       <r>    4.3016    1.0000 </r>
       <r>    5.0485    1.0000 </r>
       <r>    5.1253    1.0000 </r>
       <r>    5.3107    1.0000 </r>
       <r>    5.6149    1.0000 </r>
       <r>    7.2749    1.0000 </r>
       <r>    8.1249    1.0000 </r>
       <r>   16.9503    0.0000 </r>
       <r>   17.0921    0.0000 </r>
       <r>   18.2798    0.0000 </r>
       <r>   19.3332    0.0000 </r>
       <r>   20.0582    0.0000 </r>
       <r>   20.4273    0.0000 </r>
       <r>   20.7340    0.0000 </r>
       <r>   21.2861    0.0000 </r>
      </set>
      <set comment="kpoint 23">
       <r>   -8.7242    1.0000 </r>
       <r>   -5.6478    1.0000 </r>
       <r>   -5.6478    1.0000 </r>
       <r>   -3.1579    1.0000 </r>
       <r>   -0.4663    1.0000 </r>
       <r>    1.4934    1.0000 </r>
       <r>    1.8270    1.0000 </r>
       <r>    1.8270    1.0000 </r>
       <r>    3.5532    1.0000 </r>
       <r>    3.5532    1.0000 </r>
       <r>    4.9849    1.0000 </r>
       <r>    5.6864    1.0000 </r>
       <r>    5.6864    1.0000 </r>
       <r>    5.8793    1.0000 </r>
       <r>    6.2420    1.0000 </r>
       <r>    9.2815    1.0000 </r>
       <r>   16.7224    0.0000 </r>
       <r>   17.8696    0.0000 </r>
       <r>   17.8696    0.0000 </r>
       <r>   17.9331    0.0000 </r>
       <r>   18.9568    0.0000 </r>
       <r>   19.4951    0.0000 </r>
       <r>   20.5036    0.0000 </r>
       <r>   20.5036    0.0000 </r>
      </set>
      <set comment="kpoint 24">
       <r>   -8.2739    1.0000 </r>
       <r>   -6.4201    1.0000 </r>
       <r>   -5.2442    1.0000 </r>
       <r>   -3.7033    1.0000 </r>
       <r>   -0.1077    1.0000 </r>
       <r>    1.3083    1.0000 </r>
       <r>    1.7150    1.0000 </r>
       <r>    2.4054    1.0000 </r>
       <r>    3.0116    1.0000 </r>
       <r>    3.9722    1.0000 </r>
       <r>    4.2869    1.0000 </r>
       <r>    5.6094    1.0000 </r>
       <r>    5.8597    1.0000 </r>
       <r>    6.0833    1.0000 </r>
       <r>    6.5960    1.0000 </r>
       <r>    8.8801    1.0000 </r>
       <r>   17.1890    0.0000 </r>
       <r>   17.9270    0.0000 </r>
       <r>   18.1243    0.0000 </r>
       <r>   19.0677    0.0000 </r>
       <r>   19.1445    0.0000 </r>
       <r>   19.9333    0.0000 </r>
       <r>   20.2756    0.0000 </r>
       <r>   20.4101    0.0000 </r>
      </set>
      <set comment="kpoint 25">
       <r>   -7.7377    1.0000 </r>
       <r>   -7.1185    1.0000 </r>
       <r>   -4.7753    1.0000 </r>
       <r>   -4.2545    1.0000 </r>
       <r>    0.3184    1.0000 </r>
       <r>    0.7968    1.0000 </r>
       <r>    2.0641    1.0000 </r>
       <r>    2.5058    1.0000 </r>
       <r>    2.9984    1.0000 </r>
       <r>    3.6238    1.0000 </r>
       <r>    4.4600    1.0000 </r>
       <r>    5.0095    1.0000 </r>
       <r>    6.0172    1.0000 </r>
       <r>    6.1109    1.0000 </r>
       <r>    7.4786    1.0000 </r>
       <r>    8.2615    1.0000 </r>
       <r>   17.9381    0.0000 </r>
       <r>   18.0102    0.0000 </r>
       <r>   18.0951    0.0000 </r>
       <r>   18.8766    0.0000 </r>
       <r>   19.4801    0.0000 </r>
       <r>   19.9321    0.0000 </r>
       <r>   20.3608    0.0000 </r>
       <r>   21.3109    0.0000 </r>
      </set>
      <set comment="kpoint 26">
       <r>   -7.8279    1.0000 </r>
       <r>   -5.9999    1.0000 </r>
       <r>   -5.9999    1.0000 </r>
       <r>   -4.3402    1.0000 </r>
       <r>    0.2898    1.0000 </r>
       <r>    1.8231    1.0000 </r>
       <r>    1.8231    1.0000 </r>
       <r>    2.0043    1.0000 </r>
       <r>    3.4053    1.0000 </r>
       <r>    3.4053    1.0000 </r>
       <r>    3.6095    1.0000 </r>
       <r>    4.9919    1.0000 </r>
       <r>    6.5310    1.0000 </r>
       <r>    6.7575    1.0000 </r>
       <r>    6.7575    1.0000 </r>
       <r>    8.6668    1.0000 </r>
       <r>   17.3672    0.0000 </r>
       <r>   18.7990    0.0000 </r>
       <r>   18.9764    0.0000 </r>
       <r>   19.0829    0.0000 </r>
       <r>   19.0829    0.0000 </r>
       <r>   19.5054    0.0000 </r>
       <r>   19.5054    0.0000 </r>
       <r>   20.6438    0.0000 </r>
      </set>
      <set comment="kpoint 27">
       <r>   -7.2976    1.0000 </r>
       <r>   -6.6867    1.0000 </r>
       <r>   -5.5065    1.0000 </r>
       <r>   -4.9487    1.0000 </r>
       <r>    0.7503    1.0000 </r>
       <r>    1.2655    1.0000 </r>
       <r>    2.3742    1.0000 </r>
       <r>    2.3981    1.0000 </r>
       <r>    2.8724    1.0000 </r>
       <r>    2.9698    1.0000 </r>
       <r>    3.8737    1.0000 </r>
       <r>    4.4070    1.0000 </r>
       <r>    6.7729    1.0000 </r>
       <r>    6.8325    1.0000 </r>
       <r>    7.5669    1.0000 </r>
       <r>    8.2206    1.0000 </r>
       <r>   17.8493    0.0000 </r>
       <r>   18.5791    0.0000 </r>
       <r>   18.9672    0.0000 </r>
       <r>   19.0723    0.0000 </r>
       <r>   19.0811    0.0000 </r>
       <r>   19.2001    0.0000 </r>
       <r>   20.2947    0.0000 </r>
       <r>   21.3589    0.0000 </r>
      </set>
      <set comment="kpoint 28">
       <r>   -6.7758    1.0000 </r>
       <r>   -6.1766    1.0000 </r>
       <r>   -6.1766    1.0000 </r>
       <r>   -5.5942    1.0000 </r>
       <r>    1.2401    1.0000 </r>
       <r>    1.7840    1.0000 </r>
       <r>    1.7840    1.0000 </r>
       <r>    2.3536    1.0000 </r>
       <r>    2.8228    1.0000 </r>
       <r>    3.3206    1.0000 </r>
       <r>    3.3206    1.0000 </r>
       <r>    3.8372    1.0000 </r>
       <r>    7.2425    1.0000 </r>
       <r>    7.5012    1.0000 </r>
       <r>    7.5012    1.0000 </r>
       <r>    7.9710    1.0000 </r>
       <r>   18.0377    0.0000 </r>
       <r>   18.4888    0.0000 </r>
       <r>   18.4888    0.0000 </r>
       <r>   18.6260    0.0000 </r>
       <r>   19.8082    0.0000 </r>
       <r>   20.1618    0.0000 </r>
       <r>   20.1618    0.0000 </r>
       <r>   20.9354    0.0000 </r>
      </set>
      <set comment="kpoint 29">
       <r>  -10.2778    1.0000 </r>
       <r>   -3.5096    1.0000 </r>
       <r>   -3.5096    1.0000 </r>
       <r>   -3.5096    1.0000 </r>
       <r>   -0.2667    1.0000 </r>
       <r>   -0.2667    1.0000 </r>
       <r>   -0.2667    1.0000 </r>
       <r>    3.5873    1.0000 </r>
       <r>    3.5873    1.0000 </r>
       <r>    3.5873    1.0000 </r>
       <r>    4.6711    1.0000 </r>
       <r>    4.6711    1.0000 </r>
       <r>    4.6711    1.0000 </r>
       <r>    8.6998    1.0000 </r>
       <r>   10.0529    1.0000 </r>
       <r>   10.0529    1.0000 </r>
       <r>   15.3639    0.0000 </r>
       <r>   15.3639    0.0000 </r>
       <r>   15.3639    0.0000 </r>
       <r>   16.7141    0.0000 </r>
       <r>   16.7141    0.0000 </r>
       <r>   16.9602    0.0000 </r>
       <r>   16.9602    0.0000 </r>
       <r>   17.0134    0.0000 </r>
      </set>
      <set comment="kpoint 30">
       <r>  -10.0934    1.0000 </r>
       <r>   -4.5081    1.0000 </r>
       <r>   -3.3757    1.0000 </r>
       <r>   -3.3757    1.0000 </r>
       <r>   -0.2530    1.0000 </r>
       <r>   -0.2530    1.0000 </r>
       <r>    0.8233    1.0000 </r>
       <r>    3.0792    1.0000 </r>
       <r>    3.0792    1.0000 </r>
       <r>    3.8460    1.0000 </r>
       <r>    4.6874    1.0000 </r>
       <r>    4.6874    1.0000 </r>
       <r>    4.8464    1.0000 </r>
       <r>    7.9842    1.0000 </r>
       <r>    9.5209    1.0000 </r>
       <r>    9.9773    1.0000 </r>
       <r>   15.3193    0.0000 </r>
       <r>   15.7233    0.0000 </r>
       <r>   15.7233    0.0000 </r>
       <r>   16.6097    0.0000 </r>
       <r>   17.3752    0.0000 </r>
       <r>   17.4213    0.0000 </r>
       <r>   17.5223    0.0000 </r>
       <r>   17.8559    0.0000 </r>
      </set>
      <set comment="kpoint 31">
       <r>   -9.8175    1.0000 </r>
       <r>   -5.4455    1.0000 </r>
       <r>   -3.1862    1.0000 </r>
       <r>   -3.1862    1.0000 </r>
       <r>   -0.2736    1.0000 </r>
       <r>   -0.2736    1.0000 </r>
       <r>    1.8578    1.0000 </r>
       <r>    2.6375    1.0000 </r>
       <r>    2.6375    1.0000 </r>
       <r>    4.2620    1.0000 </r>
       <r>    4.5398    1.0000 </r>
       <r>    4.5398    1.0000 </r>
       <r>    5.1074    1.0000 </r>
       <r>    7.2305    1.0000 </r>
       <r>    8.8830    1.0000 </r>
       <r>    9.6227    1.0000 </r>
       <r>   15.3167    0.0000 </r>
       <r>   16.3904    0.0000 </r>
       <r>   16.3904    0.0000 </r>
       <r>   16.4375    0.0000 </r>
       <r>   18.0458    0.0000 </r>
       <r>   18.2058    0.0000 </r>
       <r>   18.2097    0.0000 </r>
       <r>   18.9441    0.0000 </r>
      </set>
      <set comment="kpoint 32">
       <r>   -9.4508    1.0000 </r>
       <r>   -6.3137    1.0000 </r>
       <r>   -2.9605    1.0000 </r>
       <r>   -2.9605    1.0000 </r>
       <r>   -0.3643    1.0000 </r>
       <r>   -0.3643    1.0000 </r>
       <r>    2.3359    1.0000 </r>
       <r>    2.3359    1.0000 </r>
       <r>    2.7873    1.0000 </r>
       <r>    4.2989    1.0000 </r>
       <r>    4.2989    1.0000 </r>
       <r>    4.8624    1.0000 </r>
       <r>    5.4517    1.0000 </r>
       <r>    6.4751    1.0000 </r>
       <r>    8.2134    1.0000 </r>
       <r>    9.0403    1.0000 </r>
       <r>   15.3676    0.0000 </r>
       <r>   16.2323    0.0000 </r>
       <r>   17.3125    0.0000 </r>
       <r>   17.3125    0.0000 </r>
       <r>   18.8148    0.0000 </r>
       <r>   19.0570    0.0000 </r>
       <r>   19.1314    0.0000 </r>
       <r>   20.1338    0.0000 </r>
      </set>
      <set comment="kpoint 33">
       <r>   -8.9946    1.0000 </r>
       <r>   -7.1069    1.0000 </r>
       <r>   -2.7365    1.0000 </r>
       <r>   -2.7365    1.0000 </r>
       <r>   -0.5179    1.0000 </r>
       <r>   -0.5179    1.0000 </r>
       <r>    2.1958    1.0000 </r>
       <r>    2.1958    1.0000 </r>
       <r>    3.5938    1.0000 </r>
       <r>    4.0526    1.0000 </r>
       <r>    4.0526    1.0000 </r>
       <r>    5.6407    1.0000 </r>
       <r>    5.7373    1.0000 </r>
       <r>    5.8753    1.0000 </r>
       <r>    7.5557    1.0000 </r>
       <r>    8.2920    1.0000 </r>
       <r>   15.4711    0.0000 </r>
       <r>   16.0159    0.0000 </r>
       <r>   18.4066    0.0000 </r>
       <r>   18.4066    0.0000 </r>
       <r>   19.7119    0.0000 </r>
       <r>   20.0046    0.0000 </r>
       <r>   20.1069    0.0000 </r>
       <r>   21.2522    0.0000 </r>
      </set>
      <set comment="kpoint 34">
       <r>   -8.4504    1.0000 </r>
       <r>   -7.8203    1.0000 </r>
       <r>   -2.5842    1.0000 </r>
       <r>   -2.5842    1.0000 </r>
       <r>   -0.6487    1.0000 </r>
       <r>   -0.6487    1.0000 </r>
       <r>    2.1623    1.0000 </r>
       <r>    2.1623    1.0000 </r>
       <r>    3.8935    1.0000 </r>
       <r>    3.8935    1.0000 </r>
       <r>    4.3195    1.0000 </r>
       <r>    5.0224    1.0000 </r>
       <r>    6.3728    1.0000 </r>
       <r>    6.5279    1.0000 </r>
       <r>    6.9366    1.0000 </r>
       <r>    7.4353    1.0000 </r>
       <r>   15.6209    0.0000 </r>
       <r>   15.8067    0.0000 </r>
       <r>   19.5216    0.0000 </r>
       <r>   19.5216    0.0000 </r>
       <r>   20.7038    0.0000 </r>
       <r>   20.9967    0.0000 </r>
       <r>   21.1024    0.0000 </r>
       <r>   21.1039    0.0000 </r>
      </set>
      <set comment="kpoint 35">
       <r>   -9.9095    1.0000 </r>
       <r>   -4.3578    1.0000 </r>
       <r>   -4.3578    1.0000 </r>
       <r>   -3.2581    1.0000 </r>
       <r>   -0.3091    1.0000 </r>
       <r>    0.7264    1.0000 </r>
       <r>    0.7264    1.0000 </r>
       <r>    2.5755    1.0000 </r>
       <r>    3.4213    1.0000 </r>
       <r>    3.4213    1.0000 </r>
       <r>    4.8710    1.0000 </r>
       <r>    4.8710    1.0000 </r>
       <r>    4.9685    1.0000 </r>
       <r>    7.2413    1.0000 </r>
       <r>    9.2117    1.0000 </r>
       <r>    9.8857    1.0000 </r>
       <r>   15.7414    0.0000 </r>
       <r>   15.7414    0.0000 </r>
       <r>   15.7650    0.0000 </r>
       <r>   16.9862    0.0000 </r>
       <r>   17.5260    0.0000 </r>
       <r>   17.7966    0.0000 </r>
       <r>   18.2404    0.0000 </r>
       <r>   18.2404    0.0000 </r>
      </set>
      <set comment="kpoint 36">
       <r>   -9.6342    1.0000 </r>
       <r>   -5.2847    1.0000 </r>
       <r>   -4.1390    1.0000 </r>
       <r>   -3.1038    1.0000 </r>
       <r>   -0.4405    1.0000 </r>
       <r>    0.5267    1.0000 </r>
       <r>    1.5955    1.0000 </r>
       <r>    2.2386    1.0000 </r>
       <r>    3.0894    1.0000 </r>
       <r>    3.9671    1.0000 </r>
       <r>    4.7577    1.0000 </r>
       <r>    5.0556    1.0000 </r>
       <r>    5.1516    1.0000 </r>
       <r>    6.4748    1.0000 </r>
       <r>    8.6387    1.0000 </r>
       <r>    9.6612    1.0000 </r>
       <r>   15.7915    0.0000 </r>
       <r>   16.1478    0.0000 </r>
       <r>   16.4415    0.0000 </r>
       <r>   16.9586    0.0000 </r>
       <r>   18.1821    0.0000 </r>
       <r>   18.2900    0.0000 </r>
       <r>   18.7912    0.0000 </r>
       <r>   19.2700    0.0000 </r>
      </set>
      <set comment="kpoint 37">
       <r>   -9.2686    1.0000 </r>
       <r>   -6.1459    1.0000 </r>
       <r>   -3.8619    1.0000 </r>
       <r>   -2.9530    1.0000 </r>
       <r>   -0.6354    1.0000 </r>
       <r>    0.2141    1.0000 </r>
       <r>    2.1160    1.0000 </r>
       <r>    2.3368    1.0000 </r>
       <r>    2.8745    1.0000 </r>
       <r>    4.5896    1.0000 </r>
       <r>    4.6885    1.0000 </r>
       <r>    4.9780    1.0000 </r>
       <r>    5.5458    1.0000 </r>
       <r>    5.7176    1.0000 </r>
       <r>    8.0013    1.0000 </r>
       <r>    9.1964    1.0000 </r>
       <r>   15.8815    0.0000 </r>
       <r>   16.7858    0.0000 </r>
       <r>   16.8471    0.0000 </r>
       <r>   17.3769    0.0000 </r>
       <r>   18.9443    0.0000 </r>
       <r>   19.0716    0.0000 </r>
       <r>   19.4922    0.0000 </r>
       <r>   20.3896    0.0000 </r>
      </set>
      <set comment="kpoint 38">
       <r>   -8.8138    1.0000 </r>
       <r>   -6.9340    1.0000 </r>
       <r>   -3.5458    1.0000 </r>
       <r>   -2.8831    1.0000 </r>
       <r>   -0.7856    1.0000 </r>
       <r>   -0.1621    1.0000 </r>
       <r>    2.1761    1.0000 </r>
       <r>    2.7175    1.0000 </r>
       <r>    2.9965    1.0000 </r>
       <r>    4.4704    1.0000 </r>
       <r>    4.8022    1.0000 </r>
       <r>    4.9881    1.0000 </r>
       <r>    5.4516    1.0000 </r>
       <r>    6.1089    1.0000 </r>
       <r>    7.3577    1.0000 </r>
       <r>    8.5328    1.0000 </r>
       <r>   16.0121    0.0000 </r>
       <r>   16.5808    0.0000 </r>
       <r>   17.7885    0.0000 </r>
       <r>   18.4664    0.0000 </r>
       <r>   19.7344    0.0000 </r>
       <r>   20.0332    0.0000 </r>
       <r>   20.3242    0.0000 </r>
       <r>   21.1394    0.0000 </r>
      </set>
      <set comment="kpoint 39">
       <r>   -8.2714    1.0000 </r>
       <r>   -7.6439    1.0000 </r>
       <r>   -3.2281    1.0000 </r>
       <r>   -2.9782    1.0000 </r>
       <r>   -0.7534    1.0000 </r>
       <r>   -0.5170    1.0000 </r>
       <r>    2.3441    1.0000 </r>
       <r>    2.5432    1.0000 </r>
       <r>    3.6363    1.0000 </r>
       <r>    4.2948    1.0000 </r>
       <r>    4.4769    1.0000 </r>
       <r>    4.6085    1.0000 </r>
       <r>    6.1165    1.0000 </r>
       <r>    6.7312    1.0000 </r>
       <r>    6.8822    1.0000 </r>
       <r>    7.7346    1.0000 </r>
       <r>   16.1788    0.0000 </r>
       <r>   16.3726    0.0000 </r>
       <r>   18.8561    0.0000 </r>
       <r>   19.4408    0.0000 </r>
       <r>   20.5214    0.0000 </r>
       <r>   20.5981    0.0000 </r>
       <r>   21.0323    0.0000 </r>
       <r>   21.1881    0.0000 </r>
      </set>
      <set comment="kpoint 40">
       <r>   -9.3601    1.0000 </r>
       <r>   -5.0477    1.0000 </r>
       <r>   -5.0477    1.0000 </r>
       <r>   -3.0275    1.0000 </r>
       <r>   -0.6848    1.0000 </r>
       <r>    1.1947    1.0000 </r>
       <r>    1.1947    1.0000 </r>
       <r>    2.0714    1.0000 </r>
       <r>    3.7338    1.0000 </r>
       <r>    3.7338    1.0000 </r>
       <r>    5.1121    1.0000 </r>
       <r>    5.1121    1.0000 </r>
       <r>    5.4004    1.0000 </r>
       <r>    5.7044    1.0000 </r>
       <r>    8.1212    1.0000 </r>
       <r>    9.5990    1.0000 </r>
       <r>   16.2313    0.0000 </r>
       <r>   16.5240    0.0000 </r>
       <r>   16.5240    0.0000 </r>
       <r>   17.4104    0.0000 </r>
       <r>   18.3691    0.0000 </r>
       <r>   18.5071    0.0000 </r>
       <r>   19.7477    0.0000 </r>
       <r>   19.7477    0.0000 </r>
      </set>
      <set comment="kpoint 41">
       <r>   -8.9961    1.0000 </r>
       <r>   -5.8969    1.0000 </r>
       <r>   -4.7406    1.0000 </r>
       <r>   -3.0373    1.0000 </r>
       <r>   -0.8859    1.0000 </r>
       <r>    0.7059    1.0000 </r>
       <r>    1.7773    1.0000 </r>
       <r>    2.1155    1.0000 </r>
       <r>    3.5091    1.0000 </r>
       <r>    4.4417    1.0000 </r>
       <r>    4.9501    1.0000 </r>
       <r>    5.0807    1.0000 </r>
       <r>    5.5506    1.0000 </r>
       <r>    5.6487    1.0000 </r>
       <r>    7.5190    1.0000 </r>
       <r>    9.2958    1.0000 </r>
       <r>   16.6396    0.0000 </r>
       <r>   16.6589    0.0000 </r>
       <r>   17.4609    0.0000 </r>
       <r>   17.4721    0.0000 </r>
       <r>   18.8795    0.0000 </r>
       <r>   19.0590    0.0000 </r>
       <r>   20.3624    0.0000 </r>
       <r>   20.7351    0.0000 </r>
      </set>
      <set comment="kpoint 42">
       <r>   -8.5435    1.0000 </r>
       <r>   -6.6768    1.0000 </r>
       <r>   -4.3741    1.0000 </r>
       <r>   -3.2196    1.0000 </r>
       <r>   -0.8905    1.0000 </r>
       <r>    0.1947    1.0000 </r>
       <r>    2.3080    1.0000 </r>
       <r>    2.3402    1.0000 </r>
       <r>    3.2355    1.0000 </r>
       <r>    4.2299    1.0000 </r>
       <r>    5.0928    1.0000 </r>
       <r>    5.1280    1.0000 </r>
       <r>    5.5339    1.0000 </r>
       <r>    6.3824    1.0000 </r>
       <r>    6.8982    1.0000 </r>
       <r>    8.7596    1.0000 </r>
       <r>   16.7861    0.0000 </r>
       <r>   17.3239    0.0000 </r>
       <r>   17.3879    0.0000 </r>
       <r>   18.5517    0.0000 </r>
       <r>   19.4111    0.0000 </r>
       <r>   19.9877    0.0000 </r>
       <r>   20.6917    0.0000 </r>
       <r>   21.0552    0.0000 </r>
      </set>
      <set comment="kpoint 43">
       <r>   -8.0042    1.0000 </r>
       <r>   -7.3808    1.0000 </r>
       <r>   -3.9680    1.0000 </r>
       <r>   -3.5598    1.0000 </r>
       <r>   -0.6659    1.0000 </r>
       <r>   -0.2811    1.0000 </r>
       <r>    2.5907    1.0000 </r>
       <r>    2.9156    1.0000 </r>
       <r>    2.9261    1.0000 </r>
       <r>    3.5542    1.0000 </r>
       <r>    5.2546    1.0000 </r>
       <r>    5.4119    1.0000 </r>
       <r>    5.6917    1.0000 </r>
       <r>    6.2869    1.0000 </r>
       <r>    7.2216    1.0000 </r>
       <r>    8.0443    1.0000 </r>
       <r>   16.9575    0.0000 </r>
       <r>   17.1428    0.0000 </r>
       <r>   18.3279    0.0000 </r>
       <r>   19.2087    0.0000 </r>
       <r>   20.0564    0.0000 </r>
       <r>   20.1736    0.0000 </r>
       <r>   20.7733    0.0000 </r>
       <r>   20.9929    0.0000 </r>
      </set>
      <set comment="kpoint 44">
       <r>   -8.6343    1.0000 </r>
       <r>   -5.5707    1.0000 </r>
       <r>   -5.5707    1.0000 </r>
       <r>   -3.3006    1.0000 </r>
       <r>   -0.9445    1.0000 </r>
       <r>    1.1789    1.0000 </r>
       <r>    1.1789    1.0000 </r>
       <r>    2.2782    1.0000 </r>
       <r>    4.1078    1.0000 </r>
       <r>    4.1078    1.0000 </r>
       <r>    4.2025    1.0000 </r>
       <r>    5.7844    1.0000 </r>
       <r>    5.7844    1.0000 </r>
       <r>    5.9487    1.0000 </r>
       <r>    6.9473    1.0000 </r>
       <r>    9.1754    1.0000 </r>
       <r>   16.7960    0.0000 </r>
       <r>   17.5951    0.0000 </r>
       <r>   17.5951    0.0000 </r>
       <r>   17.9992    0.0000 </r>
       <r>   18.9338    0.0000 </r>
       <r>   19.2946    0.0000 </r>
       <r>   20.9433    0.0000 </r>
       <r>   20.9433    0.0000 </r>
      </set>
      <set comment="kpoint 45">
       <r>   -8.1850    1.0000 </r>
       <r>   -6.3379    1.0000 </r>
       <r>   -5.1739    1.0000 </r>
       <r>   -3.7265    1.0000 </r>
       <r>   -0.7679    1.0000 </r>
       <r>    0.5907    1.0000 </r>
       <r>    1.6790    1.0000 </r>
       <r>    2.5525    1.0000 </r>
       <r>    3.4929    1.0000 </r>
       <r>    3.7139    1.0000 </r>
       <r>    4.6582    1.0000 </r>
       <r>    5.9432    1.0000 </r>
       <r>    6.1498    1.0000 </r>
       <r>    6.3527    1.0000 </r>
       <r>    6.6175    1.0000 </r>
       <r>    8.8059    1.0000 </r>
       <r>   17.2600    0.0000 </r>
       <r>   17.7398    0.0000 </r>
       <r>   18.1295    0.0000 </r>
       <r>   18.6561    0.0000 </r>
       <r>   19.1391    0.0000 </r>
       <r>   20.0102    0.0000 </r>
       <r>   20.1346    0.0000 </r>
       <r>   20.5381    0.0000 </r>
      </set>
      <set comment="kpoint 46">
       <r>   -7.6502    1.0000 </r>
       <r>   -7.0331    1.0000 </r>
       <r>   -4.7178    1.0000 </r>
       <r>   -4.2226    1.0000 </r>
       <r>   -0.4175    1.0000 </r>
       <r>    0.0482    1.0000 </r>
       <r>    2.2278    1.0000 </r>
       <r>    2.8325    1.0000 </r>
       <r>    2.9029    1.0000 </r>
       <r>    3.3003    1.0000 </r>
       <r>    5.2029    1.0000 </r>
       <r>    5.7667    1.0000 </r>
       <r>    6.0910    1.0000 </r>
       <r>    6.1792    1.0000 </r>
       <r>    7.4602    1.0000 </r>
       <r>    8.2150    1.0000 </r>
       <r>   17.8954    0.0000 </r>
       <r>   17.9974    0.0000 </r>
       <r>   18.0419    0.0000 </r>
       <r>   18.8730    0.0000 </r>
       <r>   19.4973    0.0000 </r>
       <r>   19.9816    0.0000 </r>
       <r>   20.0653    0.0000 </r>
       <r>   20.9738    0.0000 </r>
      </set>
      <set comment="kpoint 47">
       <r>   -7.7402    1.0000 </r>
       <r>   -5.9217    1.0000 </r>
       <r>   -5.9217    1.0000 </r>
       <r>   -4.3077    1.0000 </r>
       <r>   -0.4703    1.0000 </r>
       <r>    1.0454    1.0000 </r>
       <r>    1.0454    1.0000 </r>
       <r>    2.7954    1.0000 </r>
       <r>    2.8825    1.0000 </r>
       <r>    4.1898    1.0000 </r>
       <r>    4.1898    1.0000 </r>
       <r>    5.7840    1.0000 </r>
       <r>    6.5861    1.0000 </r>
       <r>    6.7923    1.0000 </r>
       <r>    6.7923    1.0000 </r>
       <r>    8.6219    1.0000 </r>
       <r>   17.4376    0.0000 </r>
       <r>   18.7573    0.0000 </r>
       <r>   18.7676    0.0000 </r>
       <r>   18.7676    0.0000 </r>
       <r>   18.9855    0.0000 </r>
       <r>   19.6412    0.0000 </r>
       <r>   19.6412    0.0000 </r>
       <r>   20.2973    0.0000 </r>
      </set>
      <set comment="kpoint 48">
       <r>   -7.2118    1.0000 </r>
       <r>   -6.6038    1.0000 </r>
       <r>   -5.4352    1.0000 </r>
       <r>   -4.8903    1.0000 </r>
       <r>   -0.0497    1.0000 </r>
       <r>    0.4626    1.0000 </r>
       <r>    1.5651    1.0000 </r>
       <r>    2.1500    1.0000 </r>
       <r>    3.2781    1.0000 </r>
       <r>    3.7209    1.0000 </r>
       <r>    4.6906    1.0000 </r>
       <r>    5.2241    1.0000 </r>
       <r>    6.8209    1.0000 </r>
       <r>    6.8749    1.0000 </r>
       <r>    7.5715    1.0000 </r>
       <r>    8.2008    1.0000 </r>
       <r>   17.9121    0.0000 </r>
       <r>   18.6142    0.0000 </r>
       <r>   18.8640    0.0000 </r>
       <r>   18.9079    0.0000 </r>
       <r>   19.0618    0.0000 </r>
       <r>   19.2778    0.0000 </r>
       <r>   20.0396    0.0000 </r>
       <r>   21.0374    0.0000 </r>
      </set>
      <set comment="kpoint 49">
       <r>   -6.6926    1.0000 </r>
       <r>   -6.0978    1.0000 </r>
       <r>   -6.0978    1.0000 </r>
       <r>   -5.5226    1.0000 </r>
       <r>    0.4131    1.0000 </r>
       <r>    0.9557    1.0000 </r>
       <r>    0.9557    1.0000 </r>
       <r>    1.5208    1.0000 </r>
       <r>    3.7091    1.0000 </r>
       <r>    4.1853    1.0000 </r>
       <r>    4.1853    1.0000 </r>
       <r>    4.6902    1.0000 </r>
       <r>    7.2759    1.0000 </r>
       <r>    7.5215    1.0000 </r>
       <r>    7.5215    1.0000 </r>
       <r>    7.9723    1.0000 </r>
       <r>   18.0965    0.0000 </r>
       <r>   18.5328    0.0000 </r>
       <r>   18.5328    0.0000 </r>
       <r>   18.6639    0.0000 </r>
       <r>   19.6776    0.0000 </r>
       <r>   19.9728    0.0000 </r>
       <r>   19.9728    0.0000 </r>
       <r>   20.7378    0.0000 </r>
      </set>
      <set comment="kpoint 50">
       <r>   -9.7260    1.0000 </r>
       <r>   -4.2158    1.0000 </r>
       <r>   -4.2158    1.0000 </r>
       <r>   -4.2158    1.0000 </r>
       <r>    0.4936    1.0000 </r>
       <r>    0.4936    1.0000 </r>
       <r>    0.4936    1.0000 </r>
       <r>    3.0789    1.0000 </r>
       <r>    3.0789    1.0000 </r>
       <r>    3.0789    1.0000 </r>
       <r>    5.1367    1.0000 </r>
       <r>    5.1367    1.0000 </r>
       <r>    5.1367    1.0000 </r>
       <r>    6.4664    1.0000 </r>
       <r>    9.4416    1.0000 </r>
       <r>    9.4416    1.0000 </r>
       <r>   15.8448    0.0000 </r>
       <r>   15.8448    0.0000 </r>
       <r>   15.8448    0.0000 </r>
       <r>   17.5122    0.0000 </r>
       <r>   17.5122    0.0000 </r>
       <r>   17.8977    0.0000 </r>
       <r>   19.1879    0.0000 </r>
       <r>   19.1879    0.0000 </r>
      </set>
      <set comment="kpoint 51">
       <r>   -9.4515    1.0000 </r>
       <r>   -5.1286    1.0000 </r>
       <r>   -4.0136    1.0000 </r>
       <r>   -4.0136    1.0000 </r>
       <r>    0.1222    1.0000 </r>
       <r>    0.1222    1.0000 </r>
       <r>    1.1566    1.0000 </r>
       <r>    2.9199    1.0000 </r>
       <r>    2.9199    1.0000 </r>
       <r>    3.8366    1.0000 </r>
       <r>    5.2290    1.0000 </r>
       <r>    5.2290    1.0000 </r>
       <r>    5.3867    1.0000 </r>
       <r>    5.6811    1.0000 </r>
       <r>    8.8883    1.0000 </r>
       <r>    9.3831    1.0000 </r>
       <r>   15.9629    0.0000 </r>
       <r>   16.2542    0.0000 </r>
       <r>   16.2542    0.0000 </r>
       <r>   17.3788    0.0000 </r>
       <r>   18.1921    0.0000 </r>
       <r>   18.2611    0.0000 </r>
       <r>   19.6539    0.0000 </r>
       <r>   20.2987    0.0000 </r>
      </set>
      <set comment="kpoint 52">
       <r>   -9.0869    1.0000 </r>
       <r>   -5.9808    1.0000 </r>
       <r>   -3.7700    1.0000 </r>
       <r>   -3.7700    1.0000 </r>
       <r>   -0.3237    1.0000 </r>
       <r>   -0.3237    1.0000 </r>
       <r>    1.7325    1.0000 </r>
       <r>    2.9153    1.0000 </r>
       <r>    2.9153    1.0000 </r>
       <r>    4.7639    1.0000 </r>
       <r>    4.9157    1.0000 </r>
       <r>    5.1784    1.0000 </r>
       <r>    5.1784    1.0000 </r>
       <r>    5.7153    1.0000 </r>
       <r>    8.2900    1.0000 </r>
       <r>    9.0323    1.0000 </r>
       <r>   16.1169    0.0000 </r>
       <r>   16.9607    0.0000 </r>
       <r>   16.9607    0.0000 </r>
       <r>   17.1867    0.0000 </r>
       <r>   18.8515    0.0000 </r>
       <r>   18.9676    0.0000 </r>
       <r>   20.2677    0.0000 </r>
       <r>   21.4480    0.0000 </r>
      </set>
      <set comment="kpoint 53">
       <r>   -8.6336    1.0000 </r>
       <r>   -6.7630    1.0000 </r>
       <r>   -3.5246    1.0000 </r>
       <r>   -3.5246    1.0000 </r>
       <r>   -0.7398    1.0000 </r>
       <r>   -0.7398    1.0000 </r>
       <r>    2.2915    1.0000 </r>
       <r>    2.9879    1.0000 </r>
       <r>    2.9879    1.0000 </r>
       <r>    4.1877    1.0000 </r>
       <r>    5.0597    1.0000 </r>
       <r>    5.0597    1.0000 </r>
       <r>    5.7580    1.0000 </r>
       <r>    6.1179    1.0000 </r>
       <r>    7.6900    1.0000 </r>
       <r>    8.4346    1.0000 </r>
[...]
       <r>   -5.0032    1.0000 </r>
       <r>   -5.0032    1.0000 </r>
       <r>   -1.9560    1.0000 </r>
       <r>   -1.9560    1.0000 </r>
       <r>   -1.9560    1.0000 </r>
       <r>   -0.4519    1.0000 </r>
       <r>    6.7925    1.0000 </r>
       <r>    6.7925    1.0000 </r>
       <r>    6.7925    1.0000 </r>
       <r>    7.2729    1.0000 </r>
       <r>    7.2729    1.0000 </r>
       <r>    7.2729    1.0000 </r>
       <r>    8.0053    1.0000 </r>
       <r>    8.0053    1.0000 </r>
       <r>   18.2547    0.0000 </r>
       <r>   18.2547    0.0000 </r>
       <r>   18.2547    0.0000 </r>
       <r>   18.8490    0.0000 </r>
       <r>   18.8490    0.0000 </r>
       <r>   18.9599    0.0000 </r>
       <r>   19.8899    0.0000 </r>
       <r>   19.8900    0.0000 </r>
      </set>
      <set comment="kpoint 82">
       <r>   -6.0635    1.0000 </r>
       <r>   -5.5344    1.0000 </r>
       <r>   -4.8065    1.0000 </r>
       <r>   -4.8065    1.0000 </r>
       <r>   -2.3109    1.0000 </r>
       <r>   -2.3109    1.0000 </r>
       <r>   -1.5981    1.0000 </r>
       <r>   -1.0820    1.0000 </r>
       <r>    6.9172    1.0000 </r>
       <r>    6.9172    1.0000 </r>
       <r>    7.4310    1.0000 </r>
       <r>    7.4310    1.0000 </r>
       <r>    7.4719    1.0000 </r>
       <r>    7.5179    1.0000 </r>
       <r>    7.7672    1.0000 </r>
       <r>    7.8949    1.0000 </r>
       <r>   18.4975    0.0000 </r>
       <r>   18.6072    0.0000 </r>
       <r>   18.6072    0.0000 </r>
       <r>   18.7019    0.0000 </r>
       <r>   19.0929    0.0000 </r>
       <r>   19.1261    0.0000 </r>
       <r>   19.2974    0.0000 </r>
       <r>   19.2974    0.0000 </r>
      </set>
      <set comment="kpoint 83">
       <r>   -5.6196    1.0000 </r>
       <r>   -5.1707    1.0000 </r>
       <r>   -5.1707    1.0000 </r>
       <r>   -4.8889    1.0000 </r>
       <r>   -2.3935    1.0000 </r>
       <r>   -2.1166    1.0000 </r>
       <r>   -2.1166    1.0000 </r>
       <r>   -1.6770    1.0000 </r>
       <r>    7.2296    1.0000 </r>
       <r>    7.3942    1.0000 </r>
       <r>    7.3942    1.0000 </r>
       <r>    7.6401    1.0000 </r>
       <r>    7.6477    1.0000 </r>
       <r>    7.6963    1.0000 </r>
       <r>    7.6963    1.0000 </r>
       <r>    7.8970    1.0000 </r>
       <r>   18.7037    0.0000 </r>
       <r>   18.7885    0.0000 </r>
       <r>   18.7885    0.0000 </r>
       <r>   18.9013    0.0000 </r>
       <r>   18.9321    0.0000 </r>
       <r>   19.0529    0.0000 </r>
       <r>   19.0529    0.0000 </r>
       <r>   19.1400    0.0000 </r>
      </set>
      <set comment="kpoint 84">
       <r>   -5.2542    1.0000 </r>
       <r>   -4.9711    1.0000 </r>
       <r>   -4.9711    1.0000 </r>
       <r>   -4.9711    1.0000 </r>
       <r>   -2.4775    1.0000 </r>
       <r>   -2.4775    1.0000 </r>
       <r>   -2.4775    1.0000 </r>
       <r>   -2.1990    1.0000 </r>
       <r>    7.6841    1.0000 </r>
       <r>    7.6841    1.0000 </r>
       <r>    7.6841    1.0000 </r>
       <r>    7.7429    1.0000 </r>
       <r>    7.7429    1.0000 </r>
       <r>    7.7429    1.0000 </r>
       <r>    7.8308    1.0000 </r>
       <r>    7.8308    1.0000 </r>
       <r>   18.8326    0.0000 </r>
       <r>   18.8326    0.0000 </r>
       <r>   18.8326    0.0000 </r>
       <r>   18.8978    0.0000 </r>
       <r>   18.8981    0.0000 </r>
       <r>   19.0186    0.0000 </r>
       <r>   19.0194    0.0000 </r>
       <r>   19.0396    0.0000 </r>
      </set>
     </set>
    </set>
   </array>
  </eigenvalues>
  <separator name="orbital magnetization" >
   <v name="MAGDIPOLOUT">      0.00000000      0.00000000      0.00000000</v>
  </separator>
  <dos>
   <i name="efermi">     10.74712363 </i>
   <total>
    <array>
     <dimension dim="1">gridpoints</dimension>
     <dimension dim="2">spin</dimension>
     <field>energy</field>
     <field>total</field>
     <field>integrated</field>
     <set>
      <set comment="spin 1">
       <r>   -12.1922     0.0000     0.0000 </r>
       <r>   -12.0722     0.0000     0.0000 </r>
       <r>   -11.9521     0.0000     0.0000 </r>
       <r>   -11.8320     0.0000     0.0000 </r>
       <r>   -11.7120     0.0000     0.0000 </r>
       <r>   -11.5919     0.0000     0.0000 </r>
       <r>   -11.4719     0.0000     0.0000 </r>
       <r>   -11.3518     0.0000     0.0000 </r>
       <r>   -11.2317     0.0000     0.0000 </r>
       <r>   -11.1117     0.0000     0.0000 </r>
       <r>   -10.9916     0.0000     0.0000 </r>
       <r>   -10.8716     0.0000     0.0000 </r>
       <r>   -10.7515     0.0000     0.0000 </r>
       <r>   -10.6314     0.0007     0.0001 </r>
       <r>   -10.5114     0.0547     0.0067 </r>
       <r>   -10.3913     0.1757     0.0278 </r>
       <r>   -10.2712     0.2220     0.0544 </r>
       <r>   -10.1512     0.3316     0.0942 </r>
       <r>   -10.0311     0.2390     0.1229 </r>
       <r>    -9.9111     0.4480     0.1767 </r>
       <r>    -9.7910     0.3516     0.2189 </r>
       <r>    -9.6709     0.4063     0.2677 </r>
       <r>    -9.5509     0.5071     0.3286 </r>
       <r>    -9.4308     0.5004     0.3887 </r>
       <r>    -9.3107     0.5487     0.4545 </r>
       <r>    -9.1907     0.3929     0.5017 </r>
       <r>    -9.0706     0.6869     0.5842 </r>
       <r>    -8.9506     0.6591     0.6633 </r>
       <r>    -8.8305     0.5357     0.7276 </r>
       <r>    -8.7104     0.5032     0.7880 </r>
       <r>    -8.5904     0.7505     0.8781 </r>
       <r>    -8.4703     0.8237     0.9770 </r>
       <r>    -8.3502     0.5941     1.0484 </r>
       <r>    -8.2302     0.7657     1.1403 </r>
       <r>    -8.1101     0.6416     1.2173 </r>
       <r>    -7.9901     0.8792     1.3229 </r>
       <r>    -7.8700     0.5699     1.3913 </r>
       <r>    -7.7499     0.9692     1.5077 </r>
       <r>    -7.6299     1.0604     1.6350 </r>
       <r>    -7.5098     0.5503     1.7011 </r>
       <r>    -7.3898     0.8364     1.8015 </r>
       <r>    -7.2697     0.7388     1.8902 </r>
       <r>    -7.1496     1.2613     2.0416 </r>
       <r>    -7.0296     0.8900     2.1485 </r>
       <r>    -6.9095     0.9528     2.2629 </r>
       <r>    -6.7894     0.7671     2.3550 </r>
       <r>    -6.6694     1.0902     2.4859 </r>
       <r>    -6.5493     0.8873     2.5924 </r>
       <r>    -6.4293     1.1283     2.7278 </r>
       <r>    -6.3092     0.9906     2.8468 </r>
       <r>    -6.1891     1.1433     2.9840 </r>
       <r>    -6.0691     1.0884     3.1147 </r>
       <r>    -5.9490     1.2056     3.2595 </r>
       <r>    -5.8289     1.2560     3.4103 </r>
       <r>    -5.7089     0.7161     3.4962 </r>
       <r>    -5.5888     1.0293     3.6198 </r>
       <r>    -5.4688     1.7142     3.8256 </r>
       <r>    -5.3487     1.2681     3.9779 </r>
       <r>    -5.2286     1.2814     4.1317 </r>
       <r>    -5.1086     1.4981     4.3116 </r>
       <r>    -4.9885     1.1197     4.4460 </r>
       <r>    -4.8684     1.5706     4.6346 </r>
       <r>    -4.7484     1.5766     4.8239 </r>
       <r>    -4.6283     1.7240     5.0309 </r>
       <r>    -4.5083     1.2566     5.1817 </r>
       <r>    -4.3882     1.4053     5.3505 </r>
       <r>    -4.2681     1.4232     5.5213 </r>
       <r>    -4.1481     2.1424     5.7785 </r>
       <r>    -4.0280     0.6535     5.8570 </r>
       <r>    -3.9080     1.3778     6.0224 </r>
       <r>    -3.7879     0.9529     6.1368 </r>
       <r>    -3.6678     1.2199     6.2833 </r>
       <r>    -3.5478     1.6899     6.4862 </r>
       <r>    -3.4277     1.1552     6.6249 </r>
       <r>    -3.3076     0.7220     6.7116 </r>
       <r>    -3.1876     1.3485     6.8735 </r>
       <r>    -3.0675     0.9915     6.9925 </r>
       <r>    -2.9475     1.3588     7.1556 </r>
       <r>    -2.8274     0.7488     7.2455 </r>
       <r>    -2.7073     0.5545     7.3121 </r>
       <r>    -2.5873     0.6913     7.3951 </r>
       <r>    -2.4672     0.9458     7.5087 </r>
       <r>    -2.3471     1.2650     7.6606 </r>
       <r>    -2.2271     1.3761     7.8258 </r>
       <r>    -2.1070     1.3093     7.9830 </r>
       <r>    -1.9870     1.0856     8.1133 </r>
       <r>    -1.8669     0.6862     8.1957 </r>
       <r>    -1.7468     0.7017     8.2799 </r>
       <r>    -1.6268     1.1362     8.4164 </r>
       <r>    -1.5067     0.8516     8.5186 </r>
       <r>    -1.3866     1.0039     8.6391 </r>
       <r>    -1.2666     1.4564     8.8140 </r>
       <r>    -1.1465     2.2864     9.0885 </r>
       <r>    -1.0265     1.4317     9.2604 </r>
       <r>    -0.9064     2.5350     9.5647 </r>
       <r>    -0.7863     1.8263     9.7840 </r>
       <r>    -0.6663     2.7105    10.1094 </r>
       <r>    -0.5462     1.3904    10.2764 </r>
       <r>    -0.4262     1.9755    10.5136 </r>
       <r>    -0.3061     2.5858    10.8240 </r>
       <r>    -0.1860     2.8186    11.1624 </r>
       <r>    -0.0660     1.3184    11.3207 </r>
       <r>     0.0541     1.4490    11.4947 </r>
       <r>     0.1742     0.9234    11.6056 </r>
       <r>     0.2942     1.1311    11.7414 </r>
       <r>     0.4143     1.4226    11.9122 </r>
       <r>     0.5343     1.0985    12.0441 </r>
       <r>     0.6544     1.2650    12.1959 </r>
       <r>     0.7745     1.5105    12.3773 </r>
       <r>     0.8945     1.7107    12.5827 </r>
       <r>     1.0146     0.5783    12.6521 </r>
       <r>     1.1347     0.9385    12.7648 </r>
       <r>     1.2547     1.3317    12.9247 </r>
       <r>     1.3748     1.0471    13.0504 </r>
       <r>     1.4948     0.5566    13.1172 </r>
       <r>     1.6149     1.9255    13.3484 </r>
       <r>     1.7350     1.1660    13.4884 </r>
       <r>     1.8550     2.5123    13.7900 </r>
       <r>     1.9751     1.5176    13.9722 </r>
       <r>     2.0952     1.9036    14.2008 </r>
       <r>     2.2152     2.3676    14.4850 </r>
       <r>     2.3353     2.4167    14.7752 </r>
       <r>     2.4553     2.4451    15.0688 </r>
       <r>     2.5754     1.4500    15.2428 </r>
       <r>     2.6955     1.5868    15.4333 </r>
       <r>     2.8155     1.5829    15.6234 </r>
       <r>     2.9356     2.9876    15.9821 </r>
       <r>     3.0556     3.1211    16.3568 </r>
       <r>     3.1757     1.6949    16.5603 </r>
       <r>     3.2958     1.6116    16.7538 </r>
       <r>     3.4158     1.7900    16.9687 </r>
       <r>     3.5359     2.5815    17.2787 </r>
       <r>     3.6560     2.8995    17.6268 </r>
       <r>     3.7760     2.2224    17.8936 </r>
       <r>     3.8961     2.4743    18.1907 </r>
       <r>     4.0161     1.9498    18.4248 </r>
       <r>     4.1362     2.4184    18.7151 </r>
       <r>     4.2563     3.5240    19.1382 </r>
       <r>     4.3763     3.3855    19.5447 </r>
       <r>     4.4964     2.8899    19.8917 </r>
       <r>     4.6165     2.7215    20.2184 </r>
       <r>     4.7365     3.3177    20.6167 </r>
       <r>     4.8566     2.4033    20.9053 </r>
       <r>     4.9766     3.7057    21.3502 </r>
       <r>     5.0967     4.4841    21.8886 </r>
       <r>     5.2168     3.0078    22.2497 </r>
       <r>     5.3368     1.7474    22.4595 </r>
       <r>     5.4569     2.3331    22.7396 </r>
       <r>     5.5770     3.5629    23.1674 </r>
       <r>     5.6970     4.1447    23.6650 </r>
       <r>     5.8171     3.0740    24.0341 </r>
       <r>     5.9371     1.8289    24.2537 </r>
       <r>     6.0572     2.9891    24.6125 </r>
       <r>     6.1773     3.3074    25.0096 </r>
       <r>     6.2973     2.4293    25.3013 </r>
       <r>     6.4174     3.3879    25.7081 </r>
       <r>     6.5374     2.8363    26.0486 </r>
       <r>     6.6575     2.2438    26.3180 </r>
       <r>     6.7776     2.2747    26.5911 </r>
       <r>     6.8976     3.8826    27.0572 </r>
       <r>     7.0177     2.6770    27.3787 </r>
       <r>     7.1378     2.1847    27.6410 </r>
       <r>     7.2578     2.6920    27.9642 </r>
       <r>     7.3779     1.9573    28.1992 </r>
       <r>     7.4979     3.0796    28.5689 </r>
       <r>     7.6180     3.7140    29.0148 </r>
       <r>     7.7381     2.0084    29.2560 </r>
       <r>     7.8581     1.3567    29.4188 </r>
       <r>     7.9782     2.4587    29.7140 </r>
       <r>     8.0983     2.0360    29.9585 </r>
       <r>     8.2183     2.2331    30.2266 </r>
       <r>     8.3384     1.5519    30.4129 </r>
       <r>     8.4584     0.7369    30.5014 </r>
       <r>     8.5785     1.0012    30.6216 </r>
       <r>     8.6986     2.0291    30.8652 </r>
       <r>     8.8186     1.0677    30.9934 </r>
       <r>     8.9387     1.1789    31.1350 </r>
       <r>     9.0588     0.7216    31.2216 </r>
       <r>     9.1788     0.5232    31.2844 </r>
       <r>     9.2989     1.0997    31.4165 </r>
       <r>     9.4189     1.0474    31.5422 </r>
       <r>     9.5390     0.5302    31.6059 </r>
       <r>     9.6591     0.5643    31.6736 </r>
       <r>     9.7791     0.5155    31.7355 </r>
       <r>     9.8992     0.6784    31.8170 </r>
       <r>    10.0192     0.3778    31.8623 </r>
       <r>    10.1393     0.3839    31.9084 </r>
       <r>    10.2594     0.3342    31.9485 </r>
       <r>    10.3794     0.2264    31.9757 </r>
       <r>    10.4995     0.1749    31.9967 </r>
       <r>    10.6196     0.0274    32.0000 </r>
       <r>    10.7396     0.0000    32.0000 </r>
       <r>    10.8597     0.0000    32.0000 </r>
       <r>    10.9797     0.0000    32.0000 </r>
       <r>    11.0998     0.0000    32.0000 </r>
       <r>    11.2199     0.0000    32.0000 </r>
       <r>    11.3399     0.0000    32.0000 </r>
       <r>    11.4600     0.0000    32.0000 </r>
       <r>    11.5801     0.0000    32.0000 </r>
       <r>    11.7001     0.0000    32.0000 </r>
       <r>    11.8202     0.0000    32.0000 </r>
       <r>    11.9402     0.0000    32.0000 </r>
       <r>    12.0603     0.0000    32.0000 </r>
       <r>    12.1804     0.0000    32.0000 </r>
       <r>    12.3004     0.0000    32.0000 </r>
       <r>    12.4205     0.0000    32.0000 </r>
       <r>    12.5406     0.0000    32.0000 </r>
       <r>    12.6606     0.0000    32.0000 </r>
       <r>    12.7807     0.0000    32.0000 </r>
       <r>    12.9007     0.0000    32.0000 </r>
       <r>    13.0208     0.0000    32.0000 </r>
       <r>    13.1409     0.0000    32.0000 </r>
       <r>    13.2609     0.0000    32.0000 </r>
       <r>    13.3810     0.0000    32.0000 </r>
       <r>    13.5010     0.0000    32.0000 </r>
       <r>    13.6211     0.0000    32.0000 </r>
       <r>    13.7412     0.0000    32.0000 </r>
       <r>    13.8612     0.0000    32.0000 </r>
       <r>    13.9813     0.0000    32.0000 </r>
       <r>    14.1014     0.0000    32.0000 </r>
       <r>    14.2214     0.0000    32.0000 </r>
       <r>    14.3415     0.0000    32.0000 </r>
       <r>    14.4615     0.0000    32.0000 </r>
       <r>    14.5816     0.0000    32.0000 </r>
       <r>    14.7017     0.0643    32.0077 </r>
       <r>    14.8217     0.4329    32.0597 </r>
       <r>    14.9418     0.2313    32.0875 </r>
       <r>    15.0619     0.2234    32.1143 </r>
       <r>    15.1819     1.0685    32.2426 </r>
       <r>    15.3020     0.7309    32.3303 </r>
       <r>    15.4220     1.0275    32.4537 </r>
       <r>    15.5421     0.8105    32.5510 </r>
       <r>    15.6622     0.4101    32.6002 </r>
       <r>    15.7822     1.7540    32.8108 </r>
       <r>    15.9023     1.7892    33.0256 </r>
       <r>    16.0224     1.6836    33.2278 </r>
       <r>    16.1424     1.6863    33.4302 </r>
       <r>    16.2625     1.4853    33.6086 </r>
       <r>    16.3825     1.6243    33.8036 </r>
       <r>    16.5026     1.5464    33.9893 </r>
       <r>    16.6227     1.9201    34.2198 </r>
       <r>    16.7427     2.1255    34.4750 </r>
       <r>    16.8628     3.2084    34.8602 </r>
       <r>    16.9828     2.2077    35.1252 </r>
       <r>    17.1029     1.5288    35.3088 </r>
       <r>    17.2230     1.6301    35.5045 </r>
       <r>    17.3430     3.1212    35.8792 </r>
       <r>    17.4631     2.6673    36.1995 </r>
       <r>    17.5832     2.5381    36.5042 </r>
       <r>    17.7032     1.6104    36.6976 </r>
       <r>    17.8233     2.6274    37.0130 </r>
       <r>    17.9433     3.3956    37.4207 </r>
       <r>    18.0634     3.4789    37.8384 </r>
       <r>    18.1835     3.4581    38.2536 </r>
       <r>    18.3035     4.1607    38.7531 </r>
       <r>    18.4236     2.9550    39.1079 </r>
       <r>    18.5437     3.1575    39.4870 </r>
       <r>    18.6637     3.6083    39.9202 </r>
       <r>    18.7838     3.5697    40.3488 </r>
       <r>    18.9038     4.8387    40.9298 </r>
       <r>    19.0239     4.4224    41.4607 </r>
       <r>    19.1440     6.5598    42.2483 </r>
       <r>    19.2640     3.9220    42.7192 </r>
       <r>    19.3841     2.8561    43.0621 </r>
       <r>    19.5042     3.5793    43.4918 </r>
       <r>    19.6242     2.6786    43.8134 </r>
       <r>    19.7443     2.4212    44.1041 </r>
       <r>    19.8643     1.8958    44.3317 </r>
       <r>    19.9844     2.8252    44.6709 </r>
       <r>    20.1045     4.3511    45.1933 </r>
       <r>    20.2245     2.3871    45.4800 </r>
       <r>    20.3446     2.9189    45.8304 </r>
       <r>    20.4646     2.8370    46.1710 </r>
       <r>    20.5847     2.7578    46.5021 </r>
       <r>    20.7048     2.2153    46.7681 </r>
       <r>    20.8248     1.5318    46.9520 </r>
       <r>    20.9449     0.9814    47.0698 </r>
       <r>    21.0650     2.0963    47.3215 </r>
       <r>    21.1850     1.4957    47.5011 </r>
       <r>    21.3051     1.4753    47.6782 </r>
       <r>    21.4251     1.2062    47.8230 </r>
       <r>    21.5452     0.3929    47.8702 </r>
       <r>    21.6653     0.5507    47.9363 </r>
       <r>    21.7853     0.1979    47.9601 </r>
       <r>    21.9054     0.0410    47.9650 </r>
       <r>    22.0255     0.0000    47.9650 </r>
       <r>    22.1455     0.0366    47.9694 </r>
       <r>    22.2656     0.2511    47.9996 </r>
       <r>    22.3856     0.0037    48.0000 </r>
       <r>    22.5057     0.0000    48.0000 </r>
       <r>    22.6258     0.0000    48.0000 </r>
       <r>    22.7458     0.0000    48.0000 </r>
       <r>    22.8659     0.0000    48.0000 </r>
       <r>    22.9860     0.0000    48.0000 </r>
       <r>    23.1060     0.0000    48.0000 </r>
       <r>    23.2261     0.0000    48.0000 </r>
       <r>    23.3461     0.0000    48.0000 </r>
       <r>    23.4662     0.0000    48.0000 </r>
       <r>    23.5863     0.0000    48.0000 </r>
       <r>    23.7063     0.0000    48.0000 </r>
       <r>    23.8264     0.0000    48.0000 </r>
      </set>
     </set>
    </array>
   </total>
  </dos>
 </calculation>
 <structure name="finalpos" >
  <crystal>
   <varray name="basis" >
    <v>       3.59742910       0.00000000       0.00000000 </v>
    <v>       0.00000000       3.59742910       0.00000000 </v>
    <v>       0.00000000       0.00000000       3.59742910 </v>
   </varray>
   <i name="volume">     46.55611496 </i>
   <varray name="rec_basis" >
    <v>       0.27797629       0.00000000       0.00000000 </v>
    <v>       0.00000000       0.27797629       0.00000000 </v>
    <v>       0.00000000       0.00000000       0.27797629 </v>
   </varray>
  </crystal>
  <varray name="positions" >
   <v>       0.25000000       0.25000000       0.25000000 </v>
   <v>       0.00000000       0.00000000       0.00000000 </v>
   <v>       0.25000000       0.75000000       0.75000000 </v>
   <v>       0.00000000       0.50000000       0.50000000 </v>
   <v>       0.75000000       0.25000000       0.75000000 </v>
   <v>       0.50000000       0.00000000       0.50000000 </v>
   <v>       0.75000000       0.75000000       0.25000000 </v>
   <v>       0.50000000       0.50000000       0.00000000 </v>
  </varray>
 </structure>
</modeling>
