   4   4   0   0
  0.2208540E+02  0.4611365E-09  0.4611364E-09  0.4154382E-09  0.2000000E-15
  1.000000000000000E-004
  CAR 
 unknown system                          
     15.38774192     -2.69899990  301      5.73387561      1.00000000
     -2.699  0.0000E+00  0.0000E+00
     -2.639  0.0000E+00  0.0000E+00
     -2.578  0.0000E+00  0.0000E+00
     -2.518  0.0000E+00  0.0000E+00
     -2.458  0.0000E+00  0.0000E+00
     -2.398  0.0000E+00  0.0000E+00
     -2.337  0.0000E+00  0.0000E+00
     -2.277  0.1637E-19  0.9869E-21
     -2.217  0.1292E-16  0.7796E-18
     -2.156  0.5412E-14  0.3271E-15
     -2.096  0.1137E-11  0.6885E-13
     -2.036  0.1215E-09  0.7393E-11
     -1.976  0.6734E-08  0.4134E-09
     -1.915  0.1982E-06  0.1236E-07
     -1.855  0.3182E-05  0.2042E-06
     -1.795  0.2863E-04  0.1930E-05
     -1.734  0.1486E-03  0.1089E-04
     -1.674  0.4620E-03  0.3874E-04
     -1.614  0.9322E-03  0.9494E-04
     -1.554  0.1423E-02  0.1807E-03
     -1.493  0.1887E-02  0.2945E-03
     -1.433  0.2193E-02  0.4267E-03
     -1.373  0.2415E-02  0.5723E-03
     -1.312  0.2781E-02  0.7400E-03
     -1.252  0.3073E-02  0.9252E-03
     -1.192  0.3278E-02  0.1123E-02
     -1.131  0.3497E-02  0.1334E-02
     -1.071  0.3663E-02  0.1555E-02
     -1.011  0.3915E-02  0.1791E-02
     -0.951  0.4297E-02  0.2050E-02
     -0.890  0.4546E-02  0.2324E-02
     -0.830  0.4552E-02  0.2598E-02
     -0.770  0.4739E-02  0.2884E-02
     -0.709  0.5210E-02  0.3198E-02
     -0.649  0.5634E-02  0.3538E-02
     -0.589  0.5673E-02  0.3880E-02
     -0.529  0.5475E-02  0.4210E-02
     -0.468  0.5887E-02  0.4565E-02
     -0.408  0.6830E-02  0.4976E-02
     -0.348  0.7235E-02  0.5413E-02
     -0.287  0.7155E-02  0.5844E-02
     -0.227  0.7211E-02  0.6279E-02
     -0.167  0.7414E-02  0.6726E-02
     -0.107  0.8065E-02  0.7212E-02
     -0.046  0.8984E-02  0.7753E-02
      0.014  0.9416E-02  0.8321E-02
      0.074  0.9921E-02  0.8919E-02
      0.135  0.1112E-01  0.9590E-02
      0.195  0.1186E-01  0.1030E-01
      0.255  0.1209E-01  0.1103E-01
      0.315  0.1382E-01  0.1187E-01
      0.376  0.1785E-01  0.1294E-01
      0.436  0.2369E-01  0.1437E-01
      0.496  0.2951E-01  0.1615E-01
      0.557  0.3332E-01  0.1816E-01
      0.617  0.3674E-01  0.2037E-01
      0.677  0.4164E-01  0.2289E-01
      0.737  0.4751E-01  0.2575E-01
      0.798  0.5417E-01  0.2902E-01
      0.858  0.6193E-01  0.3275E-01
      0.918  0.7141E-01  0.3705E-01
      0.979  0.8321E-01  0.4207E-01
      1.039  0.9481E-01  0.4779E-01
      1.099  0.1035E+00  0.5403E-01
      1.160  0.1072E+00  0.6050E-01
      1.220  0.1056E+00  0.6686E-01
      1.280  0.1015E+00  0.7298E-01
      1.340  0.9677E-01  0.7881E-01
      1.401  0.9144E-01  0.8432E-01
      1.461  0.8598E-01  0.8951E-01
      1.521  0.8052E-01  0.9436E-01
      1.582  0.7674E-01  0.9899E-01
      1.642  0.7963E-01  0.1038E+00
      1.702  0.9308E-01  0.1094E+00
      1.762  0.1135E+00  0.1162E+00
      1.823  0.1337E+00  0.1243E+00
      1.883  0.1463E+00  0.1331E+00
      1.943  0.1472E+00  0.1420E+00
      2.004  0.1401E+00  0.1504E+00
      2.064  0.1307E+00  0.1583E+00
      2.124  0.1240E+00  0.1658E+00
      2.184  0.1247E+00  0.1733E+00
      2.245  0.1302E+00  0.1812E+00
      2.305  0.1315E+00  0.1891E+00
      2.365  0.1258E+00  0.1967E+00
      2.426  0.1223E+00  0.2041E+00
      2.486  0.1263E+00  0.2117E+00
      2.546  0.1318E+00  0.2196E+00
      2.606  0.1348E+00  0.2278E+00
      2.667  0.1344E+00  0.2359E+00
      2.727  0.1304E+00  0.2437E+00
      2.787  0.1268E+00  0.2514E+00
      2.848  0.1258E+00  0.2589E+00
      2.908  0.1254E+00  0.2665E+00
      2.968  0.1263E+00  0.2741E+00
      3.028  0.1305E+00  0.2820E+00
      3.089  0.1348E+00  0.2901E+00
      3.149  0.1352E+00  0.2983E+00
      3.209  0.1300E+00  0.3061E+00
      3.270  0.1233E+00  0.3135E+00
      3.330  0.1220E+00  0.3209E+00
      3.390  0.1245E+00  0.3284E+00
      3.450  0.1234E+00  0.3359E+00
      3.511  0.1200E+00  0.3431E+00
      3.571  0.1198E+00  0.3503E+00
      3.631  0.1258E+00  0.3579E+00
      3.692  0.1386E+00  0.3663E+00
      3.752  0.1524E+00  0.3754E+00
      3.812  0.1577E+00  0.3849E+00
      3.873  0.1502E+00  0.3940E+00
      3.933  0.1299E+00  0.4018E+00
      3.993  0.1048E+00  0.4082E+00
      4.053  0.7975E-01  0.4130E+00
      4.114  0.5456E-01  0.4162E+00
      4.174  0.3529E-01  0.4184E+00
      4.234  0.2550E-01  0.4199E+00
      4.295  0.2200E-01  0.4212E+00
      4.355  0.1892E-01  0.4224E+00
      4.415  0.1379E-01  0.4232E+00
      4.475  0.9942E-02  0.4238E+00
      4.536  0.1000E-01  0.4244E+00
      4.596  0.1306E-01  0.4252E+00
      4.656  0.1608E-01  0.4262E+00
      4.717  0.1607E-01  0.4271E+00
      4.777  0.1330E-01  0.4279E+00
      4.837  0.1049E-01  0.4286E+00
      4.897  0.9403E-02  0.4291E+00
      4.958  0.1057E-01  0.4298E+00
      5.018  0.1368E-01  0.4306E+00
      5.078  0.1589E-01  0.4316E+00
      5.139  0.1518E-01  0.4325E+00
      5.199  0.1342E-01  0.4333E+00
      5.259  0.1198E-01  0.4340E+00
      5.319  0.1091E-01  0.4347E+00
      5.380  0.1085E-01  0.4353E+00
      5.440  0.1199E-01  0.4360E+00
      5.500  0.1347E-01  0.4369E+00
      5.561  0.1412E-01  0.4377E+00
      5.621  0.1372E-01  0.4385E+00
      5.681  0.1309E-01  0.4393E+00
      5.741  0.1286E-01  0.4401E+00
      5.802  0.1269E-01  0.4409E+00
      5.862  0.1225E-01  0.4416E+00
      5.922  0.1259E-01  0.4424E+00
      5.983  0.1379E-01  0.4432E+00
      6.043  0.1430E-01  0.4441E+00
      6.103  0.1394E-01  0.4449E+00
      6.164  0.1365E-01  0.4457E+00
      6.224  0.1356E-01  0.4465E+00
      6.284  0.1313E-01  0.4473E+00
      6.344  0.1295E-01  0.4481E+00
      6.405  0.1342E-01  0.4489E+00
      6.465  0.1366E-01  0.4497E+00
      6.525  0.1357E-01  0.4506E+00
      6.586  0.1352E-01  0.4514E+00
      6.646  0.1320E-01  0.4522E+00
      6.706  0.1239E-01  0.4529E+00
      6.766  0.1216E-01  0.4536E+00
      6.827  0.1329E-01  0.4545E+00
      6.887  0.1446E-01  0.4553E+00
      6.947  0.1425E-01  0.4562E+00
      7.008  0.1356E-01  0.4570E+00
      7.068  0.1341E-01  0.4578E+00
      7.128  0.1332E-01  0.4586E+00
      7.188  0.1314E-01  0.4594E+00
      7.249  0.1336E-01  0.4602E+00
      7.309  0.1355E-01  0.4610E+00
      7.369  0.1320E-01  0.4618E+00
      7.430  0.1301E-01  0.4626E+00
      7.490  0.1351E-01  0.4634E+00
      7.550  0.1420E-01  0.4643E+00
      7.610  0.1481E-01  0.4652E+00
      7.671  0.1683E-01  0.4662E+00
      7.731  0.1952E-01  0.4674E+00
      7.791  0.1996E-01  0.4686E+00
      7.852  0.1883E-01  0.4697E+00
      7.912  0.1818E-01  0.4708E+00
      7.972  0.1740E-01  0.4718E+00
      8.032  0.1658E-01  0.4728E+00
      8.093  0.1648E-01  0.4738E+00
      8.153  0.1649E-01  0.4748E+00
      8.213  0.1664E-01  0.4758E+00
      8.274  0.1714E-01  0.4769E+00
      8.334  0.1699E-01  0.4779E+00
      8.394  0.1495E-01  0.4788E+00
      8.454  0.1184E-01  0.4795E+00
      8.515  0.1043E-01  0.4801E+00
      8.575  0.1120E-01  0.4808E+00
      8.635  0.1231E-01  0.4816E+00
      8.696  0.1257E-01  0.4823E+00
      8.756  0.1214E-01  0.4830E+00
      8.816  0.1143E-01  0.4837E+00
      8.877  0.1094E-01  0.4844E+00
      8.937  0.1125E-01  0.4851E+00
      8.997  0.1212E-01  0.4858E+00
      9.057  0.1286E-01  0.4866E+00
      9.118  0.1270E-01  0.4873E+00
      9.178  0.1163E-01  0.4880E+00
      9.238  0.1066E-01  0.4887E+00
      9.299  0.9899E-02  0.4893E+00
      9.359  0.9095E-02  0.4898E+00
      9.419  0.8838E-02  0.4904E+00
      9.479  0.9778E-02  0.4910E+00
      9.540  0.1220E-01  0.4917E+00
      9.600  0.1552E-01  0.4926E+00
      9.660  0.1767E-01  0.4937E+00
      9.721  0.1758E-01  0.4948E+00
      9.781  0.1601E-01  0.4957E+00
      9.841  0.1377E-01  0.4965E+00
      9.901  0.1293E-01  0.4973E+00
      9.962  0.1504E-01  0.4982E+00
     10.022  0.1676E-01  0.4992E+00
     10.082  0.1558E-01  0.5002E+00
     10.143  0.1422E-01  0.5010E+00
     10.203  0.1397E-01  0.5019E+00
     10.263  0.1370E-01  0.5027E+00
     10.323  0.1380E-01  0.5035E+00
     10.384  0.1467E-01  0.5044E+00
     10.444  0.1565E-01  0.5054E+00
     10.504  0.1676E-01  0.5064E+00
     10.565  0.1791E-01  0.5075E+00
     10.625  0.1827E-01  0.5086E+00
     10.685  0.1809E-01  0.5097E+00
     10.745  0.1770E-01  0.5107E+00
     10.806  0.1608E-01  0.5117E+00
     10.866  0.1331E-01  0.5125E+00
     10.926  0.1169E-01  0.5132E+00
     10.987  0.1297E-01  0.5140E+00
     11.047  0.1595E-01  0.5149E+00
     11.107  0.1750E-01  0.5160E+00
     11.168  0.1642E-01  0.5170E+00
     11.228  0.1404E-01  0.5178E+00
     11.288  0.1138E-01  0.5185E+00
     11.348  0.9468E-02  0.5191E+00
     11.409  0.9463E-02  0.5197E+00
     11.469  0.1109E-01  0.5203E+00
     11.529  0.1283E-01  0.5211E+00
     11.590  0.1328E-01  0.5219E+00
     11.650  0.1230E-01  0.5226E+00
     11.710  0.1037E-01  0.5233E+00
     11.770  0.9226E-02  0.5238E+00
     11.831  0.1054E-01  0.5245E+00
     11.891  0.1374E-01  0.5253E+00
     11.951  0.1612E-01  0.5263E+00
     12.012  0.1579E-01  0.5272E+00
     12.072  0.1422E-01  0.5281E+00
     12.132  0.1255E-01  0.5288E+00
     12.192  0.1089E-01  0.5295E+00
     12.253  0.1007E-01  0.5301E+00
     12.313  0.1028E-01  0.5307E+00
     12.373  0.1016E-01  0.5313E+00
     12.434  0.8868E-02  0.5319E+00
     12.494  0.7383E-02  0.5323E+00
     12.554  0.6359E-02  0.5327E+00
     12.614  0.6159E-02  0.5331E+00
     12.675  0.7573E-02  0.5335E+00
     12.735  0.9724E-02  0.5341E+00
     12.795  0.1024E-01  0.5347E+00
     12.856  0.8874E-02  0.5353E+00
     12.916  0.8029E-02  0.5357E+00
     12.976  0.8222E-02  0.5362E+00
     13.036  0.7619E-02  0.5367E+00
     13.097  0.5820E-02  0.5370E+00
     13.157  0.4298E-02  0.5373E+00
     13.217  0.4296E-02  0.5376E+00
     13.278  0.5261E-02  0.5379E+00
     13.338  0.5444E-02  0.5382E+00
     13.398  0.4267E-02  0.5385E+00
     13.458  0.2751E-02  0.5386E+00
     13.519  0.1810E-02  0.5387E+00
     13.579  0.1467E-02  0.5388E+00
     13.639  0.1537E-02  0.5389E+00
     13.700  0.1991E-02  0.5390E+00
     13.760  0.2549E-02  0.5392E+00
     13.820  0.2460E-02  0.5393E+00
     13.881  0.1910E-02  0.5395E+00
     13.941  0.1864E-02  0.5396E+00
     14.001  0.2005E-02  0.5397E+00
     14.061  0.1672E-02  0.5398E+00
     14.122  0.1089E-02  0.5399E+00
     14.182  0.5776E-03  0.5399E+00
     14.242  0.2757E-03  0.5399E+00
     14.303  0.2963E-03  0.5399E+00
     14.363  0.4826E-03  0.5400E+00
     14.423  0.4659E-03  0.5400E+00
     14.483  0.2335E-03  0.5400E+00
     14.544  0.6028E-04  0.5400E+00
     14.604  0.8009E-05  0.5400E+00
     14.664  0.5468E-06  0.5400E+00
     14.725  0.1912E-07  0.5400E+00
     14.785  0.3411E-09  0.5400E+00
     14.845  0.3086E-11  0.5400E+00
     14.905  0.1408E-13  0.5400E+00
     14.966  0.3217E-16  0.5400E+00
     15.026  0.4365E-19  0.5400E+00
     15.086  0.0000E+00  0.5400E+00
     15.147  0.0000E+00  0.5400E+00
     15.207  0.0000E+00  0.5400E+00
     15.267  0.0000E+00  0.5400E+00
     15.327  0.0000E+00  0.5400E+00
     15.388  0.0000E+00  0.5400E+00
