    4    4  100    1
  0.2208540E+02  0.4611365E-09  0.4611364E-09  0.4154382E-09  0.2000000E-15
  1.000000000000000E-004
  CAR 
 unknown system                          
     44   1688     27
 
  0.0000000E+00  0.0000000E+00  0.0000000E+00  0.2962963E-03
    1       -1.699000   1.000000
    2        0.634596   1.000000
    3        0.634596   1.000000
    4        0.769194   1.000000
    5        0.899656   1.000000
    6        0.906487   1.000000
    7        0.906488   1.000000
    8        2.033461   1.000000
    9        2.033461   1.000000
   10        2.593749   1.000000
   11        2.819547   1.000000
   12        3.400466   1.000000
   13        3.813438   1.000000
   14        3.813439   1.000000
   15        3.869500   1.000000
   16        3.869502   1.000000
   17        3.879845   1.000000
   18        4.121968   1.000000
   19        4.121968   1.000000
   20        4.264236   1.000000
   21        4.264236   1.000000
   22        6.979750   0.000000
   23        6.979752   0.000000
   24        8.466319   0.000000
   25        9.115978   0.000000
   26        9.115980   0.000000
   27       10.936279   0.000000
 
  0.6666667E-01 -0.8615811E-25 -0.2067952E-24  0.5925926E-03
    1       -1.660485   1.000000
    2        0.643375   1.000000
    3        0.658560   1.000000
    4        0.789745   1.000000
    5        0.917493   1.000000
    6        0.917582   1.000000
    7        0.928073   1.000000
    8        2.019577   1.000000
    9        2.052087   1.000000
   10        2.604557   1.000000
   11        2.812679   1.000000
   12        3.396887   1.000000
   13        3.786046   1.000000
   14        3.787304   1.000000
   15        3.806279   1.000000
   16        3.851121   1.000000
   17        3.855600   1.000000
   18        4.047798   1.000000
   19        4.123488   1.000000
   20        4.230495   1.000000
   21        4.262676   1.000000
   22        6.523672   0.000000
   23        7.094512   0.000000
   24        8.569372   0.000000
   25        9.111945   0.000000
   26        9.644858   0.000000
   27       10.855304   0.000000
 
  0.1333333E+00 -0.1723158E-24 -0.8271806E-24  0.5925926E-03
    1       -1.545559   1.000000
    2        0.667047   1.000000
    3        0.728809   1.000000
    4        0.849943   1.000000
    5        0.950169   1.000000
    6        0.971397   1.000000
    7        0.992653   1.000000
    8        1.978750   1.000000
    9        2.107548   1.000000
   10        2.636796   1.000000
   11        2.790352   1.000000
   12        3.389173   1.000000
   13        3.567224   1.000000
   14        3.711155   1.000000
   15        3.784082   1.000000
   16        3.785002   1.000000
   17        3.797597   1.000000
   18        3.845403   1.000000
   19        4.128104   1.000000
   20        4.132818   1.000000
   21        4.258065   1.000000
   22        5.686870   0.746898
   23        7.406734   0.000000
   24        8.858150   0.000000
   25        9.101809   0.000000
   26       10.640000   0.000000
   27       10.702281   0.000000
 
  0.2000000E+00 -0.2584739E-24  0.0000000E+00  0.5925926E-03
    1       -1.356566   1.000000
    2        0.696593   1.000000
    3        0.840089   1.000000
    4        0.945092   1.000000
    5        1.003481   1.000000
    6        1.060907   1.000000
    7        1.099762   1.000000
    8        1.913507   1.000000
    9        2.198892   1.000000
   10        2.689957   1.000000
   11        2.749145   1.000000
   12        3.272805   1.000000
   13        3.385081   1.000000
   14        3.558006   1.000000
   15        3.592332   1.000000
   16        3.669190   1.000000
   17        3.713469   1.000000
   18        3.749750   1.000000
   19        3.980622   1.000000
   20        4.135566   1.000000
   21        4.250651   1.000000
   22        4.833328   1.000000
   23        7.855097   0.000000
   24        9.091161   0.000000
   25        9.288107   0.000000
   26       10.350904   0.000000
   27       11.931917   0.000000
 
  0.2666667E+00 -0.3446320E-24 -0.1654361E-23  0.5925926E-03
    1       -1.098078   1.000000
    2        0.713665   1.000000
    3        0.982441   1.000000
    4        1.066301   1.000000
    5        1.075793   1.000000
    6        1.185888   1.000000
    7        1.248467   1.000000
    8        1.827596   1.000000
    9        2.324379   1.000000
   10        2.688895   1.000000
   11        2.763031   1.000000
   12        2.949441   1.000000
   13        3.227079   1.000000
   14        3.392460   1.000000
   15        3.443979   1.000000
   16        3.519944   1.000000
   17        3.605437   1.000000
   18        3.693894   1.000000
   19        3.787314   1.000000
   20        4.064315   1.000000
   21        4.145512   1.000000
   22        4.240719   1.000000
   23        8.390291   0.000000
   24        9.088272   0.000000
   25        9.815815   0.000000
   26       10.046311   0.000000
   27       12.707478   0.000000
 
  0.3333333E+00 -0.2239949E-24 -0.8271806E-24  0.5925926E-03
    1       -0.778428   1.000000
    2        0.685205   1.000000
    3        1.138943   1.000000
    4        1.164624   1.000000
    5        1.198458   1.000000
    6        1.346002   1.000000
    7        1.437433   1.000000
    8        1.725790   1.000000
    9        2.481405   1.000000
   10        2.618050   1.000000
   11        2.624876   1.000000
   12        2.854457   1.000000
   13        2.882373   1.000000
   14        3.286712   1.000000
   15        3.353250   1.000000
   16        3.366680   1.000000
   17        3.415130   1.000000
   18        3.481052   1.000000
   19        3.567165   1.000000
   20        3.684721   1.000000
   21        4.157549   1.000000
   22        4.228702   1.000000
   23        8.980707   0.000000
   24        9.102943   0.000000
   25        9.766297   0.000000
   26       10.408531   0.000000
   27       12.144834   0.000000
 
  0.4000000E+00 -0.5169477E-24  0.0000000E+00  0.5925926E-03
    1       -0.413237   1.000000
    2        0.563249   1.000000
    3        1.266890   1.000000
    4        1.282544   1.000000
    5        1.317008   1.000000
    6        1.540501   1.000000
    7        1.613426   1.000000
    8        1.664710   1.000000
    9        2.314554   1.000000
   10        2.543317   1.000000
   11        2.557317   1.000000
   12        2.666445   1.000000
   13        2.901880   1.000000
   14        2.962131   1.000000
   15        3.150896   1.000000
   16        3.197513   1.000000
   17        3.334012   1.000000
   18        3.348012   1.000000
   19        3.452270   1.000000
   20        3.615615   1.000000
   21        4.171139   1.000000
   22        4.215123   1.000000
   23        9.145457   0.000000
   24        9.532505   0.000000
   25        9.605564   0.000000
   26       11.042729   0.000000
   27       11.534567   0.000000
 
  0.4666667E+00  0.1727960E-25 -0.1654361E-23  0.5925926E-03
    1       -0.031623   1.000000
    2        0.315210   1.000000
    3        1.375893   1.000000
    4        1.378810   1.000000
    5        1.386919   1.000000
    6        1.495980   1.000000
    7        1.768231   1.000000
    8        1.927631   1.000000
    9        2.027289   1.000000
   10        2.222341   1.000000
   11        2.543451   1.000000
   12        2.635104   1.000000
   13        2.874661   1.000000
   14        3.075678   1.000000
   15        3.083065   1.000000
   16        3.092647   1.000000
   17        3.099832   1.000000
   18        3.213330   1.000000
   19        3.500516   1.000000
   20        3.555955   1.000000
   21        4.185707   1.000000
   22        4.200581   1.000000
   23        9.225792   0.000000
   24        9.352733   0.000000
   25       10.249077   0.000000
   26       10.897002   0.000000
   27       11.700428   0.000000
 
  0.1086905E-24  0.6666667E-01  0.0000000E+00  0.5925926E-03
    1       -1.660485   1.000000
    2        0.643375   1.000000
    3        0.658560   1.000000
    4        0.789745   1.000000
    5        0.917493   1.000000
    6        0.917582   1.000000
    7        0.928073   1.000000
    8        2.019578   1.000000
    9        2.052087   1.000000
   10        2.604557   1.000000
   11        2.812679   1.000000
   12        3.396887   1.000000
   13        3.786046   1.000000
   14        3.787305   1.000000
   15        3.806278   1.000000
   16        3.851121   1.000000
   17        3.855600   1.000000
   18        4.047799   1.000000
   19        4.123487   1.000000
   20        4.230495   1.000000
   21        4.262676   1.000000
   22        6.523673   0.000000
   23        7.094511   0.000000
   24        8.569372   0.000000
   25        9.111943   0.000000
   26        9.644860   0.000000
   27       10.855304   0.000000
 
  0.6666667E-01  0.6666667E-01  0.2067952E-24  0.5925926E-03
    1       -1.622087   1.000000
    2        0.667526   1.000000
    3        0.667526   1.000000
    4        0.808632   1.000000
    5        0.936685   1.000000
    6        0.938968   1.000000
    7        0.938968   1.000000
    8        2.021357   1.000000
    9        2.055185   1.000000
   10        2.614535   1.000000
   11        2.806447   1.000000
   12        3.393497   1.000000
   13        3.737629   1.000000
   14        3.737630   1.000000
   15        3.807854   1.000000
   16        3.807855   1.000000
   17        3.832210   1.000000
   18        4.003035   1.000000
   19        4.098212   1.000000
   20        4.228846   1.000000
   21        4.228847   1.000000
   22        6.628666   0.000000
   23        6.628667   0.000000
   24        8.670039   0.000000
   25        9.651754   0.000000
   26        9.651756   0.000000
   27       10.764603   0.000000
 
  0.1333333E+00  0.6666667E-01 -0.7237830E-24  0.5925926E-03
    1       -1.507653   1.000000
    2        0.691749   1.000000
    3        0.738337   1.000000
    4        0.864037   1.000000
    5        0.971363   1.000000
    6        0.993689   1.000000
    7        1.003269   1.000000
    8        1.987388   1.000000
    9        2.104365   1.000000
   10        2.644106   1.000000
   11        2.786052   1.000000
   12        3.386623   1.000000
   13        3.520230   1.000000
   14        3.657727   1.000000
   15        3.727020   1.000000
   16        3.763030   1.000000
   17        3.804668   1.000000
   18        3.819030   1.000000
   19        4.090418   1.000000
   20        4.130892   1.000000
   21        4.223985   1.000000
   22        5.793977   0.197672
   23        6.905237   0.000000
   24        8.953080   0.000000
   25        9.677109   0.000000
   26       10.523525   0.000000
   27       10.711648   0.000000
 
  0.2000000E+00  0.6666667E-01  0.5169879E-24  0.5925926E-03
    1       -1.319445   1.000000
    2        0.722234   1.000000
    3        0.850589   1.000000
    4        0.952458   1.000000
    5        1.024194   1.000000
    6        1.087265   1.000000
    7        1.109818   1.000000
    8        1.923943   1.000000
    9        2.194739   1.000000
   10        2.689114   1.000000
   11        2.751207   1.000000
   12        3.225700   1.000000
   13        3.384411   1.000000
   14        3.540926   1.000000
   15        3.542306   1.000000
   16        3.608028   1.000000
   17        3.651598   1.000000
   18        3.780854   1.000000
   19        3.978348   1.000000
   20        4.095673   1.000000
   21        4.216089   1.000000
   22        4.960362   1.000000
   23        7.279275   0.000000
   24        9.376447   0.000000
   25        9.735179   0.000000
   26       10.198883   0.000000
   27       11.933742   0.000000
 
  0.2666667E+00  0.6666667E-01 -0.1447566E-23  0.5925926E-03
    1       -1.062101   1.000000
    2        0.740601   1.000000
    3        0.994410   1.000000
    4        1.068157   1.000000
    5        1.095779   1.000000
    6        1.213979   1.000000
    7        1.257750   1.000000
    8        1.839357   1.000000
    9        2.319984   1.000000
   10        2.676324   1.000000
   11        2.773517   1.000000
   12        2.904992   1.000000
   13        3.216917   1.000000
   14        3.375612   1.000000
   15        3.395128   1.000000
   16        3.459785   1.000000
   17        3.506433   1.000000
   18        3.739302   1.000000
   19        3.784562   1.000000
   20        4.105319   1.000000
   21        4.205530   1.000000
   22        4.237687   1.000000
   23        7.685349   0.000000
   24        9.850059   0.000000
   25        9.852105   0.000000
   26        9.898232   0.000000
   27       12.733365   0.000000
 
  0.3333333E+00  0.6666667E-01 -0.1654361E-23  0.5925926E-03
    1       -0.743918   1.000000
    2        0.713500   1.000000
    3        1.152945   1.000000
    4        1.183751   1.000000
    5        1.200546   1.000000
    6        1.368653   1.000000
    7        1.445635   1.000000
    8        1.738860   1.000000
    9        2.477003   1.000000
   10        2.585628   1.000000
   11        2.606316   1.000000
   12        2.859390   1.000000
   13        2.877551   1.000000
   14        3.115048   1.000000
   15        3.301587   1.000000
   16        3.344061   1.000000
   17        3.422461   1.000000
   18        3.564010   1.000000
   19        3.657879   1.000000
   20        3.751058   1.000000
   21        4.117684   1.000000
   22        4.192765   1.000000
   23        8.072183   0.000000
   24        9.521859   0.000000
   25       10.052290   0.000000
   26       10.486162   0.000000
   27       12.277213   0.000000
 
  0.4000000E+00  0.6666667E-01  0.0000000E+00  0.5925926E-03
    1       -0.380414   1.000000
    2        0.592538   1.000000
    3        1.285001   1.000000
    4        1.299010   1.000000
    5        1.326154   1.000000
    6        1.549081   1.000000
    7        1.627813   1.000000
    8        1.671484   1.000000
    9        2.282759   1.000000
   10        2.540763   1.000000
   11        2.542607   1.000000
   12        2.662130   1.000000
   13        2.797385   1.000000
   14        2.966091   1.000000
   15        3.162887   1.000000
   16        3.192913   1.000000
   17        3.330465   1.000000
   18        3.418899   1.000000
   19        3.465058   1.000000
   20        3.643711   1.000000
   21        4.131909   1.000000
   22        4.178371   1.000000
   23        8.407661   0.000000
   24        9.223735   0.000000
   25       10.364244   0.000000
   26       11.116714   0.000000
   27       11.776442   0.000000
 
  0.4666667E+00  0.6666667E-01  0.8271806E-24  0.5925926E-03
    1       -0.000454   1.000000
    2        0.345222   1.000000
    3        1.394106   1.000000
    4        1.395772   1.000000
    5        1.403282   1.000000
    6        1.511682   1.000000
    7        1.760103   1.000000
    8        1.932527   1.000000
    9        2.005545   1.000000
   10        2.224803   1.000000
   11        2.515996   1.000000
   12        2.584609   1.000000
   13        2.870537   1.000000
   14        3.082532   1.000000
   15        3.091423   1.000000
   16        3.093422   1.000000
   17        3.095973   1.000000
   18        3.237695   1.000000
   19        3.518896   1.000000
   20        3.579466   1.000000
   21        4.147257   1.000000
   22        4.162970   1.000000
   23        8.692330   0.000000
   24        8.953886   0.000000
   25       10.779611   0.000000
   26       11.264353   0.000000
   27       11.771799   0.000000
 
 -0.4666667E+00  0.6666667E-01  0.1654361E-23  0.5925926E-03
    1       -0.000454   1.000000
    2        0.345222   1.000000
    3        1.394106   1.000000
    4        1.395772   1.000000
    5        1.403282   1.000000
    6        1.511681   1.000000
    7        1.760103   1.000000
    8        1.932527   1.000000
    9        2.005545   1.000000
   10        2.224803   1.000000
   11        2.515996   1.000000
   12        2.584609   1.000000
   13        2.870537   1.000000
   14        3.082532   1.000000
   15        3.091423   1.000000
   16        3.093422   1.000000
   17        3.095973   1.000000
   18        3.237695   1.000000
   19        3.518896   1.000000
   20        3.579466   1.000000
   21        4.147257   1.000000
   22        4.162970   1.000000
   23        8.692330   0.000000
   24        8.953886   0.000000
   25       10.779611   0.000000
   26       11.264353   0.000000
   27       11.771801   0.000000
 
 -0.4000000E+00  0.6666667E-01  0.0000000E+00  0.5925926E-03
    1       -0.380414   1.000000
    2        0.592538   1.000000
    3        1.285001   1.000000
    4        1.299010   1.000000
    5        1.326154   1.000000
    6        1.549081   1.000000
    7        1.627813   1.000000
    8        1.671484   1.000000
    9        2.282759   1.000000
   10        2.540763   1.000000
   11        2.542607   1.000000
   12        2.662130   1.000000
   13        2.797385   1.000000
   14        2.966091   1.000000
   15        3.162887   1.000000
   16        3.192913   1.000000
   17        3.330465   1.000000
   18        3.418899   1.000000
   19        3.465058   1.000000
   20        3.643711   1.000000
   21        4.131909   1.000000
   22        4.178371   1.000000
   23        8.407661   0.000000
   24        9.223735   0.000000
   25       10.364244   0.000000
   26       11.116714   0.000000
   27       11.776442   0.000000
 
 -0.3333333E+00  0.6666667E-01  0.8271806E-24  0.5925926E-03
    1       -0.743918   1.000000
    2        0.713500   1.000000
    3        1.152945   1.000000
    4        1.183751   1.000000
    5        1.200546   1.000000
    6        1.368653   1.000000
    7        1.445635   1.000000
    8        1.738860   1.000000
    9        2.477003   1.000000
   10        2.585628   1.000000
   11        2.606316   1.000000
   12        2.859390   1.000000
   13        2.877551   1.000000
   14        3.115048   1.000000
   15        3.301587   1.000000
   16        3.344061   1.000000
   17        3.422461   1.000000
   18        3.564010   1.000000
   19        3.657879   1.000000
   20        3.751059   1.000000
   21        4.117684   1.000000
   22        4.192765   1.000000
   23        8.072184   0.000000
   24        9.521859   0.000000
   25       10.052289   0.000000
   26       10.486162   0.000000
   27       12.277212   0.000000
 
 -0.2666667E+00  0.6666667E-01  0.8271806E-24  0.5925926E-03
    1       -1.062101   1.000000
    2        0.740601   1.000000
    3        0.994410   1.000000
    4        1.068157   1.000000
    5        1.095779   1.000000
    6        1.213979   1.000000
    7        1.257750   1.000000
    8        1.839356   1.000000
    9        2.319984   1.000000
   10        2.676324   1.000000
   11        2.773517   1.000000
   12        2.904992   1.000000
   13        3.216917   1.000000
   14        3.375612   1.000000
   15        3.395128   1.000000
   16        3.459785   1.000000
   17        3.506433   1.000000
   18        3.739302   1.000000
   19        3.784562   1.000000
   20        4.105319   1.000000
   21        4.205530   1.000000
   22        4.237687   1.000000
   23        7.685349   0.000000
   24        9.850059   0.000000
   25        9.852105   0.000000
   26        9.898232   0.000000
   27       12.733291   0.000000
 
 -0.2000000E+00  0.6666667E-01  0.2481542E-23  0.5925926E-03
    1       -1.319445   1.000000
    2        0.722234   1.000000
    3        0.850589   1.000000
    4        0.952458   1.000000
    5        1.024194   1.000000
    6        1.087265   1.000000
    7        1.109818   1.000000
    8        1.923943   1.000000
    9        2.194739   1.000000
   10        2.689114   1.000000
   11        2.751208   1.000000
   12        3.225700   1.000000
   13        3.384411   1.000000
   14        3.540926   1.000000
   15        3.542306   1.000000
   16        3.608028   1.000000
   17        3.651598   1.000000
   18        3.780854   1.000000
   19        3.978348   1.000000
   20        4.095673   1.000000
   21        4.216089   1.000000
   22        4.960362   1.000000
   23        7.279275   0.000000
   24        9.376447   0.000000
   25        9.735179   0.000000
   26       10.198883   0.000000
   27       11.933737   0.000000
 
 -0.1333333E+00  0.6666667E-01  0.8271806E-24  0.5925926E-03
    1       -1.507653   1.000000
    2        0.691749   1.000000
    3        0.738337   1.000000
    4        0.864037   1.000000
    5        0.971363   1.000000
    6        0.993689   1.000000
    7        1.003269   1.000000
    8        1.987388   1.000000
    9        2.104365   1.000000
   10        2.644106   1.000000
   11        2.786052   1.000000
   12        3.386623   1.000000
   13        3.520230   1.000000
   14        3.657727   1.000000
   15        3.727020   1.000000
   16        3.763030   1.000000
   17        3.804668   1.000000
   18        3.819030   1.000000
   19        4.090418   1.000000
   20        4.130892   1.000000
   21        4.223985   1.000000
   22        5.793977   0.197672
   23        6.905238   0.000000
   24        8.953080   0.000000
   25        9.677109   0.000000
   26       10.523525   0.000000
   27       10.711648   0.000000
 
 -0.6666667E-01  0.6666667E-01  0.0000000E+00  0.5925926E-03
    1       -1.622087   1.000000
    2        0.667526   1.000000
    3        0.667526   1.000000
    4        0.808632   1.000000
    5        0.936685   1.000000
    6        0.938968   1.000000
    7        0.938968   1.000000
    8        2.021357   1.000000
    9        2.055185   1.000000
   10        2.614535   1.000000
   11        2.806447   1.000000
   12        3.393497   1.000000
   13        3.737629   1.000000
   14        3.737630   1.000000
   15        3.807854   1.000000
   16        3.807855   1.000000
   17        3.832210   1.000000
   18        4.003035   1.000000
   19        4.098212   1.000000
   20        4.228846   1.000000
   21        4.228847   1.000000
   22        6.628666   0.000000
   23        6.628668   0.000000
   24        8.670039   0.000000
   25        9.651754   0.000000
   26        9.651756   0.000000
   27       10.764603   0.000000
 
  0.1058619E-25  0.1333333E+00 -0.8271806E-24  0.5925926E-03
    1       -1.545559   1.000000
    2        0.667047   1.000000
    3        0.728808   1.000000
    4        0.849943   1.000000
    5        0.950170   1.000000
    6        0.971397   1.000000
    7        0.992652   1.000000
    8        1.978750   1.000000
    9        2.107548   1.000000
   10        2.636796   1.000000
   11        2.790352   1.000000
   12        3.389173   1.000000
   13        3.567224   1.000000
   14        3.711155   1.000000
   15        3.784082   1.000000
   16        3.785001   1.000000
   17        3.797597   1.000000
   18        3.845403   1.000000
   19        4.128103   1.000000
   20        4.132818   1.000000
   21        4.258065   1.000000
   22        5.686871   0.746894
   23        7.406733   0.000000
   24        8.858151   0.000000
   25        9.101808   0.000000
   26       10.640000   0.000000
   27       10.702283   0.000000
 
  0.6666667E-01  0.1333333E+00 -0.1240771E-23  0.5925926E-03
    1       -1.507653   1.000000
    2        0.691749   1.000000
    3        0.738337   1.000000
    4        0.864037   1.000000
    5        0.971363   1.000000
    6        0.993689   1.000000
    7        1.003269   1.000000
    8        1.987389   1.000000
    9        2.104364   1.000000
   10        2.644106   1.000000
   11        2.786052   1.000000
   12        3.386623   1.000000
   13        3.520230   1.000000
   14        3.657727   1.000000
   15        3.727020   1.000000
   16        3.763030   1.000000
   17        3.804667   1.000000
   18        3.819031   1.000000
   19        4.090418   1.000000
   20        4.130892   1.000000
   21        4.223985   1.000000
   22        5.793978   0.197668
   23        6.905236   0.000000
   24        8.953080   0.000000
   25        9.677108   0.000000
   26       10.523524   0.000000
   27       10.711650   0.000000
 
  0.1333333E+00  0.1333333E+00 -0.8271806E-24  0.5925926E-03
    1       -1.394637   1.000000
    2        0.764261   1.000000
    3        0.764261   1.000000
    4        0.907211   1.000000
    5        1.034725   1.000000
    6        1.034725   1.000000
    7        1.058171   1.000000
    8        1.988987   1.000000
    9        2.119549   1.000000
   10        2.665691   1.000000
   11        2.770788   1.000000
   12        3.382844   1.000000
   13        3.411068   1.000000
   14        3.411069   1.000000
   15        3.700428   1.000000
   16        3.704487   1.000000
   17        3.742135   1.000000
   18        3.742135   1.000000
   19        4.028106   1.000000
   20        4.125221   1.000000
   21        4.125222   1.000000
   22        6.064105   0.000002
   23        6.064106   0.000002
   24        9.222080   0.000000
   25       10.218423   0.000000
   26       10.742962   0.000000
   27       10.742963   0.000000
 
  0.2000000E+00  0.1333333E+00 -0.6203855E-24  0.5925926E-03
    1       -1.208866   1.000000
    2        0.797642   1.000000
    3        0.879499   1.000000
    4        0.980601   1.000000
    5        1.086040   1.000000
    6        1.139690   1.000000
    7        1.158811   1.000000
    8        1.945764   1.000000
    9        2.192155   1.000000
   10        2.692853   1.000000
   11        2.747267   1.000000
   12        3.107910   1.000000
   13        3.259355   1.000000
   14        3.387389   1.000000
   15        3.475924   1.000000
   16        3.598827   1.000000
   17        3.631093   1.000000
   18        3.733503   1.000000
   19        3.971587   1.000000
   20        4.001822   1.000000
   21        4.116088   1.000000
   22        5.252468   1.000000
   23        6.414897   0.000000
   24        9.628901   0.000000
   25        9.813802   0.000000
   26       10.805180   0.000000
   27       11.941153   0.000000
 
  0.2666667E+00  0.1333333E+00 -0.1654361E-23  0.5925926E-03
    1       -0.954996   1.000000
    2        0.819916   1.000000
    3        1.027791   1.000000
    4        1.083593   1.000000
    5        1.155518   1.000000
    6        1.285267   1.000000
    7        1.286929   1.000000
    8        1.870176   1.000000
    9        2.311645   1.000000
   10        2.659499   1.000000
   11        2.779007   1.000000
   12        2.790968   1.000000
   13        3.064034   1.000000
   14        3.180709   1.000000
   15        3.409400   1.000000
   16        3.465310   1.000000
   17        3.487555   1.000000
   18        3.692726   1.000000
   19        3.776556   1.000000
   20        4.000000   1.000000
   21        4.103901   1.000000
   22        4.563866   1.000000
   23        6.792788   0.000000
   24        9.383346   0.000000
   25       10.135453   0.000000
   26       10.910634   0.000000
   27       12.767714   0.000000
 
  0.3333333E+00  0.1333333E+00  0.4135903E-24  0.5925926E-03
    1       -0.641350   1.000000
    2        0.796890   1.000000
    3        1.192650   1.000000
    4        1.211768   1.000000
    5        1.240805   1.000000
    6        1.430621   1.000000
    7        1.469881   1.000000
    8        1.775618   1.000000
    9        2.466520   1.000000
   10        2.483122   1.000000
   11        2.583628   1.000000
   12        2.829332   1.000000
   13        2.855472   1.000000
   14        2.860426   1.000000
   15        3.315212   1.000000
   16        3.330497   1.000000
   17        3.451900   1.000000
   18        3.554819   1.000000
   19        3.602048   1.000000
   20        4.008464   1.000000
   21        4.068521   1.000000
   22        4.089236   1.000000
   23        7.168994   0.000000
   24        8.968227   0.000000
   25       10.710850   0.000000
   26       11.070800   0.000000
   27       12.498211   0.000000
 
  0.4000000E+00  0.1333333E+00  0.1240771E-23  0.5925926E-03
    1       -0.283122   1.000000
    2        0.678780   1.000000
    3        1.338877   1.000000
    4        1.346691   1.000000
    5        1.349727   1.000000
    6        1.578330   1.000000
    7        1.669512   1.000000
    8        1.691385   1.000000
    9        2.197687   1.000000
   10        2.504309   1.000000
   11        2.539099   1.000000
   12        2.605197   1.000000
   13        2.650870   1.000000
   14        2.957317   1.000000
   15        3.176836   1.000000
   16        3.187402   1.000000
   17        3.320263   1.000000
   18        3.435214   1.000000
   19        3.512272   1.000000
   20        3.804512   1.000000
   21        4.021965   1.000000
   22        4.072785   1.000000
   23        7.530915   0.000000
   24        8.583060   0.000000
   25       11.290874   0.000000
   26       11.331746   0.000000
   27       12.195225   0.000000
 
  0.4666667E+00  0.1333333E+00  0.0000000E+00  0.5925926E-03
    1        0.091576   1.000000
    2        0.433549   1.000000
    3        1.446002   1.000000
    4        1.448012   1.000000
    5        1.449955   1.000000
    6        1.557843   1.000000
    7        1.739331   1.000000
    8        1.945467   1.000000
    9        1.946691   1.000000
   10        2.231362   1.000000
   11        2.453078   1.000000
   12        2.473342   1.000000
   13        2.859217   1.000000
   14        3.085054   1.000000
   15        3.085957   1.000000
   16        3.091738   1.000000
   17        3.095964   1.000000
   18        3.245912   1.000000
   19        3.586713   1.000000
   20        3.676277   1.000000
   21        4.038110   1.000000
   22        4.055429   1.000000
   23        7.879117   0.000000
   24        8.224531   0.000000
   25       11.565016   0.000000
   26       11.875230   0.000000
   27       11.979868   0.000000
 
 -0.4666667E+00  0.1333333E+00  0.3308722E-23  0.5925926E-03
    1        0.091576   1.000000
    2        0.433549   1.000000
    3        1.446002   1.000000
    4        1.448012   1.000000
    5        1.449955   1.000000