 running on   24 total cores
 distrk:  each k-point on   24 cores,    1 groups
 distr:  one band on    8 cores,    3 groups
 using from now: INCAR     
 vasp.5.4.4.18Apr17-6-g9f103f2a35 (build Jan 14 2019 14:48:31) complex          
  
 POSCAR found type information on POSCAR  Au
 POSCAR found :  1 types and       4 ions
 scaLAPACK will be used
 LDA part: xc-table for Pade appr. of Perdew
 POSCAR found type information on POSCAR  Au
 POSCAR found :  1 types and       4 ions
 POSCAR, INCAR and KPOINTS ok, starting setup
 FFT: planning ...
 WAVECAR not read
 entering main loop
       N       E                     dE             d eps       ncg     rms          rms(c)
DAV:   1     0.258808200230E+03    0.25881E+03   -0.21897E+04 91656   0.148E+03
DAV:   2    -0.750040897235E+01   -0.26631E+03   -0.25706E+03107226   0.305E+02
DAV:   3    -0.127080209996E+02   -0.52076E+01   -0.51604E+01102267   0.436E+01
DAV:   4    -0.127449758855E+02   -0.36955E-01   -0.36930E-01103095   0.393E+00
DAV:   5    -0.127453973833E+02   -0.42150E-03   -0.42146E-03107460   0.424E-01    0.866E+00
RMM:   6    -0.118835558984E+02    0.86184E+00   -0.27618E+00 91172   0.104E+01    0.649E+00
RMM:   7    -0.118649661969E+02    0.18590E-01   -0.13409E-01 91308   0.207E+00    0.401E+00
RMM:   8    -0.118630005105E+02    0.19657E-02   -0.60795E-03 91216   0.543E-01    0.386E-01
RMM:   9    -0.118627896141E+02    0.21090E-03   -0.73068E-04 91227   0.157E-01    0.391E-02
RMM:  10    -0.118628307618E+02   -0.41148E-04   -0.65754E-05 91241   0.564E-02    0.569E-03
RMM:  11    -0.118628306347E+02    0.12707E-06   -0.25570E-06 53391   0.883E-03
   1 F= -.11862831E+02 E0= -.11859620E+02  d E =-.118628E+02
 curvature:   0.00 expect dE= 0.000E+00 dE for cont linesearch  0.000E+00
 trial: gam= 0.00000 g(F)=  0.204E-13 g(S)=  0.000E+00 ort = 0.000E+00 (trialstep = 0.100E+01)
 search vector abs. value=  0.100E-09
 reached required accuracy - stopping structural energy minimisation
