   4   4   0   0
  0.1695269E+02  0.4040137E-09  0.4040137E-09  0.4154382E-09  0.2000000E-15
  1.000000000000000E-004
  CAR 
 unknown system                          
     20.33404597     -1.34909047  301      9.59970011      1.00000000
     -1.349  0.0000E+00  0.0000E+00
     -1.277  0.0000E+00  0.0000E+00
     -1.205  0.0000E+00  0.0000E+00
     -1.132  0.0000E+00  0.0000E+00
     -1.060  0.0000E+00  0.0000E+00
     -0.988  0.0000E+00  0.0000E+00
     -0.915  0.4551E-19  0.3290E-20
     -0.843  0.1178E-15  0.8516E-17
     -0.771  0.1053E-12  0.7619E-14
     -0.699  0.3483E-10  0.2525E-11
     -0.626  0.4401E-08  0.3206E-09
     -0.554  0.2232E-06  0.1645E-07
     -0.482  0.4861E-05  0.3678E-06
     -0.409  0.4890E-04  0.3902E-05
     -0.337  0.2418E-03  0.2138E-04
     -0.265  0.6264E-03  0.6665E-04
     -0.193  0.9942E-03  0.1385E-03
     -0.120  0.1374E-02  0.2379E-03
     -0.048  0.1761E-02  0.3652E-03
      0.024  0.1745E-02  0.4913E-03
      0.096  0.1950E-02  0.6322E-03
      0.169  0.2472E-02  0.8109E-03
      0.241  0.2584E-02  0.9976E-03
      0.313  0.2684E-02  0.1192E-02
      0.386  0.2775E-02  0.1392E-02
      0.458  0.2664E-02  0.1585E-02
      0.530  0.3286E-02  0.1822E-02
      0.602  0.3881E-02  0.2103E-02
      0.675  0.3939E-02  0.2387E-02
      0.747  0.3544E-02  0.2644E-02
      0.819  0.3124E-02  0.2869E-02
      0.892  0.4006E-02  0.3159E-02
      0.964  0.5045E-02  0.3524E-02
      1.036  0.5083E-02  0.3891E-02
      1.108  0.4636E-02  0.4226E-02
      1.181  0.4590E-02  0.4558E-02
      1.253  0.5232E-02  0.4936E-02
      1.325  0.5607E-02  0.5341E-02
      1.397  0.5530E-02  0.5741E-02
      1.470  0.5699E-02  0.6153E-02
      1.542  0.6699E-02  0.6637E-02
      1.614  0.7746E-02  0.7197E-02
      1.687  0.7433E-02  0.7734E-02
      1.759  0.6895E-02  0.8233E-02
      1.831  0.6958E-02  0.8736E-02
      1.903  0.8475E-02  0.9348E-02
      1.976  0.1108E-01  0.1015E-01
      2.048  0.1178E-01  0.1100E-01
      2.120  0.1172E-01  0.1185E-01
      2.192  0.1569E-01  0.1298E-01
      2.265  0.2213E-01  0.1458E-01
      2.337  0.2603E-01  0.1646E-01
      2.409  0.2721E-01  0.1843E-01
      2.482  0.2853E-01  0.2049E-01
      2.554  0.3358E-01  0.2292E-01
      2.626  0.4005E-01  0.2581E-01
      2.698  0.4557E-01  0.2911E-01
      2.771  0.5079E-01  0.3278E-01
      2.843  0.5657E-01  0.3687E-01
      2.915  0.6490E-01  0.4156E-01
      2.988  0.7163E-01  0.4673E-01
      3.060  0.7400E-01  0.5208E-01
      3.132  0.7386E-01  0.5742E-01
      3.204  0.7338E-01  0.6272E-01
      3.277  0.7134E-01  0.6788E-01
      3.349  0.6644E-01  0.7268E-01
      3.421  0.6581E-01  0.7744E-01
      3.493  0.6629E-01  0.8223E-01
      3.566  0.6249E-01  0.8675E-01
      3.638  0.5982E-01  0.9107E-01
      3.710  0.5563E-01  0.9509E-01
      3.783  0.4851E-01  0.9860E-01
      3.855  0.4850E-01  0.1021E+00
      3.927  0.5412E-01  0.1060E+00
      3.999  0.5928E-01  0.1103E+00
      4.072  0.6469E-01  0.1150E+00
      4.144  0.7205E-01  0.1202E+00
      4.216  0.7632E-01  0.1257E+00
      4.289  0.7796E-01  0.1313E+00
      4.361  0.7750E-01  0.1369E+00
      4.433  0.7518E-01  0.1424E+00
      4.505  0.7848E-01  0.1480E+00
      4.578  0.8275E-01  0.1540E+00
      4.650  0.8465E-01  0.1601E+00
      4.722  0.8437E-01  0.1662E+00
      4.794  0.8173E-01  0.1721E+00
      4.867  0.8326E-01  0.1782E+00
      4.939  0.9598E-01  0.1851E+00
      5.011  0.1123E+00  0.1932E+00
      5.084  0.1197E+00  0.2019E+00
      5.156  0.1186E+00  0.2104E+00
      5.228  0.1132E+00  0.2186E+00
      5.300  0.1044E+00  0.2262E+00
      5.373  0.9038E-01  0.2327E+00
      5.445  0.7833E-01  0.2384E+00
      5.517  0.7079E-01  0.2435E+00
      5.590  0.6625E-01  0.2483E+00
      5.662  0.6504E-01  0.2530E+00
      5.734  0.6394E-01  0.2576E+00
      5.806  0.6470E-01  0.2623E+00
      5.879  0.6737E-01  0.2671E+00
      5.951  0.7316E-01  0.2724E+00
      6.023  0.7980E-01  0.2782E+00
      6.095  0.7995E-01  0.2840E+00
      6.168  0.8065E-01  0.2898E+00
      6.240  0.8583E-01  0.2960E+00
      6.312  0.8547E-01  0.3022E+00
      6.385  0.7707E-01  0.3077E+00
      6.457  0.7143E-01  0.3129E+00
      6.529  0.7338E-01  0.3182E+00
      6.601  0.7420E-01  0.3236E+00
      6.674  0.7010E-01  0.3286E+00
      6.746  0.6290E-01  0.3332E+00
      6.818  0.5918E-01  0.3375E+00
      6.891  0.6325E-01  0.3420E+00
      6.963  0.6896E-01  0.3470E+00
      7.035  0.6867E-01  0.3520E+00
      7.107  0.6377E-01  0.3566E+00
      7.180  0.6801E-01  0.3615E+00
      7.252  0.7758E-01  0.3671E+00
      7.324  0.8122E-01  0.3730E+00
      7.396  0.8911E-01  0.3794E+00
      7.469  0.1078E+00  0.3872E+00
      7.541  0.1175E+00  0.3957E+00
      7.613  0.1060E+00  0.4034E+00
      7.686  0.8218E-01  0.4093E+00
      7.758  0.5964E-01  0.4136E+00
      7.830  0.4599E-01  0.4169E+00
      7.902  0.3731E-01  0.4196E+00
      7.975  0.2850E-01  0.4217E+00
      8.047  0.1705E-01  0.4229E+00
      8.119  0.8605E-02  0.4236E+00
      8.191  0.7027E-02  0.4241E+00
      8.264  0.9871E-02  0.4248E+00
      8.336  0.1362E-01  0.4258E+00
      8.408  0.1431E-01  0.4268E+00
      8.481  0.1196E-01  0.4277E+00
      8.553  0.9702E-02  0.4284E+00
      8.625  0.9188E-02  0.4290E+00
      8.697  0.1095E-01  0.4298E+00
      8.770  0.1264E-01  0.4307E+00
      8.842  0.1236E-01  0.4316E+00
      8.914  0.1163E-01  0.4325E+00
      8.987  0.1156E-01  0.4333E+00
      9.059  0.1075E-01  0.4341E+00
      9.131  0.9898E-02  0.4348E+00
      9.203  0.1083E-01  0.4356E+00
      9.276  0.1201E-01  0.4364E+00
      9.348  0.1179E-01  0.4373E+00
      9.420  0.1110E-01  0.4381E+00
      9.492  0.1075E-01  0.4389E+00
      9.565  0.1046E-01  0.4396E+00
      9.637  0.1081E-01  0.4404E+00
      9.709  0.1190E-01  0.4413E+00
      9.782  0.1231E-01  0.4422E+00
      9.854  0.1229E-01  0.4431E+00
      9.926  0.1202E-01  0.4439E+00
      9.998  0.1096E-01  0.4447E+00
     10.071  0.1003E-01  0.4454E+00
     10.143  0.9126E-02  0.4461E+00
     10.215  0.9363E-02  0.4468E+00
     10.288  0.1082E-01  0.4476E+00
     10.360  0.1200E-01  0.4484E+00
     10.432  0.1265E-01  0.4493E+00
     10.504  0.1202E-01  0.4502E+00
     10.577  0.1125E-01  0.4510E+00
     10.649  0.1104E-01  0.4518E+00
     10.721  0.1122E-01  0.4526E+00
     10.793  0.1137E-01  0.4534E+00
     10.866  0.1061E-01  0.4542E+00
     10.938  0.1008E-01  0.4549E+00
     11.010  0.1021E-01  0.4557E+00
     11.083  0.1018E-01  0.4564E+00
     11.155  0.9960E-02  0.4571E+00
     11.227  0.1039E-01  0.4579E+00
     11.299  0.1134E-01  0.4587E+00
     11.372  0.1155E-01  0.4595E+00
     11.444  0.1097E-01  0.4603E+00
     11.516  0.1050E-01  0.4611E+00
     11.589  0.1015E-01  0.4618E+00
     11.661  0.9656E-02  0.4625E+00
     11.733  0.9301E-02  0.4632E+00
     11.805  0.9767E-02  0.4639E+00
     11.878  0.1106E-01  0.4647E+00
     11.950  0.1061E-01  0.4655E+00
     12.022  0.8849E-02  0.4661E+00
     12.094  0.8161E-02  0.4667E+00
     12.167  0.8542E-02  0.4673E+00
     12.239  0.9130E-02  0.4680E+00
     12.311  0.1021E-01  0.4687E+00
     12.384  0.1054E-01  0.4695E+00
     12.456  0.9462E-02  0.4702E+00
     12.528  0.9076E-02  0.4708E+00
     12.600  0.1189E-01  0.4717E+00
     12.673  0.1773E-01  0.4730E+00
     12.745  0.2114E-01  0.4745E+00
     12.817  0.1933E-01  0.4759E+00
     12.890  0.1496E-01  0.4770E+00
     12.962  0.1214E-01  0.4778E+00
     13.034  0.1309E-01  0.4788E+00
     13.106  0.1543E-01  0.4799E+00
     13.179  0.1528E-01  0.4810E+00
     13.251  0.1314E-01  0.4820E+00
     13.323  0.1215E-01  0.4828E+00
     13.395  0.1106E-01  0.4836E+00
     13.468  0.8783E-02  0.4843E+00
     13.540  0.8500E-02  0.4849E+00
     13.612  0.1149E-01  0.4857E+00
     13.685  0.1315E-01  0.4867E+00
     13.757  0.1176E-01  0.4875E+00
     13.829  0.1133E-01  0.4883E+00
     13.901  0.1136E-01  0.4892E+00
     13.974  0.1001E-01  0.4899E+00
     14.046  0.8349E-02  0.4905E+00
     14.118  0.8166E-02  0.4911E+00
     14.190  0.1048E-01  0.4918E+00
     14.263  0.1284E-01  0.4928E+00
     14.335  0.1382E-01  0.4938E+00
     14.407  0.1350E-01  0.4947E+00
     14.480  0.1317E-01  0.4957E+00
     14.552  0.1352E-01  0.4967E+00
     14.624  0.1297E-01  0.4976E+00
     14.696  0.1214E-01  0.4985E+00
     14.769  0.1222E-01  0.4994E+00
     14.841  0.1295E-01  0.5003E+00
     14.913  0.1287E-01  0.5012E+00
     14.986  0.1268E-01  0.5021E+00
     15.058  0.1303E-01  0.5031E+00
     15.130  0.1404E-01  0.5041E+00
     15.202  0.1509E-01  0.5052E+00
     15.275  0.1548E-01  0.5063E+00
     15.347  0.1592E-01  0.5075E+00
     15.419  0.1424E-01  0.5085E+00
     15.491  0.1226E-01  0.5094E+00
     15.564  0.1216E-01  0.5103E+00
     15.636  0.1227E-01  0.5111E+00
     15.708  0.1116E-01  0.5119E+00
     15.781  0.9313E-02  0.5126E+00
     15.853  0.9017E-02  0.5133E+00
     15.925  0.1064E-01  0.5140E+00
     15.997  0.1246E-01  0.5149E+00
     16.070  0.1342E-01  0.5159E+00
     16.142  0.1173E-01  0.5168E+00
     16.214  0.9895E-02  0.5175E+00
     16.287  0.9825E-02  0.5182E+00
     16.359  0.9771E-02  0.5189E+00
     16.431  0.9484E-02  0.5196E+00
     16.503  0.1067E-01  0.5203E+00
     16.576  0.1254E-01  0.5213E+00
     16.648  0.1131E-01  0.5221E+00
     16.720  0.8455E-02  0.5227E+00
     16.792  0.7203E-02  0.5232E+00
     16.865  0.8091E-02  0.5238E+00
     16.937  0.1030E-01  0.5245E+00
     17.009  0.1266E-01  0.5255E+00
     17.082  0.1286E-01  0.5264E+00
     17.154  0.1190E-01  0.5272E+00
     17.226  0.1296E-01  0.5282E+00
     17.298  0.1337E-01  0.5291E+00
     17.371  0.1084E-01  0.5299E+00
     17.443  0.8580E-02  0.5305E+00
     17.515  0.7928E-02  0.5311E+00
     17.588  0.8355E-02  0.5317E+00
     17.660  0.9866E-02  0.5324E+00
     17.732  0.1146E-01  0.5333E+00
     17.804  0.1214E-01  0.5341E+00
     17.877  0.1157E-01  0.5350E+00
     17.949  0.9550E-02  0.5357E+00
     18.021  0.7484E-02  0.5362E+00
     18.093  0.6244E-02  0.5367E+00
     18.166  0.4837E-02  0.5370E+00
     18.238  0.4465E-02  0.5373E+00
     18.310  0.6358E-02  0.5378E+00
     18.383  0.6574E-02  0.5383E+00
     18.455  0.3650E-02  0.5385E+00
     18.527  0.1653E-02  0.5387E+00
     18.599  0.1589E-02  0.5388E+00
     18.672  0.2121E-02  0.5389E+00
     18.744  0.2537E-02  0.5391E+00
     18.816  0.3023E-02  0.5393E+00
     18.889  0.2978E-02  0.5395E+00
     18.961  0.1959E-02  0.5397E+00
     19.033  0.1034E-02  0.5398E+00
     19.105  0.6373E-03  0.5398E+00
     19.178  0.5677E-03  0.5398E+00
     19.250  0.7733E-03  0.5399E+00
     19.322  0.8077E-03  0.5400E+00
     19.394  0.4761E-03  0.5400E+00
     19.467  0.1350E-03  0.5400E+00
     19.539  0.1641E-04  0.5400E+00
     19.611  0.8053E-06  0.5400E+00
     19.684  0.1546E-07  0.5400E+00
     19.756  0.1137E-09  0.5400E+00
     19.828  0.3155E-12  0.5400E+00
     19.900  0.3254E-15  0.5400E+00
     19.973  0.1092E-18  0.5400E+00
     20.045  0.0000E+00  0.5400E+00
     20.117  0.0000E+00  0.5400E+00
     20.189  0.0000E+00  0.5400E+00
     20.262  0.0000E+00  0.5400E+00
     20.334  0.0000E+00  0.5400E+00
