 running on   24 total cores
 distrk:  each k-point on   24 cores,    1 groups
 distr:  one band on    8 cores,    3 groups
 using from now: INCAR     
 vasp.5.4.4.18Apr17-6-g9f103f2a35 (build Jan 14 2019 14:48:31) complex          
  
 POSCAR found type information on POSCAR  Au
 POSCAR found :  1 types and       4 ions
 scaLAPACK will be used
 LDA part: xc-table for Pade appr. of Perdew
 POSCAR found type information on POSCAR  Au
 POSCAR found :  1 types and       4 ions
 POSCAR, INCAR and KPOINTS ok, starting setup
 FFT: planning ...
 WAVECAR not read
 entering main loop
       N       E                     dE             d eps       ncg     rms          rms(c)
DAV:   1     0.279408308727E+03    0.27941E+03   -0.22772E+04 91926   0.153E+03
DAV:   2    -0.881643982336E+01   -0.28822E+03   -0.28064E+03104922   0.333E+02
DAV:   3    -0.138114099700E+02   -0.49950E+01   -0.49656E+01101601   0.464E+01
DAV:   4    -0.138394060379E+02   -0.27996E-01   -0.27983E-01105507   0.358E+00
DAV:   5    -0.138396562615E+02   -0.25022E-03   -0.25022E-03106830   0.355E-01    0.191E+01
RMM:   6    -0.128562456085E+02    0.98341E+00   -0.23895E+00 91152   0.103E+01    0.121E+01
RMM:   7    -0.127814067853E+02    0.74839E-01   -0.39886E-01 91192   0.405E+00    0.478E+00
RMM:   8    -0.127702200721E+02    0.11187E-01   -0.24536E-02 91172   0.104E+00    0.575E-01
RMM:   9    -0.127701145587E+02    0.10551E-03   -0.20105E-04 91232   0.781E-02    0.466E-02
RMM:  10    -0.127701247829E+02   -0.10224E-04   -0.13501E-05 90583   0.300E-02    0.429E-02
RMM:  11    -0.127701276191E+02   -0.28362E-05   -0.56407E-07 49990   0.467E-03    0.851E-04
RMM:  12    -0.127701275617E+02    0.57449E-07   -0.10767E-07 39656   0.215E-03
   1 F= -.12770128E+02 E0= -.12767439E+02  d E =-.127701E+02
 curvature:   0.00 expect dE= 0.000E+00 dE for cont linesearch  0.000E+00
 trial: gam= 0.00000 g(F)=  0.328E-13 g(S)=  0.000E+00 ort = 0.000E+00 (trialstep = 0.100E+01)
 search vector abs. value=  0.100E-09
 reached required accuracy - stopping structural energy minimisation
