   2   2   0   0
  0.8043005E+02  0.2476647E-09  0.2476647E-09  0.3028239E-08  0.5000000E-15
  1.000000000000000E-004
  CAR 
 unknown system                          
     17.49330385    -24.49809898  301     -3.62487249      1.00000000
    -24.498  0.0000E+00  0.0000E+00
    -24.358  0.0000E+00  0.0000E+00
    -24.218  0.0000E+00  0.0000E+00
    -24.078  0.0000E+00  0.0000E+00
    -23.938  0.0000E+00  0.0000E+00
    -23.798  0.0000E+00  0.0000E+00
    -23.658  0.0000E+00  0.0000E+00
    -23.518  0.0000E+00  0.0000E+00
    -23.378  0.0000E+00  0.0000E+00
    -23.238  0.0000E+00  0.0000E+00
    -23.098  0.0000E+00  0.0000E+00
    -22.958  0.0000E+00  0.0000E+00
    -22.818  0.9202E-13  0.1288E-13
    -22.678  0.1167E-04  0.1633E-05
    -22.539  0.2211E-02  0.3110E-03
    -22.399  0.2012E-02  0.5927E-03
    -22.259  0.4802E-02  0.1265E-02
    -22.119  0.2176E-02  0.1569E-02
    -21.979  0.2680E-02  0.1945E-02
    -21.839  0.3079E-02  0.2375E-02
    -21.699  0.4838E-02  0.3053E-02
    -21.559  0.2472E-02  0.3399E-02
    -21.419  0.2002E-02  0.3679E-02
    -21.279  0.3475E-02  0.4165E-02
    -21.139  0.1988E-02  0.4443E-02
    -20.999  0.5779E-02  0.5252E-02
    -20.859  0.3622E-02  0.5759E-02
    -20.719  0.8145E-03  0.5873E-02
    -20.579  0.5603E-02  0.6658E-02
    -20.439  0.7842E-04  0.6669E-02
    -20.299  0.3545E-02  0.7165E-02
    -20.159  0.3827E-02  0.7700E-02
    -20.019  0.4607E-02  0.8345E-02
    -19.879  0.3801E-02  0.8877E-02
    -19.739  0.1136E-02  0.9036E-02
    -19.599  0.4661E-02  0.9689E-02
    -19.459  0.3428E-02  0.1017E-01
    -19.319  0.2751E-02  0.1055E-01
    -19.179  0.1293E-04  0.1056E-01
    -19.039  0.2737E-02  0.1094E-01
    -18.899  0.8860E-02  0.1218E-01
    -18.759  0.3727E-02  0.1270E-01
    -18.619  0.9468E-03  0.1283E-01
    -18.479  0.3560E-02  0.1333E-01
    -18.339  0.2611E-02  0.1370E-01
    -18.199  0.5307E-02  0.1444E-01
    -18.059  0.2178E-02  0.1474E-01
    -17.919  0.3252E-02  0.1520E-01
    -17.779  0.5846E-03  0.1528E-01
    -17.640  0.5330E-02  0.1603E-01
    -17.500  0.8874E-02  0.1727E-01
    -17.360  0.4813E-02  0.1794E-01
    -17.220  0.2786E-02  0.1833E-01
    -17.080  0.2232E-04  0.1834E-01
    -16.940  0.4273E-02  0.1893E-01
    -16.800  0.1658E-02  0.1917E-01
    -16.660  0.6291E-07  0.1917E-01
    -16.520  0.7200E-03  0.1927E-01
    -16.380  0.1699E-02  0.1951E-01
    -16.240  0.5253E-02  0.2024E-01
    -16.100  0.4162E-02  0.2082E-01
    -15.960  0.2801E-02  0.2122E-01
    -15.820  0.2302E-02  0.2154E-01
    -15.680  0.1254E-02  0.2171E-01
    -15.540  0.5589E-02  0.2250E-01
    -15.400  0.5687E-02  0.2329E-01
    -15.260  0.6269E-02  0.2417E-01
    -15.120  0.3706E-02  0.2469E-01
    -14.980  0.2544E-03  0.2472E-01
    -14.840  0.5130E-02  0.2544E-01
    -14.700  0.4785E-02  0.2611E-01
    -14.560  0.3760E-05  0.2611E-01
    -14.420  0.1208E-02  0.2628E-01
    -14.280  0.6914E-02  0.2725E-01
    -14.140  0.3746E-02  0.2777E-01
    -14.000  0.2482E-02  0.2812E-01
    -13.860  0.2933E-02  0.2853E-01
    -13.720  0.6052E-03  0.2861E-01
    -13.580  0.3670E-02  0.2913E-01
    -13.440  0.1763E-02  0.2938E-01
    -13.300  0.5868E-02  0.3020E-01
    -13.160  0.7325E-02  0.3122E-01
    -13.020  0.3177E-02  0.3167E-01
    -12.880  0.1162E-02  0.3183E-01
    -12.741  0.3768E-02  0.3236E-01
    -12.601  0.1705E-02  0.3260E-01
    -12.461  0.3528E-02  0.3309E-01
    -12.321  0.1928E-02  0.3336E-01
    -12.181  0.7357E-02  0.3439E-01
    -12.041  0.6160E-02  0.3525E-01
    -11.901  0.2197E-02  0.3556E-01
    -11.761  0.6754E-02  0.3650E-01
    -11.621  0.3144E-02  0.3694E-01
    -11.481  0.4679E-03  0.3701E-01
    -11.341  0.6250E-02  0.3788E-01
    -11.201  0.4390E-02  0.3850E-01
    -11.061  0.4839E-02  0.3918E-01
    -10.921  0.4191E-02  0.3976E-01
    -10.781  0.1731E-02  0.4001E-01
    -10.641  0.8841E-02  0.4124E-01
    -10.501  0.7156E-02  0.4224E-01
    -10.361  0.7294E-02  0.4327E-01
    -10.221  0.7493E-02  0.4431E-01
    -10.081  0.1457E-01  0.4635E-01
     -9.941  0.5182E-02  0.4708E-01
     -9.801  0.7794E-02  0.4817E-01
     -9.661  0.1042E-01  0.4963E-01
     -9.521  0.8898E-02  0.5087E-01
     -9.381  0.1502E-01  0.5298E-01
     -9.241  0.7049E-02  0.5396E-01
     -9.101  0.4128E-02  0.5454E-01
     -8.961  0.8100E-02  0.5568E-01
     -8.821  0.1095E-01  0.5721E-01
     -8.681  0.1044E-01  0.5867E-01
     -8.541  0.7004E-02  0.5965E-01
     -8.401  0.5413E-02  0.6041E-01
     -8.261  0.3032E-02  0.6083E-01
     -8.121  0.6292E-02  0.6171E-01
     -7.981  0.5623E-02  0.6250E-01
     -7.842  0.4934E-02  0.6319E-01
     -7.702  0.1175E-01  0.6484E-01
     -7.562  0.7046E-02  0.6582E-01
     -7.422  0.9257E-03  0.6595E-01
     -7.282  0.9142E-02  0.6723E-01
     -7.142  0.5090E-02  0.6794E-01
     -7.002  0.4994E-02  0.6864E-01
     -6.862  0.3572E-02  0.6914E-01
     -6.722  0.4291E-02  0.6974E-01
     -6.582  0.7114E-02  0.7074E-01
     -6.442  0.8296E-02  0.7190E-01
     -6.302  0.6263E-02  0.7278E-01
     -6.162  0.3886E-02  0.7332E-01
     -6.022  0.1927E-02  0.7359E-01
     -5.882  0.4431E-02  0.7421E-01
     -5.742  0.5333E-02  0.7496E-01
     -5.602  0.2965E-02  0.7537E-01
     -5.462  0.3330E-02  0.7584E-01
     -5.322  0.2276E-02  0.7616E-01
     -5.182  0.1247E-01  0.7790E-01
     -5.042  0.3071E-02  0.7833E-01
     -4.902  0.3481E-07  0.7833E-01
     -4.762  0.1273E-03  0.7835E-01
     -4.622  0.3772E-02  0.7888E-01
     -4.482  0.1284E-02  0.7906E-01
     -4.342  0.7704E-03  0.7917E-01
     -4.202  0.1290E-02  0.7935E-01
     -4.062  0.6944E-03  0.7944E-01
     -3.922  0.3088E-03  0.7949E-01
     -3.782  0.3638E-02  0.8000E-01
     -3.642  0.2206E-04  0.8000E-01
     -3.502  0.1615E-12  0.8000E-01
     -3.362  0.0000E+00  0.8000E-01
     -3.222  0.0000E+00  0.8000E-01
     -3.082  0.0000E+00  0.8000E-01
     -2.943  0.0000E+00  0.8000E-01
     -2.803  0.2410E-14  0.8000E-01
     -2.663  0.3299E-05  0.8000E-01
     -2.523  0.3141E-02  0.8044E-01
     -2.383  0.8254E-03  0.8056E-01
     -2.243  0.1450E-02  0.8076E-01
     -2.103  0.5335E-03  0.8083E-01
     -1.963  0.3750E-03  0.8089E-01
     -1.823  0.5314E-02  0.8163E-01
     -1.683  0.2674E-03  0.8167E-01
     -1.543  0.4335E-02  0.8227E-01
     -1.403  0.8973E-02  0.8353E-01
     -1.263  0.4764E-02  0.8420E-01
     -1.123  0.5717E-02  0.8500E-01
     -0.983  0.2339E-02  0.8532E-01
     -0.843  0.5207E-02  0.8605E-01
     -0.703  0.4148E-03  0.8611E-01
     -0.563  0.2943E-03  0.8615E-01
     -0.423  0.7526E-02  0.8721E-01
     -0.283  0.1183E-03  0.8722E-01
     -0.143  0.8711E-03  0.8734E-01
     -0.003  0.4257E-02  0.8794E-01
      0.137  0.3649E-02  0.8845E-01
      0.277  0.6404E-02  0.8935E-01
      0.417  0.4052E-02  0.8991E-01
      0.557  0.6019E-02  0.9076E-01
      0.697  0.2530E-02  0.9111E-01
      0.837  0.3346E-02  0.9158E-01
      0.977  0.6691E-02  0.9252E-01
      1.117  0.6960E-02  0.9349E-01
      1.257  0.1113E-01  0.9505E-01
      1.397  0.7573E-02  0.9611E-01
      1.537  0.1026E-01  0.9754E-01
      1.677  0.1308E-01  0.9937E-01
      1.817  0.1035E-01  0.1008E+00
      1.956  0.1300E-01  0.1026E+00
      2.096  0.1154E-01  0.1043E+00
      2.236  0.2187E-01  0.1073E+00
      2.376  0.1443E-01  0.1093E+00
      2.516  0.1200E-01  0.1110E+00
      2.656  0.1655E-01  0.1133E+00
      2.796  0.1637E-01  0.1156E+00
      2.936  0.1683E-01  0.1180E+00
      3.076  0.1808E-01  0.1205E+00
      3.216  0.1524E-01  0.1226E+00
      3.356  0.1681E-01  0.1250E+00
      3.496  0.1756E-01  0.1275E+00
      3.636  0.2314E-01  0.1307E+00
      3.776  0.1906E-01  0.1334E+00
      3.916  0.2259E-01  0.1365E+00
      4.056  0.2247E-01  0.1397E+00
      4.196  0.1788E-01  0.1422E+00
      4.336  0.3426E-01  0.1470E+00
      4.476  0.2390E-01  0.1503E+00
      4.616  0.2996E-01  0.1545E+00
      4.756  0.2470E-01  0.1580E+00
      4.896  0.2580E-01  0.1616E+00
      5.036  0.3588E-01  0.1666E+00
      5.176  0.3743E-01  0.1718E+00
      5.316  0.3331E-01  0.1765E+00
      5.456  0.2327E-01  0.1798E+00
      5.596  0.3471E-01  0.1846E+00
      5.736  0.3028E-01  0.1889E+00
      5.876  0.3422E-01  0.1936E+00
      6.016  0.3349E-01  0.1983E+00
      6.156  0.3176E-01  0.2028E+00
      6.296  0.3670E-01  0.2079E+00
      6.436  0.1792E-01  0.2104E+00
      6.576  0.2609E-01  0.2141E+00
      6.716  0.3682E-01  0.2192E+00
      6.855  0.2870E-01  0.2233E+00
      6.995  0.2893E-01  0.2273E+00
      7.135  0.3043E-01  0.2316E+00
      7.275  0.3130E-01  0.2359E+00
      7.415  0.3906E-01  0.2414E+00
      7.555  0.3078E-01  0.2457E+00
      7.695  0.4564E-01  0.2521E+00
      7.835  0.3411E-01  0.2569E+00
      7.975  0.4317E-01  0.2629E+00
      8.115  0.2796E-01  0.2668E+00
      8.255  0.2987E-01  0.2710E+00
      8.395  0.2987E-01  0.2752E+00
      8.535  0.2553E-01  0.2788E+00
      8.675  0.3451E-01  0.2836E+00
      8.815  0.4004E-01  0.2892E+00
      8.955  0.3661E-01  0.2943E+00
      9.095  0.4616E-01  0.3008E+00
      9.235  0.3863E-01  0.3062E+00
      9.375  0.2805E-01  0.3101E+00
      9.515  0.3077E-01  0.3144E+00
      9.655  0.3976E-01  0.3200E+00
      9.795  0.4592E-01  0.3264E+00
      9.935  0.3590E-01  0.3315E+00
     10.075  0.5191E-01  0.3387E+00
     10.215  0.3362E-01  0.3434E+00
     10.355  0.3824E-01  0.3488E+00
     10.495  0.2784E-01  0.3527E+00
     10.635  0.3452E-01  0.3575E+00
     10.775  0.4306E-01  0.3635E+00
     10.915  0.3528E-01  0.3685E+00
     11.055  0.6189E-01  0.3771E+00
     11.195  0.3241E-01  0.3817E+00
     11.335  0.3512E-01  0.3866E+00
     11.475  0.4244E-01  0.3925E+00
     11.615  0.3170E-01  0.3970E+00
     11.754  0.3348E-01  0.4017E+00
     11.894  0.2803E-01  0.4056E+00
     12.034  0.4840E-01  0.4124E+00
     12.174  0.2913E-01  0.4164E+00
     12.314  0.3383E-01  0.4212E+00
     12.454  0.4330E-01  0.4272E+00
     12.594  0.4307E-01  0.4333E+00
     12.734  0.3645E-01  0.4384E+00
     12.874  0.2536E-01  0.4419E+00
     13.014  0.2746E-01  0.4457E+00
     13.154  0.2957E-01  0.4499E+00
     13.294  0.2705E-01  0.4537E+00
     13.434  0.2530E-01  0.4572E+00
     13.574  0.2000E-01  0.4600E+00
     13.714  0.2152E-01  0.4630E+00
     13.854  0.2990E-01  0.4672E+00
     13.994  0.2118E-01  0.4702E+00
     14.134  0.1874E-01  0.4728E+00
     14.274  0.1033E-01  0.4742E+00
     14.414  0.1135E-01  0.4758E+00
     14.554  0.4395E-02  0.4764E+00
     14.694  0.1146E-01  0.4781E+00
     14.834  0.3988E-02  0.4786E+00
     14.974  0.3497E-02  0.4791E+00
     15.114  0.5332E-03  0.4792E+00
     15.254  0.3756E-02  0.4797E+00
     15.394  0.1599E-03  0.4797E+00
     15.534  0.1488E-03  0.4797E+00
     15.674  0.1824E-02  0.4800E+00
     15.814  0.1167E-04  0.4800E+00
     15.954  0.9202E-13  0.4800E+00
     16.094  0.0000E+00  0.4800E+00
     16.234  0.0000E+00  0.4800E+00
     16.374  0.0000E+00  0.4800E+00
     16.514  0.0000E+00  0.4800E+00
     16.653  0.0000E+00  0.4800E+00
     16.793  0.0000E+00  0.4800E+00
     16.933  0.0000E+00  0.4800E+00
     17.073  0.0000E+00  0.4800E+00
     17.213  0.0000E+00  0.4800E+00
     17.353  0.0000E+00  0.4800E+00
     17.493  0.0000E+00  0.4800E+00
