    2    2  100    1
  0.8043005E+02  0.2476647E-09  0.2476647E-09  0.3028239E-08  0.5000000E-15
  1.000000000000000E-004
  CAR 
 unknown system                          
      8     42     24
 
  0.4166667E-01  0.4166667E-01  0.0000000E+00  0.1388889E-01
    1      -22.508074   1.000000
    2      -10.592370   1.000000
    3       -6.754101   1.000000
    4       -6.534732   1.000000
    5        0.259929   0.000000
    6        1.023153   0.000000
    7        1.244950   0.000000
    8        1.557733   0.000000
    9        1.764857   0.000000
   10        2.411177   0.000000
   11        2.711554   0.000000
   12        3.660175   0.000000
   13        4.012877   0.000000
   14        5.096144   0.000000
   15        5.256256   0.000000
   16        5.506976   0.000000
   17        5.680951   0.000000
   18        7.195466   0.000000
   19        7.650969   0.000000
   20        7.696500   0.000000
   21        9.228608   0.000000
   22        9.474649   0.000000
   23       10.064275   0.000000
   24       12.086468   0.000000
 
  0.1250000E+00  0.4166667E-01  0.0000000E+00  0.2777778E-01
    1      -22.102543   1.000000
    2      -10.111005   1.000000
    3       -8.128751   1.000000
    4       -7.269858   1.000000
    5        0.811947   0.000000
    6        1.582739   0.000000
    7        1.812229   0.000000
    8        2.122311   0.000000
    9        2.330252   0.000000
   10        2.974045   0.000000
   11        3.274280   0.000000
   12        4.220501   0.000000
   13        4.567720   0.000000
   14        5.189834   0.000000
   15        5.812082   0.000000
   16        6.244615   0.000000
   17        6.387898   0.000000
   18        6.911094   0.000000
   19        7.747905   0.000000
   20        8.257834   0.000000
   21       10.018481   0.000000
   22       10.106143   0.000000
   23       10.624096   0.000000
   24       12.615011   0.000000
 
  0.2083333E+00  0.4166667E-01  0.0000000E+00  0.2777778E-01
    1      -21.377541   1.000000
    2      -10.098099   1.000000
    3       -9.260027   1.000000
    4       -8.165046   1.000000
    5        1.804161   0.000000
    6        2.583738   0.000000
    7        2.833303   0.000000
    8        3.136012   0.000000
    9        3.347577   0.000000
   10        3.977412   0.000000
   11        4.283585   0.000000
   12        4.466115   0.000000
   13        4.967342   0.000000
   14        5.235789   0.000000
   15        5.600678   0.000000
   16        6.815731   0.000000
   17        7.249815   0.000000
   18        8.735879   0.000000
   19        9.088185   0.000000
   20        9.266943   0.000000
   21       10.982350   0.000000
   22       11.568361   0.000000
   23       11.659019   0.000000
   24       13.538588   0.000000
 
  0.2916667E+00  0.4166667E-01  0.0000000E+00  0.2777778E-01
    1      -20.343441   1.000000
    2      -12.261325   1.000000
    3       -8.948912   1.000000
    4       -8.078427   1.000000
    5        2.191486   0.000000
    6        3.229595   0.000000
    7        4.055294   0.000000
    8        4.307354   0.000000
    9        4.609145   0.000000
   10        4.625497   0.000000
   11        4.830728   0.000000
   12        5.451542   0.000000
   13        5.759462   0.000000
   14        6.682922   0.000000
   15        7.049347   0.000000
   16        8.250051   0.000000
   17        8.699683   0.000000
   18       10.137869   0.000000
   19       10.702637   0.000000
   20       11.466740   0.000000
   21       12.290780   0.000000
   22       13.029091   0.000000
   23       13.098211   0.000000
   24       14.244907   0.000000
 
  0.3750000E+00  0.4166667E-01  0.0000000E+00  0.2777778E-01
    1      -19.024484   1.000000
    2      -14.375426   1.000000
    3       -9.490386   1.000000
    4       -6.681730   1.000000
    5        0.016162   0.000000
    6        4.339611   0.000000
    7        5.114788   0.000000
    8        5.929891   0.000000
    9        6.237113   0.000000
   10        6.522638   0.000000
   11        6.740806   0.000000
   12        7.353173   0.000000
   13        7.667580   0.000000
   14        8.563084   0.000000
   15        8.947997   0.000000
   16       10.079165   0.000000
   17       10.585825   0.000000
   18       11.189828   0.000000
   19       11.689227   0.000000
   20       12.379329   0.000000
   21       12.580862   0.000000
   22       13.070556   0.000000
   23       13.341472   0.000000
   24       13.744781   0.000000
 
  0.4583333E+00  0.4166667E-01  0.0000000E+00  0.2777778E-01
    1      -17.583207   1.000000
    2      -16.173310   1.000000
    3       -9.731003   1.000000
    4       -5.568400   1.000000
    5       -1.460698   0.000000
    6        4.223849   0.000000
    7        7.361510   0.000000
    8        8.199146   0.000000
    9        8.614463   0.000000
   10        8.634480   0.000000
   11        8.873353   0.000000
   12        9.109868   0.000000
   13        9.441810   0.000000
   14        9.719887   0.000000
   15        9.979353   0.000000
   16       10.018469   0.000000
   17       10.221734   0.000000
   18       10.458997   0.000000
   19       10.808521   0.000000
   20       11.055858   0.000000
   21       11.275587   0.000000
   22       11.352329   0.000000
   23       12.011233   0.000000
   24       12.558509   0.000000
 
 -0.4583333E+00  0.4166667E-01  0.0000000E+00  0.2777778E-01
    1      -18.283413   1.000000
    2      -15.353248   1.000000
    3       -9.650280   1.000000
    4       -6.018687   1.000000
    5       -0.887359   0.000000
    6        4.265217   0.000000
    7        6.187930   0.000000
    8        7.022628   0.000000
    9        7.371301   0.000000
   10        7.646003   0.000000
   11        7.869143   0.000000
   12        8.463965   0.000000
   13        8.788127   0.000000
   14        9.641045   0.000000
   15        9.930181   0.000000
   16       10.069011   0.000000
   17       10.709560   0.000000
   18       11.247276   0.000000
   19       11.452151   0.000000
   20       11.686860   0.000000
   21       11.690973   0.000000
   22       11.912189   0.000000
   23       12.380058   0.000000
   24       12.917715   0.000000
 
 -0.3750000E+00  0.4166667E-01  0.0000000E+00  0.2777778E-01
    1      -19.716788   1.000000
    2      -13.335774   1.000000
    3       -9.254781   1.000000
    4       -7.392635   1.000000
    5        1.073477   0.000000
    6        4.082841   0.000000
    7        4.509500   0.000000
    8        4.937991   0.000000
    9        5.216427   0.000000
   10        5.509814   0.000000
   11        5.724999   0.000000
   12        6.347640   0.000000
   13        6.657203   0.000000
   14        7.571088   0.000000
   15        7.943654   0.000000
   16        9.121892   0.000000
   17        9.589609   0.000000
   18       10.965472   0.000000
   19       11.581766   0.000000
   20       11.963784   0.000000
   21       12.833765   0.000000
   22       13.639788   0.000000
   23       13.817567   0.000000
   24       13.944003   0.000000
 
 -0.2916667E+00  0.4166667E-01  0.0000000E+00  0.2777778E-01
    1      -20.898150   1.000000
    2      -11.173561   1.000000
    3       -8.706398   1.000000
    4       -8.581444   1.000000
    5        2.463731   0.000000
    6        3.152815   0.000000
    7        3.437413   0.000000
    8        3.513942   0.000000
    9        3.828871   0.000000
   10        4.024547   0.000000
   11        4.667921   0.000000
   12        4.778639   0.000000
   13        4.993676   0.000000
   14        5.903023   0.000000
   15        6.266930   0.000000
   16        7.479606   0.000000
   17        7.919367   0.000000
   18        9.387998   0.000000
   19        9.925309   0.000000
   20       10.323135   0.000000
   21       11.606370   0.000000
   22       12.270703   0.000000
   23       12.419565   0.000000
   24       14.027182   0.000000
 
 -0.2083333E+00  0.4166667E-01  0.0000000E+00  0.2777778E-01
    1      -21.779499   1.000000
    2       -9.730121   1.000000
    3       -9.068214   1.000000
    4       -7.718738   1.000000
    5        1.253248   0.000000
    6        2.029215   0.000000
    7        2.266045   0.000000
    8        2.573562   0.000000
    9        2.782497   0.000000
   10        3.423465   0.000000
   11        3.723977   0.000000
   12        4.665973   0.000000
   13        4.974204   0.000000
   14        5.161946   0.000000
   15        5.484526   0.000000
   16        6.261560   0.000000
   17        6.691580   0.000000
   18        7.932256   0.000000
   19        8.188153   0.000000
   20        8.705139   0.000000
   21       10.449757   0.000000
   22       10.803393   0.000000
   23       11.073004   0.000000
   24       13.025993   0.000000
 
 -0.1250000E+00  0.4166667E-01  0.0000000E+00  0.2777778E-01
    1      -22.345636   1.000000
    2      -10.399170   1.000000
    3       -7.335813   1.000000
    4       -6.858020   1.000000
    5        0.480753   0.000000
    6        1.247134   0.000000
    7        1.471860   0.000000
    8        1.783609   0.000000
    9        1.991011   0.000000
   10        2.636417   0.000000
   11        2.936669   0.000000
   12        3.884477   0.000000
   13        4.235585   0.000000
   14        5.172235   0.000000
   15        5.479182   0.000000
   16        5.907898   0.000000
   17        6.087466   0.000000
   18        7.123984   0.000000
   19        7.416787   0.000000
   20        7.921494   0.000000
   21        9.569430   0.000000
   22        9.692742   0.000000
   23       10.288332   0.000000
   24       12.299455   0.000000
 
 -0.4166667E-01  0.4166667E-01  0.0000000E+00  0.1388889E-01
    1      -22.589399   1.000000
    2      -10.689289   1.000000
    3       -6.439363   1.000000
    4       -6.359301   1.000000
    5        0.149532   0.000000
    6        0.911101   0.000000
    7        1.131494   0.000000
    8        1.444773   0.000000
    9        1.651784   0.000000
   10        2.298524   0.000000
   11        2.599010   0.000000
   12        3.547959   0.000000
   13        3.901449   0.000000
   14        5.039069   0.000000
   15        5.144680   0.000000
   16        5.193740   0.000000
   17        5.566108   0.000000
   18        7.084781   0.000000
   19        7.583733   0.000000
   20        7.926818   0.000000
   21        9.071817   0.000000
   22        9.365311   0.000000
   23        9.952078   0.000000
   24       11.998424   0.000000
 
  0.1250000E+00  0.1250000E+00  0.0000000E+00  0.1388889E-01
    1      -21.538158   1.000000
    2       -9.446525   1.000000
    3       -9.438568   1.000000
    4       -8.347312   1.000000
    5        1.584698   0.000000
    6        2.364123   0.000000
    7        2.606438   0.000000
    8        2.912136   0.000000
    9        3.121921   0.000000
   10        3.760978   0.000000
   11        4.062572   0.000000
   12        4.903780   0.000000
   13        5.003177   0.000000
   14        5.347793   0.000000
   15        5.907803   0.000000
   16        6.588834   0.000000
   17        7.032418   0.000000
   18        7.466080   0.000000
   19        8.511838   0.000000
   20        9.041132   0.000000
   21       10.761666   0.000000
   22       11.402717   0.000000
   23       11.734738   0.000000
   24       13.312652   0.000000
 
  0.2083333E+00  0.1250000E+00  0.0000000E+00  0.2777778E-01
    1      -20.660223   1.000000
    2      -11.207727   1.000000
    3       -9.427367   1.000000
    4       -8.429602   1.000000
    5        2.795673   0.000000
    6        2.972226   0.000000
    7        3.594919   0.000000
    8        3.854431   0.000000
    9        4.153105   0.000000
   10        4.365403   0.000000
   11        4.995454   0.000000
   12        5.297859   0.000000
   13        6.063275   0.000000
   14        6.227482   0.000000
   15        6.612942   0.000000
   16        7.795502   0.000000
   17        8.252878   0.000000
   18        8.891224   0.000000
   19        9.683434   0.000000
   20       10.266489   0.000000
   21       11.832189   0.000000
   22       12.619745   0.000000
   23       13.783854   0.000000
   24       13.856094   0.000000
 
  0.2916667E+00  0.1250000E+00  0.0000000E+00  0.2777778E-01
    1      -19.485083   1.000000
    2      -13.221262   1.000000
    3      -10.185882   1.000000
    4       -7.121905   1.000000
    5        0.887393   0.000000
    6        4.434775   0.000000
    7        5.242689   0.000000
    8        5.555223   0.000000
    9        5.812722   0.000000
   10        5.839806   0.000000
   11        6.069640   0.000000
   12        6.668868   0.000000
   13        6.995313   0.000000
   14        7.875568   0.000000
   15        8.278141   0.000000
   16        9.383413   0.000000
   17        9.916879   0.000000
   18       10.744923   0.000000
   19       11.060364   0.000000
   20       11.926597   0.000000
   21       12.415839   0.000000
   22       13.976934   0.000000
   23       14.045065   0.000000
   24       14.275127   0.000000
 
  0.3750000E+00  0.1250000E+00  0.0000000E+00  0.2777778E-01
    1      -18.062948   1.000000
    2      -15.174118   1.000000
    3      -10.608990   1.000000
    4       -5.739534   1.000000
    5       -0.990060   0.000000
    6        5.600816   0.000000
    7        6.508304   0.000000
    8        7.268647   0.000000
    9        7.711428   0.000000
   10        7.962289   0.000000
   11        8.206458   0.000000
   12        8.740195   0.000000
   13        9.120748   0.000000
   14        9.769860   0.000000
   15       10.101476   0.000000
   16       10.395832   0.000000
   17       10.597576   0.000000
   18       11.567205   0.000000
   19       11.787922   0.000000
   20       11.990822   0.000000
   21       12.006259   0.000000
   22       12.215634   0.000000
   23       12.489150   0.000000
   24       13.030680   0.000000
 
  0.4583333E+00  0.1250000E+00  0.0000000E+00  0.2777778E-01
    1      -17.370835   1.000000
    2      -15.977084   1.000000
    3      -10.693933   1.000000
    4       -5.275417   1.000000
    5       -1.558704   0.000000
    6        5.562712   0.000000
    7        7.663565   0.000000
    8        8.308824   0.000000
    9        8.900247   0.000000
   10        8.960161   0.000000
   11        9.141947   0.000000
   12        9.445300   0.000000
   13        9.532181   0.000000
   14       10.053385   0.000000
   15       10.318176   0.000000
   16       10.346414   0.000000
   17       10.512837   0.000000
   18       10.788498   0.000000
   19       10.956582   0.000000
   20       11.383795   0.000000
   21       11.585920   0.000000
   22       11.666907   0.000000
   23       12.014831   0.000000
   24       12.787662   0.000000
 
 -0.4583333E+00  0.1250000E+00  0.0000000E+00  0.2777778E-01
    1      -18.797604   1.000000
    2      -14.222260   1.000000
    3      -10.439483   1.000000
    4       -6.410317   1.000000
    5       -0.115721   0.000000
    6        5.388014   0.000000
    7        5.727994   0.000000
    8        6.217240   0.000000
    9        6.577456   0.000000
   10        6.848341   0.000000
   11        7.079426   0.000000
   12        7.662447   0.000000
   13        8.003281   0.000000
   14        8.833664   0.000000
   15        9.279379   0.000000
   16       10.211795   0.000000
   17       10.861100   0.000000
   18       11.003508   0.000000
   19       11.388689   0.000000
   20       12.633035   0.000000
   21       12.890464   0.000000
   22       13.264690   0.000000
   23       13.457190   0.000000
   24       13.464950   0.000000
 
 -0.3750000E+00  0.1250000E+00  0.0000000E+00  0.2777778E-01
    1      -20.108174   1.000000
    2      -12.205158   1.000000
    3       -9.848760   1.000000
    4       -7.805217   1.000000
    5        1.934491   0.000000
    6        3.562978   0.000000
    7        4.364989   0.000000
    8        4.648488   0.000000
    9        4.940782   0.000000
   10        5.155371   0.000000
   11        5.778126   0.000000
   12        5.925806   0.000000
   13        6.120505   0.000000
   14        7.001004   0.000000
   15        7.386547   0.000000
   16        8.549892   0.000000
   17        9.030604   0.000000
   18        9.875463   0.000000
   19       10.386259   0.000000
   20       11.043770   0.000000
   21       12.297924   0.000000
   22       13.388964   0.000000
   23       13.718595   0.000000
   24       14.538238   0.000000
 
 -0.2916667E+00  0.1250000E+00  0.0000000E+00  0.2777778E-01
    1      -21.137660   1.000000
    2      -10.270734   1.000000
    3       -8.979667   1.000000
    4       -8.922462   1.000000
    5        2.135778   0.000000
    6        2.919391   0.000000
    7        3.173715   0.000000
    8        3.475108   0.000000
    9        3.687267   0.000000
   10        3.981869   0.000000
   11        4.323502   0.000000
   12        4.625109   0.000000
   13        5.560670   0.000000
   14        5.882531   0.000000
   15        6.137064   0.000000
   16        7.139510   0.000000
   17        7.587608   0.000000
   18        8.026678   0.000000
   19        9.050343   0.000000
   20        9.598647   0.000000
   21       11.271555   0.000000
   22       11.957691   0.000000
   23       13.070918   0.000000
   24       14.637791   0.000000
 
 -0.2083333E+00  0.1250000E+00  0.0000000E+00  0.2777778E-01
    1      -21.860167   1.000000
    2       -9.824816   1.000000
    3       -8.728072   1.000000
    4       -7.761848   1.000000
    5        1.143229   0.000000
    6        1.917945   0.000000
    7        2.152599   0.000000
    8        2.460895   0.000000
    9        2.669538   0.000000
   10        3.311469   0.000000
   11        3.612119   0.000000
   12        4.556174   0.000000
   13        4.902295   0.000000
   14        5.515162   0.000000
   15        5.717059   0.000000
   16        6.147147   0.000000
   17        6.582547   0.000000
   18        7.188085   0.000000
   19        8.076455   0.000000
   20        8.594087   0.000000
   21       10.340064   0.000000
   22       10.797302   0.000000
   23       10.958677   0.000000
   24       12.920554   0.000000
 
 -0.1250000E+00  0.1250000E+00  0.0000000E+00  0.1388889E-01
    1      -22.264527   1.000000
    2      -10.302907   1.000000
    3       -7.644436   1.000000
    4       -6.963645   1.000000
    5        0.591113   0.000000
    6        1.359039   0.000000
    7        1.585311   0.000000
    8        1.896519   0.000000
    9        2.104084   0.000000
   10        2.748976   0.000000
   11        3.049157   0.000000
   12        3.996517   0.000000
   13        4.345969   0.000000
   14        5.082239   0.000000
   15        5.590321   0.000000
   16        6.019717   0.000000
   17        6.497350   0.000000
   18        6.869221   0.000000
   19        7.527818   0.000000
   20        8.033470   0.000000
   21        9.717982   0.000000
   22        9.801819   0.000000
   23       10.400477   0.000000
   24       12.405511   0.000000
 
  0.2083333E+00  0.2083333E+00  0.0000000E+00  0.1388889E-01
    1      -19.640554   1.000000
    2      -12.419625   1.000000
    3      -10.892248   1.000000
    4       -7.274698   1.000000
    5        1.279762   0.000000
    6        4.220105   0.000000
    7        5.001887   0.000000
    8        5.329247   0.000000
    9        5.609204   0.000000
   10        5.834591   0.000000
   11        6.435449   0.000000
   12        6.760155   0.000000
   13        7.636805   0.000000
   14        7.693120   0.000000
   15        8.084464   0.000000
   16        8.699077   0.000000
   17        9.129975   0.000000
   18        9.706897   0.000000
   19       10.759487   0.000000
   20       11.702874   0.000000
   21       12.139278   0.000000
   22       13.871103   0.000000
   23       14.040071   0.000000
   24       15.584604   0.000000
 
  0.2916667E+00  0.2083333E+00  0.0000000E+00  0.2777778E-01
    1      -18.348083   1.000000
    2      -14.010594   1.000000
    3      -11.809434   1.000000
    4       -5.888915   1.000000
    5       -0.499222   0.000000
    6        6.057442   0.000000
    7        6.738952   0.000000
    8        7.257124   0.000000
    9        7.491920   0.000000
   10        7.735329   0.000000
   11        7.853530   0.000000
   12        8.239407   0.000000
   13        8.675488   0.000000
   14        9.213554   0.000000
   15        9.912429   0.000000
   16       10.143857   0.000000
   17       10.215452   0.000000
   18       11.528854   0.000000
   19       11.579002   0.000000
   20       13.257281   0.000000
   21       13.421804   0.000000
   22       13.596578   0.000000
   23       14.001465   0.000000
   24       14.095342   0.000000
 
  0.3750000E+00  0.2083333E+00  0.0000000E+00  0.2777778E-01
    1      -16.949177   1.000000
    2      -15.627606   1.000000
    3      -12.144702   1.000000
    4       -4.696688   1.000000
    5       -1.875994   0.000000
    6        7.678165   0.000000
    7        7.962927   0.000000
    8        8.257504   0.000000
    9        9.391164   0.000000
   10        9.620533   0.000000
   11        9.638752   0.000000
   12       10.020232   0.000000
   13       10.113779   0.000000
   14       10.725403   0.000000
   15       10.984808   0.000000
   16       11.001492   0.000000
   17       11.091435   0.000000
   18       11.431426   0.000000
   19       11.441810   0.000000
   20       12.051306   0.000000
   21       12.141449   0.000000
   22       12.277192   0.000000
   23       12.417883   0.000000
   24       13.337260   0.000000
 
  0.4583333E+00  0.2083333E+00  0.0000000E+00  0.2777778E-01
    1      -17.627168   1.000000
    2      -14.871356   1.000000
    3      -12.036511   1.000000
    4       -5.200668   1.000000
    5       -1.309202   0.000000
    6        7.107692   0.000000
    7        7.541167   0.000000
    8        7.757325   0.000000
    9        8.391668   0.000000
   10        8.559193   0.000000
   11        8.880206   0.000000
   12        9.118939   0.000000
   13        9.777673   0.000000
   14        9.858743   0.000000
   15       10.213472   0.000000
   16       10.954194   0.000000
   17       11.047008   0.000000
   18       12.225436   0.000000
   19       12.418239   0.000000
   20       12.572738   0.000000
   21       12.607154   0.000000
   22       12.728037   0.000000
   23       12.940028   0.000000
   24       13.275326   0.000000
 
 -0.4583333E+00  0.2083333E+00  0.0000000E+00  0.2777778E-01
    1      -19.025181   1.000000
    2      -13.169710   1.000000
    3      -11.438644   1.000000
    4       -6.599672   1.000000
    5        0.385687   0.000000
    6        5.089510   0.000000
    7        5.846620   0.000000
    8        6.236637   0.000000
    9        6.500360   0.000000
   10        6.737231   0.000000
   11        7.305313   0.000000
   12        7.644528   0.000000
   13        7.935489   0.000000
   14        8.454362   0.000000
   15        8.945205   0.000000
   16        9.345155   0.000000
   17        9.772526   0.000000
   18       10.592667   0.000000
   19       10.998048   0.000000
   20       12.504626   0.000000
   21       12.577609   0.000000
   22       14.561874   0.000000
   23       14.741858   0.000000
   24       14.932426   0.000000
 
 -0.3750000E+00  0.2083333E+00  0.0000000E+00  0.2777778E-01
    1      -20.186957   1.000000
    2      -11.780825   1.000000
    3      -10.189544   1.000000
    4       -7.889121   1.000000
    5        2.150946   0.000000
    6        3.454547   0.000000
    7        4.244861   0.000000
    8        4.535124   0.000000
    9        4.825614   0.000000
   10        5.043706   0.000000
   11        5.662292   0.000000
   12        5.973895   0.000000
   13        6.884248   0.000000
   14        6.905154   0.000000
   15        7.294701   0.000000
   16        8.430935   0.000000
   17        8.690889   0.000000
   18        8.935655   0.000000
   19       10.259968   0.000000
   20       10.930919   0.000000
   21       12.143646   0.000000
   22       13.279099   0.000000
   23       13.590583   0.000000
   24       15.191979   0.000000
 
 -0.2916667E+00  0.2083333E+00  0.0000000E+00  0.2777778E-01
    1      -21.057712   1.000000
    2      -10.651814   1.000000
    3       -8.888327   1.000000
    4       -8.721002   1.000000
    5        2.245123   0.000000
    6        3.021415   0.000000
    7        3.287125   0.000000
    8        3.574946   0.000000
    9        3.777621   0.000000
   10        3.799910   0.000000
   11        4.441140   0.000000
   12        4.733716   0.000000
   13        5.384686   0.000000
   14        5.676014   0.000000
   15        6.049163   0.000000
   16        7.253894   0.000000
   17        7.696419   0.000000
   18        9.066484   0.000000
   19        9.164173   0.000000
   20        9.711627   0.000000
   21       11.385465   0.000000
   22       12.066261   0.000000
   23       12.632228   0.000000
   24       13.813485   0.000000
 
 -0.2083333E+00  0.2083333E+00  0.0000000E+00  0.1388889E-01
    1      -21.618435   1.000000
    2       -9.557024   1.000000
    3       -9.541416   1.000000
    4       -7.826712   1.000000
    5        1.473476   0.000000
    6        2.251435   0.000000
    7        2.492935   0.000000
    8        2.798755   0.000000
    9        3.008454   0.000000
   10        3.646940   0.000000
   11        3.947576   0.000000
   12        4.865212   0.000000
   13        4.867432   0.000000
   14        5.075920   0.000000
   15        5.270623   0.000000
   16        6.484560   0.000000
   17        6.914612   0.000000
   18        8.409011   0.000000
   19        8.714438   0.000000
   20        8.927068   0.000000
   21       10.665925   0.000000
   22       10.972958   0.000000
   23       11.298033   0.000000
   24       13.232337   0.000000
 
  0.2916667E+00  0.2916667E+00  0.0000000E+00  0.1388889E-01
    1      -16.998421   1.000000
    2      -14.846100   1.000000
    3      -13.139504   1.000000
    4       -4.492255   1.000000
    5       -1.929641   0.000000
    6        7.513096   0.000000
    7        8.021657   0.000000
    8        9.409243   0.000000
    9        9.425953   0.000000
   10        9.618276   0.000000
   11        9.801734   0.000000
   12        9.854041   0.000000
   13        9.964980   0.000000
   14       10.677692   0.000000
   15       10.790595   0.000000
   16       11.876106   0.000000
   17       11.999194   0.000000
   18       12.942091   0.000000
   19       13.065583   0.000000
   20       13.088346   0.000000
   21       13.279483   0.000000
   22       13.512861   0.000000
   23       13.609699   0.000000
   24       13.658099   0.000000
 
  0.3750000E+00  0.2916667E+00  0.0000000E+00  0.2777778E-01
    1      -16.336222   1.000000
    2      -15.390088   1.000000
    3      -13.429014   1.000000
    4       -3.872108   1.000000
    5       -2.551387   0.000000
    6        7.464462   0.000000
    7        9.006229   0.000000
    8        9.553095   0.000000
    9       10.008953   0.000000
   10       10.530377   0.000000
   11       10.656616   0.000000
   12       10.996546   0.000000
   13       11.103020   0.000000
   14       11.733267   0.000000
   15       11.877123   0.000000
   16       11.984206   0.000000
   17       12.002394   0.000000
   18       12.253741   0.000000
   19       12.358628   0.000000
   20       12.750959   0.000000
   21       12.850018   0.000000
   22       12.997218   0.000000
   23       13.108587   0.000000
   24       13.260844   0.000000
 
  0.4583333E+00  0.2916667E+00  0.0000000E+00  0.2777778E-01
    1      -17.691731   1.000000
    2      -14.390592   1.000000
    3      -12.567029   1.000000
    4       -5.198501   1.000000
    5       -1.214925   0.000000
    6        7.007734   0.000000
    7        7.348599   0.000000
    8        8.277358   0.000000
    9        8.434652   0.000000
   10        8.751644   0.000000
   11        8.922862   0.000000
   12        8.979714   0.000000
   13        9.656000   0.000000
   14        9.740800   0.000000
   15        9.909803   0.000000
   16       10.873735   0.000000
   17       10.943631   0.000000
   18       12.367933   0.000000
   19       12.534616   0.000000
   20       13.209167   0.000000
   21       13.539346   0.000000
   22       13.799665   0.000000
   23       14.117182   0.000000
   24       14.302795   0.000000
 
 -0.4583333E+00  0.2916667E+00  0.0000000E+00  0.2777778E-01
    1      -18.948952   1.000000
    2      -13.632895   1.000000
    3      -10.986548   1.000000
    4       -6.535253   1.000000
    5        0.202550   0.000000
    6        5.196396   0.000000
    7        5.973271   0.000000
    8        6.349635   0.000000
    9        6.617010   0.000000
   10        6.748040   0.000000
   11        6.869374   0.000000
   12        7.425886   0.000000
   13        7.780669   0.000000
   14        8.584465   0.000000
   15        9.055930   0.000000
   16        9.928717   0.000000
   17       10.380702   0.000000
   18       10.720471   0.000000
   19       11.150301   0.000000
   20       12.586148   0.000000
   21       12.686264   0.000000
   22       13.788782   0.000000
   23       14.304116   0.000000
   24       14.631043   0.000000
 
 -0.3750000E+00  0.2916667E+00  0.0000000E+00  0.2777778E-01
    1      -19.951114   1.000000
    2      -12.763481   1.000000
    3       -9.482863   1.000000
    4       -7.638816   1.000000
    5        1.553561   0.000000
    6        3.777866   0.000000
    7        4.597782   0.000000
    8        4.874108   0.000000
    9        5.079008   0.000000
   10        5.169352   0.000000
   11        5.390985   0.000000
   12        6.007375   0.000000
   13        6.321211   0.000000
   14        7.231211   0.000000
   15        7.608442   0.000000
   16        8.782466   0.000000
   17        9.255229   0.000000
   18       10.626899   0.000000
   19       11.084809   0.000000
   20       11.289787   0.000000