 vasp.5.4.4.18Apr17-6-g9f103f2a35 (build Jan 14 2019 14:48:31) complex          
  
 executed on             LinuxIFC date 2019.09.10  15:54:03
 running on   24 total cores
 distrk:  each k-point on   24 cores,    1 groups
 distr:  one band on NCORES_PER_BAND=   1 cores,   24 groups


--------------------------------------------------------------------------------------------------------


 INCAR:
 POTCAR:    PAW_PBE C_h 06Feb2004                 

 ----------------------------------------------------------------------------- 
|                                                                             |
|           W    W    AA    RRRRR   N    N  II  N    N   GGGG   !!!           |
|           W    W   A  A   R    R  NN   N  II  NN   N  G    G  !!!           |
|           W    W  A    A  R    R  N N  N  II  N N  N  G       !!!           |
|           W WW W  AAAAAA  RRRRR   N  N N  II  N  N N  G  GGG   !            |
|           WW  WW  A    A  R   R   N   NN  II  N   NN  G    G                |
|           W    W  A    A  R    R  N    N  II  N    N   GGGG   !!!           |
|                                                                             |
|      For optimal performance we recommend to set                            |
|        NCORE= 4 - approx SQRT( number of cores)                             |
|      NCORE specifies how many cores store one orbital (NPAR=cpu/NCORE).     |
|      This setting can  greatly improve the performance of VASP for DFT.     |
|      The default,   NCORE=1            might be grossly inefficient         |
|      on modern multi-core architectures or massively parallel machines.     |
|      Do your own testing !!!!                                               |
|      Unfortunately you need to use the default for GW and RPA calculations. |
|      (for HF NCORE is supported but not extensively tested yet)             |
|                                                                             |
 ----------------------------------------------------------------------------- 

 POTCAR:    PAW_PBE C_h 06Feb2004                 
   VRHFIN =C: s2p2                                                              
   LEXCH  = PE                                                                  
   EATOM  =   147.1560 eV,   10.8157 Ry                                         
                                                                                
   TITEL  = PAW_PBE C_h 06Feb2004                                               
   LULTRA =        F    use ultrasoft PP ?                                      
   IUNSCR =        1    unscreen: 0-lin 1-nonlin 2-no                           
   RPACOR =    0.800    partial core radius                                     
   POMASS =   12.011; ZVAL   =    4.000    mass and valenz                      
   RCORE  =    1.100    outmost cutoff radius                                   
   RWIGS  =    1.630; RWIGS  =    0.863    wigner-seitz radius (au A)           
   ENMAX  =  700.000; ENMIN  =  500.000 eV                                      
   ICORE  =        2    local potential                                         
   LCOR   =        T    correct aug charges                                     
   LPAW   =        T    paw PP                                                  
   EAUG   =  946.768                                                            
   DEXC   =    0.000                                                            
   RMAX   =    1.128    core radius for proj-oper                               
   RAUG   =    1.300    factor for augmentation sphere                          
   RDEP   =    1.162    radius for radial grids                                 
   RDEPT  =    1.088    core radius for aug-charge                              
                                                                                
   Atomic configuration                                                         
    4 entries                                                                   
     n  l   j            E        occ.                                          
     1  0  0.50      -273.3789   2.0000                                         
     2  0  0.50       -13.7508   2.0000                                         
     2  1  0.50        -5.2854   2.0000                                         
     3  2  1.50        -5.4423   0.0000                                         
   Description                                                                  
     l       E           TYP  RCUT    TYP  RCUT                                 
     0    -13.7508458     23  1.100                                             
     0     -8.2022199     23  1.100                                             
     1     -5.2854383     23  1.100                                             
     1      1.1560700     23  1.100                                             
     2     -5.4423304      7  1.100                                             
  local pseudopotential read in
  partial core-charges read in
  partial kinetic energy density read in
  atomic valenz-charges read in
  non local Contribution for L=           0  read in
    real space projection operators read in
  non local Contribution for L=           0  read in
    real space projection operators read in
  non local Contribution for L=           1  read in
    real space projection operators read in
  non local Contribution for L=           1  read in
    real space projection operators read in
    PAW grid and wavefunctions read in
 
   number of l-projection  operators is LMAX  =           4
   number of lm-projection operators is LMMAX =           8
 
  PAW_PBE C_h 06Feb2004                 :
 energy of atom  1       EATOM= -147.1560
 kinetic energy error for atom=    0.0044 (will be added to EATOM!!)
 
 
 POSCAR: graphene                                
  positions in direct lattice
  velocities in cartesian coordinates
 exchange correlation table for  LEXCH =        8
   RHO(1)=    0.500       N(1)  =     2000
   RHO(2)=  100.500       N(2)  =     4000

 VTST: version 3.1, (03/28/14)

 CHAIN: initializing optimizer
 
 OPT: Using VASP Conjugate-Gradient optimizer
 CHAIN: Read ICHAIN            0
 
 POSCAR: graphene                                
  positions in direct lattice
  velocities in cartesian coordinates
 


--------------------------------------------------------------------------------------------------------


 ion  position               nearest neighbor table
   1  0.000  1.000  0.500-   2 1.43   2 1.43   2 1.43
   2  0.667  0.333  0.500-   1 1.43   1 1.43   1 1.43
 
  Warning from LATTYP: Got some problem with cell dimensions!
  Tried to take original basis but could not verify dimensions!
  LATTYP: Found a hexagonal cell.
 ALAT       =     2.4766418696
 C/A-ratio  =    12.2271993032
  
  Lattice vectors:
  
 A1 = (   2.4766418696,   0.0000000000,   0.0000000000)
 A2 = (  -1.2383209348,  -2.1448401718,   0.0000000000)
 A3 = (   0.0000000000,   0.0000000000, -30.2823937426)


Analysis of symmetry for initial positions (statically):
=====================================================================
 Subroutine PRICEL returns:
 Original cell was already a primitive cell.
 

 Routine SETGRP: Setting up the symmetry group for a 
 hexagonal supercell.


 Subroutine GETGRP returns: Found 24 space group operations
 (whereof 12 operations were pure point group operations)
 out of a pool of 24 trial point group operations.


The static configuration has the point symmetry D_3h.
 The point group associated with its full space group is D_6h.


Analysis of symmetry for dynamics (positions and initial velocities):
=====================================================================
 Subroutine PRICEL returns:
 Original cell was already a primitive cell.
 

 Routine SETGRP: Setting up the symmetry group for a 
 hexagonal supercell.


 Subroutine GETGRP returns: Found 24 space group operations
 (whereof 12 operations were pure point group operations)
 out of a pool of 24 trial point group operations.


The dynamic configuration has the point symmetry D_3h.
 The point group associated with its full space group is D_6h.


 Subroutine INISYM returns: Found 24 space group operations
 (whereof 12 operations are pure point group operations),
 and found     1 'primitive' translations

 
 
 KPOINTS: K-Mesh Generated with KP-Resolved Value 

Automatic generation of k-mesh.
Space group operators:
 irot       det(A)        alpha          n_x          n_y          n_z        tau_x        tau_y        tau_z
    1     1.000000     0.000000     1.000000     0.000000     0.000000     0.000000     0.000000     0.000000
    2    -1.000000    60.000000     0.000000     0.000000     1.000000     0.000000     0.000000     0.000000
    3     1.000000   120.000000     0.000000     0.000000     1.000000     0.000000     0.000000     0.000000
    4    -1.000000   180.000000     0.000000     0.000000     1.000000     0.000000     0.000000     0.000000
    5     1.000000   120.000000     0.000000     0.000000    -1.000000     0.000000     0.000000     0.000000
    6    -1.000000    60.000000     0.000000     0.000000    -1.000000     0.000000     0.000000     0.000000
    7    -1.000000   180.000000     1.000000     0.000000     0.000000     0.000000     0.000000     0.000000
    8     1.000000   180.000000     0.866026     0.499999     0.000000     0.000000     0.000000     0.000000
    9    -1.000000   180.000000    -0.500001    -0.866025     0.000000     0.000000     0.000000     0.000000
   10     1.000000   180.000000     0.000000     1.000000     0.000000     0.000000     0.000000     0.000000
   11    -1.000000   180.000000     0.500001    -0.866025     0.000000     0.000000     0.000000     0.000000
   12     1.000000   180.000000     0.866026    -0.499999     0.000000     0.000000     0.000000     0.000000
   13    -1.000000     0.000000     1.000000     0.000000     0.000000     0.666670     0.333330     0.000000
   14     1.000000    60.000000     0.000000     0.000000     1.000000     0.666670     0.333338     0.000000
   15    -1.000000   120.000000     0.000000     0.000000     1.000000     0.666662     0.333330     0.000000
   16     1.000000   180.000000     0.000000     0.000000     1.000000     0.666670     0.333330     0.000000
   17    -1.000000   120.000000     0.000000     0.000000    -1.000000     0.666670     0.333338     0.000000
   18     1.000000    60.000000     0.000000     0.000000    -1.000000     0.666662     0.333330     0.000000
   19     1.000000   180.000000     1.000000     0.000000     0.000000     0.666670     0.333330     0.000000
   20    -1.000000   180.000000     0.866026     0.499999     0.000000     0.666662     0.333330     0.000000
   21     1.000000   180.000000    -0.500001    -0.866025     0.000000     0.666670     0.333338     0.000000
   22    -1.000000   180.000000     0.000000     1.000000     0.000000     0.666670     0.333330     0.000000
   23     1.000000   180.000000     0.500001    -0.866025     0.000000     0.666662     0.333330     0.000000
   24    -1.000000   180.000000     0.866026    -0.499999     0.000000     0.666670     0.333338     0.000000
 
 Subroutine IBZKPT returns following result:
 ===========================================
 
 Found     42 irreducible k-points:
 
 Following reciprocal coordinates:
            Coordinates               Weight
  0.041667  0.041667  0.000000     48.000000
  0.125000  0.041667  0.000000     96.000000
  0.208333  0.041667  0.000000     96.000000
  0.291667  0.041667  0.000000     96.000000
  0.375000  0.041667  0.000000     96.000000
  0.458333  0.041667  0.000000     96.000000
 -0.458333  0.041667  0.000000     96.000000
 -0.375000  0.041667  0.000000     96.000000
 -0.291667  0.041667  0.000000     96.000000
 -0.208333  0.041667  0.000000     96.000000
 -0.125000  0.041667  0.000000     96.000000
 -0.041667  0.041667  0.000000     48.000000
  0.125000  0.125000  0.000000     48.000000
  0.208333  0.125000  0.000000     96.000000
  0.291667  0.125000  0.000000     96.000000
  0.375000  0.125000  0.000000     96.000000
  0.458333  0.125000  0.000000     96.000000
 -0.458333  0.125000  0.000000     96.000000
 -0.375000  0.125000  0.000000     96.000000
 -0.291667  0.125000  0.000000     96.000000
 -0.208333  0.125000  0.000000     96.000000
 -0.125000  0.125000  0.000000     48.000000
  0.208333  0.208333  0.000000     48.000000
  0.291667  0.208333  0.000000     96.000000
  0.375000  0.208333  0.000000     96.000000
  0.458333  0.208333  0.000000     96.000000
 -0.458333  0.208333  0.000000     96.000000
 -0.375000  0.208333  0.000000     96.000000
 -0.291667  0.208333  0.000000     96.000000
 -0.208333  0.208333  0.000000     48.000000
  0.291667  0.291667  0.000000     48.000000
  0.375000  0.291667  0.000000     96.000000
  0.458333  0.291667  0.000000     96.000000
 -0.458333  0.291667  0.000000     96.000000
 -0.375000  0.291667  0.000000     96.000000
 -0.291667  0.291667  0.000000     48.000000
  0.375000  0.375000  0.000000     48.000000
  0.458333  0.375000  0.000000     96.000000
 -0.458333  0.375000  0.000000     96.000000
 -0.375000  0.375000  0.000000     48.000000
  0.458333  0.458333  0.000000     48.000000
 -0.458333  0.458333  0.000000     48.000000
 
 Following cartesian coordinates:
            Coordinates               Weight
  0.082773  0.000000  0.000000     48.000000
  0.165547 -0.047789  0.000000     96.000000
  0.248320 -0.095578  0.000000     96.000000
  0.331093 -0.143367  0.000000     96.000000
  0.413867 -0.191156  0.000000     96.000000
  0.496640 -0.238946  0.000000     96.000000
 -0.413867  0.286735  0.000000     96.000000
 -0.331093  0.238946  0.000000     96.000000
 -0.248320  0.191156  0.000000     96.000000
 -0.165547  0.143367  0.000000     96.000000
 -0.082773  0.095578  0.000000     96.000000
  0.000000  0.047789  0.000000     48.000000
  0.248320  0.000000  0.000000     48.000000
  0.331093 -0.047789  0.000000     96.000000
  0.413867 -0.095578  0.000000     96.000000
  0.496640 -0.143367  0.000000     96.000000
  0.579414 -0.191156  0.000000     96.000000
 -0.331093  0.334524  0.000000     96.000000
 -0.248320  0.286735  0.000000     96.000000
 -0.165547  0.238946  0.000000     96.000000
 -0.082773  0.191156  0.000000     96.000000
  0.000000  0.143367  0.000000     48.000000
  0.413867  0.000000  0.000000     48.000000
  0.496640 -0.047789  0.000000     96.000000
  0.579414 -0.095578  0.000000     96.000000
  0.662187 -0.143367  0.000000     96.000000
 -0.248320  0.382313  0.000000     96.000000
 -0.165547  0.334524  0.000000     96.000000
 -0.082773  0.286735  0.000000     96.000000
 -0.000000  0.238946  0.000000     48.000000
  0.579414  0.000000  0.000000     48.000000
  0.662187 -0.047789  0.000000     96.000000
  0.744960 -0.095578  0.000000     96.000000
 -0.165547  0.430102  0.000000     96.000000
 -0.082773  0.382313  0.000000     96.000000
  0.000000  0.334524  0.000000     48.000000
  0.744960  0.000000  0.000000     48.000000
  0.827734 -0.047789  0.000000     96.000000
 -0.082773  0.477891  0.000000     96.000000
  0.000000  0.430102  0.000000     48.000000
  0.910507  0.000000  0.000000     48.000000
  0.000000  0.525680  0.000000     48.000000
 


--------------------------------------------------------------------------------------------------------




 Dimension of arrays:
   k-points           NKPTS =     42   k-points in BZ     NKDIM =     42   number of bands    NBANDS=     24
   number of dos      NEDOS =    301   number of ions     NIONS =      2
   non local maximal  LDIM  =      4   non local SUM 2l+1 LMDIM =      8
   total plane-waves  NPLWV = 169344
   max r-space proj   IRMAX =      1   max aug-charges    IRDMAX=   3005
   dimension x,y,z NGX =    24 NGY =   24 NGZ =  294
   dimension x,y,z NGXF=    36 NGYF=   36 NGZF=  420
   support grid    NGXF=    36 NGYF=   36 NGZF=  420
   ions per type =               2
   NGX,Y,Z   is equivalent  to a cutoff of  16.11, 16.11, 16.14 a.u.
   NGXF,Y,Z  is equivalent  to a cutoff of  24.17, 24.17, 23.06 a.u.

 SYSTEM =  unknown system                          
 POSCAR =  graphene                                

 Startparameter for this run:
   NWRITE =      2    write-flag & timer
   PREC   = high      normal or accurate (medium, high low for compatibility)
   ISTART =      0    job   : 0-new  1-cont  2-samecut
   ICHARG =      2    charge: 1-file 2-atom 10-const
   ISPIN  =      1    spin polarized calculation?
   LNONCOLLINEAR =      F non collinear calculations
   LSORBIT =      F    spin-orbit coupling
   INIWAV =      1    electr: 0-lowe 1-rand  2-diag
   LASPH  =      F    aspherical Exc in radial PAW
   METAGGA=      F    non-selfconsistent MetaGGA calc.

 Electronic Relaxation 1
   ENCUT  =  875.0 eV  64.31 Ry    8.02 a.u.   5.97  5.97 73.04*2*pi/ulx,y,z
   ENINI  =  875.0     initial cutoff
   ENAUG  =  946.8 eV  augmentation charge cutoff
   NELM   =     40;   NELMIN=  2; NELMDL=  0     # of ELM steps 
   EDIFF  = 0.1E-06   stopping-criterion for ELM
   LREAL  =      F    real-space projection
   NLSPLINE    = F    spline interpolate recip. space projectors
   LCOMPAT=      F    compatible to vasp.4.4
   GGA_COMPAT  = T    GGA compatible to vasp.4.4-vasp.4.6
   LMAXPAW     = -100 max onsite density
   LMAXMIX     =    2 max onsite mixed and CHGCAR
   VOSKOWN=      0    Vosko Wilk Nusair interpolation
   ROPT   =    0.00000
 Ionic relaxation
   EDIFFG = -.1E-01   stopping-criterion for IOM
   NSW    =    100    number of steps for IOM
   NBLOCK =      1;   KBLOCK =    100    inner block; outer block 
   IBRION =      2    ionic relax: 0-MD 1-quasi-New 2-CG
   NFREE  =      1    steps in history (QN), initial steepest desc. (CG)
   ISIF   =      2    stress and relaxation
   IWAVPR =     11    prediction:  0-non 1-charg 2-wave 3-comb
   ISYM   =      2    0-nonsym 1-usesym 2-fastsym
   LCORR  =      T    Harris-Foulkes like correction to forces

   POTIM  = 0.5000    time-step for ionic-motion
   TEIN   =    0.0    initial temperature
   TEBEG  =    0.0;   TEEND  =   0.0 temperature during run
   SMASS  =  -3.00    Nose mass-parameter (am)
   estimated Nose-frequenzy (Omega)   =  0.10E-29 period in steps =****** mass=  -0.140E-27a.u.
   SCALEE = 1.0000    scale energy and forces
   NPACO  =    256;   APACO  = 16.0  distance and # of slots for P.C.
   PSTRESS=    0.0 pullay stress

  Mass of Ions in am
   POMASS =  12.01
  Ionic Valenz
   ZVAL   =   4.00
  Atomic Wigner-Seitz radii
   RWIGS  =  -1.00
  virtual crystal weights 
   VCA    =   1.00
   NELECT =       8.0000    total number of electrons
   NUPDOWN=      -1.0000    fix difference up-down

 DOS related values:
   EMIN   =  10.00;   EMAX   =-10.00  energy-range for DOS
   EFERMI =   0.00
   ISMEAR =     0;   SIGMA  =   0.05  broadening in eV -4-tet -1-fermi 0-gaus

 Electronic relaxation 2 (details)
   IALGO  =     48    algorithm
   LDIAG  =      T    sub-space diagonalisation (order eigenvalues)
   LSUBROT=      F    optimize rotation matrix (better conditioning)
   TURBO    =      0    0=normal 1=particle mesh
   IRESTART =      0    0=no restart 2=restart with 2 vectors
   NREBOOT  =      0    no. of reboots
   NMIN     =      0    reboot dimension
   EREF     =   0.00    reference energy to select bands
   IMIX   =      4    mixing-type and parameters
     AMIX     =   0.40;   BMIX     =  1.00
     AMIX_MAG =   1.60;   BMIX_MAG =  1.00
     AMIN     =   0.10
     WC   =   100.;   INIMIX=   1;  MIXPRE=   1;  MAXMIX= -45

 Intra band minimization:
   WEIMIN = 0.0010     energy-eigenvalue tresh-hold
   EBREAK =  0.10E-08  absolut break condition
   DEPER  =   0.30     relativ break condition  

   TIME   =   0.40     timestep for ELM

  volume/ion in A,a.u.               =      80.43       542.77
  Fermi-wavevector in a.u.,A,eV,Ry     =   0.602035  1.137682  4.931386  0.362447
  Thomas-Fermi vector in A             =   1.654493
 
 Write flags
   LWAVE        =      F    write WAVECAR
   LDOWNSAMPLE  =      F    k-point downsampling of WAVECAR
   LCHARG       =      F    write CHGCAR
   LVTOT        =      F    write LOCPOT, total local potential
   LVHAR        =      F    write LOCPOT, Hartree potential only
   LELF         =      F    write electronic localiz. function (ELF)
   LORBIT       =      0    0 simple, 1 ext, 2 COOP (PROOUT), +10 PAW based schemes


 Dipole corrections
   LMONO  =      F    monopole corrections only (constant potential shift)
   LDIPOL =      F    correct potential (dipole corrections)
   IDIPOL =      0    1-x, 2-y, 3-z, 4-all directions 
   EPSILON=  1.0000000 bulk dielectric constant

 Exchange correlation treatment:
   GGA     =    --    GGA type
   LEXCH   =     8    internal setting for exchange type
   VOSKOWN=      0    Vosko Wilk Nusair interpolation
   LHFCALC =     F    Hartree Fock is set to
   LHFONE  =     F    Hartree Fock one center treatment
   AEXX    =    0.0000 exact exchange contribution

 Linear response parameters
   LEPSILON=     F    determine dielectric tensor
   LRPA    =     F    only Hartree local field effects (RPA)
   LNABLA  =     F    use nabla operator in PAW spheres
   LVEL    =     F    velocity operator in full k-point grid
   LINTERFAST=   F  fast interpolation
   KINTER  =     0    interpolate to denser k-point grid
   CSHIFT  =0.1000    complex shift for real part using Kramers Kronig
   OMEGAMAX=  -1.0    maximum frequency
   DEG_THRESHOLD= 0.2000000E-02 threshold for treating states as degnerate
   RTIME   =   -0.100 relaxation time in fs
  (WPLASMAI=    0.000 imaginary part of plasma frequency in eV, 0.658/RTIME)
   DFIELD  = 0.0000000 0.0000000 0.0000000 field for delta impulse in time
 
 Orbital magnetization related:
   ORBITALMAG=     F  switch on orbital magnetization
   LCHIMAG   =     F  perturbation theory with respect to B field
   DQ        =  0.001000  dq finite difference perturbation B field
   LLRAUG    =     F  two centre corrections for induced B field



--------------------------------------------------------------------------------------------------------


 conjugate gradient relaxation of ions
 charge density and potential will be updated during run
 non-spin polarized calculation
 RMM-DIIS sequential band-by-band
 perform sub-space diagonalisation
    before iterative eigenvector-optimisation
 modified Broyden-mixing scheme, WC =      100.0
 initial mixing is a Kerker type mixing with AMIX =  0.4000 and BMIX =      1.0000
 Hartree-type preconditioning will be used
 using additional bands           20
 reciprocal scheme for non local part
 use partial core corrections
 calculate Harris-corrections to forces 
   (improved forces if not selfconsistent)
 use gradient corrections 
 use of overlap-Matrix (Vanderbilt PP)
 Gauss-broadening in eV      SIGMA  =   0.05


--------------------------------------------------------------------------------------------------------


  energy-cutoff  :      875.00
  volume of cell :      160.86
      direct lattice vectors                 reciprocal lattice vectors
     1.238320935 -2.144840172  0.000000000     0.403772549 -0.233117603  0.000000000
     1.238320935  2.144840172  0.000000000     0.403772549  0.233117603  0.000000000
     0.000000000  0.000000000 30.282393743     0.000000000  0.000000000  0.033022489

  length of vectors
     2.476646543  2.476646543 30.282393743     0.466236086  0.466236086  0.033022489


 
 k-points in units of 2pi/SCALE and weight: K-Mesh Generated with KP-Resolved Value 
   0.08277337  0.00000000  0.00000000       0.014
   0.16554674 -0.04778911  0.00000000       0.028
   0.24832012 -0.09557822  0.00000000       0.028
   0.33109349 -0.14336733  0.00000000       0.028
   0.41386686 -0.19115643  0.00000000       0.028
   0.49664023 -0.23894554  0.00000000       0.028
  -0.41386686  0.28673465  0.00000000       0.028
  -0.33109349  0.23894554  0.00000000       0.028
  -0.24832012  0.19115643  0.00000000       0.028
  -0.16554674  0.14336733  0.00000000       0.028
  -0.08277337  0.09557822  0.00000000       0.028
   0.00000000  0.04778911  0.00000000       0.014
   0.24832012  0.00000000  0.00000000       0.014
   0.33109349 -0.04778911  0.00000000       0.028
   0.41386686 -0.09557822  0.00000000       0.028
   0.49664023 -0.14336733  0.00000000       0.028
   0.57941361 -0.19115643  0.00000000       0.028
  -0.33109349  0.33452376  0.00000000       0.028
  -0.24832012  0.28673465  0.00000000       0.028
  -0.16554674  0.23894554  0.00000000       0.028
  -0.08277337  0.19115643  0.00000000       0.028
   0.00000000  0.14336733  0.00000000       0.014
   0.41386686  0.00000000  0.00000000       0.014
   0.49664023 -0.04778911  0.00000000       0.028
   0.57941361 -0.09557822  0.00000000       0.028
   0.66218698 -0.14336733  0.00000000       0.028
  -0.24832012  0.38231287  0.00000000       0.028
  -0.16554674  0.33452376  0.00000000       0.028
  -0.08277337  0.28673465  0.00000000       0.028
  -0.00000000  0.23894554  0.00000000       0.014
   0.57941361  0.00000000  0.00000000       0.014
   0.66218698 -0.04778911  0.00000000       0.028
   0.74496035 -0.09557822  0.00000000       0.028
  -0.16554674  0.43010198  0.00000000       0.028
  -0.08277337  0.38231287  0.00000000       0.028
   0.00000000  0.33452376  0.00000000       0.014
   0.74496035  0.00000000  0.00000000       0.014
   0.82773372 -0.04778911  0.00000000       0.028
  -0.08277337  0.47789109  0.00000000       0.028
   0.00000000  0.43010198  0.00000000       0.014
   0.91050710  0.00000000  0.00000000       0.014
   0.00000000  0.52568020  0.00000000       0.014
 
 k-points in reciprocal lattice and weights: K-Mesh Generated with KP-Resolved Value 
   0.04166667  0.04166667  0.00000000       0.014
   0.12500000  0.04166667  0.00000000       0.028
   0.20833333  0.04166667  0.00000000       0.028
   0.29166667  0.04166667  0.00000000       0.028
   0.37500000  0.04166667  0.00000000       0.028
   0.45833333  0.04166667  0.00000000       0.028
  -0.45833333  0.04166667  0.00000000       0.028
  -0.37500000  0.04166667  0.00000000       0.028
  -0.29166667  0.04166667  0.00000000       0.028
  -0.20833333  0.04166667  0.00000000       0.028
  -0.12500000  0.04166667  0.00000000       0.028
  -0.04166667  0.04166667  0.00000000       0.014
   0.12500000  0.12500000  0.00000000       0.014
   0.20833333  0.12500000  0.00000000       0.028
   0.29166667  0.12500000  0.00000000       0.028
   0.37500000  0.12500000  0.00000000       0.028
   0.45833333  0.12500000  0.00000000       0.028
  -0.45833333  0.12500000  0.00000000       0.028
  -0.37500000  0.12500000  0.00000000       0.028
  -0.29166667  0.12500000  0.00000000       0.028
  -0.20833333  0.12500000  0.00000000       0.028
  -0.12500000  0.12500000  0.00000000       0.014
   0.20833333  0.20833333  0.00000000       0.014
   0.29166667  0.20833333  0.00000000       0.028
   0.37500000  0.20833333  0.00000000       0.028
   0.45833333  0.20833333  0.00000000       0.028
  -0.45833333  0.20833333  0.00000000       0.028
  -0.37500000  0.20833333  0.00000000       0.028
  -0.29166667  0.20833333  0.00000000       0.028
  -0.20833333  0.20833333  0.00000000       0.014
   0.29166667  0.29166667  0.00000000       0.014
   0.37500000  0.29166667  0.00000000       0.028
   0.45833333  0.29166667  0.00000000       0.028
  -0.45833333  0.29166667  0.00000000       0.028
  -0.37500000  0.29166667  0.00000000       0.028
  -0.29166667  0.29166667  0.00000000       0.014
   0.37500000  0.37500000  0.00000000       0.014
   0.45833333  0.37500000  0.00000000       0.028
  -0.45833333  0.37500000  0.00000000       0.028
  -0.37500000  0.37500000  0.00000000       0.014
   0.45833333  0.45833333  0.00000000       0.014
  -0.45833333  0.45833333  0.00000000       0.014
 
 position of ions in fractional coordinates (direct lattice) 
   0.00000262  0.99999738  0.50000000
   0.66666738  0.33333262  0.50000000
 
 position of ions in cartesian coordinates  (Angst):
   1.23832093  2.14482893 15.14119687
   1.23832093 -0.71494978 15.14119687
 


--------------------------------------------------------------------------------------------------------


 k-point  1 :   0.0417 0.0417 0.0000  plane waves:    9342
 k-point  2 :   0.1250 0.0417 0.0000  plane waves:    9379
 k-point  3 :   0.2083 0.0417 0.0000  plane waves:    9407
 k-point  4 :   0.2917 0.0417 0.0000  plane waves:    9434
 k-point  5 :   0.3750 0.0417 0.0000  plane waves:    9429
 k-point  6 :   0.4583 0.0417 0.0000  plane waves:    9468
 k-point  7 :  -0.4583 0.0417 0.0000  plane waves:    9454
 k-point  8 :  -0.3750 0.0417 0.0000  plane waves:    9436
 k-point  9 :  -0.2917 0.0417 0.0000  plane waves:    9425
 k-point 10 :  -0.2083 0.0417 0.0000  plane waves:    9396
 k-point 11 :  -0.1250 0.0417 0.0000  plane waves:    9334
 k-point 12 :  -0.0417 0.0417 0.0000  plane waves:    9323
 k-point 13 :   0.1250 0.1250 0.0000  plane waves:    9404
 k-point 14 :   0.2083 0.1250 0.0000  plane waves:    9447
 k-point 15 :   0.2917 0.1250 0.0000  plane waves:    9477
 k-point 16 :   0.3750 0.1250 0.0000  plane waves:    9511
 k-point 17 :   0.4583 0.1250 0.0000  plane waves:    9499
 k-point 18 :  -0.4583 0.1250 0.0000  plane waves:    9496
 k-point 19 :  -0.3750 0.1250 0.0000  plane waves:    9463
 k-point 20 :  -0.2917 0.1250 0.0000  plane waves:    9428
 k-point 21 :  -0.2083 0.1250 0.0000  plane waves:    9405
 k-point 22 :  -0.1250 0.1250 0.0000  plane waves:    9325
 k-point 23 :   0.2083 0.2083 0.0000  plane waves:    9468
 k-point 24 :   0.2917 0.2083 0.0000  plane waves:    9488
 k-point 25 :   0.3750 0.2083 0.0000  plane waves:    9530
 k-point 26 :   0.4583 0.2083 0.0000  plane waves:    9520
 k-point 27 :  -0.4583 0.2083 0.0000  plane waves:    9483
 k-point 28 :  -0.3750 0.2083 0.0000  plane waves:    9456
 k-point 29 :  -0.2917 0.2083 0.0000  plane waves:    9428
 k-point 30 :  -0.2083 0.2083 0.0000  plane waves:    9406
 k-point 31 :   0.2917 0.2917 0.0000  plane waves:    9524
 k-point 32 :   0.3750 0.2917 0.0000  plane waves:    9542
 k-point 33 :   0.4583 0.2917 0.0000  plane waves:    9511
 k-point 34 :  -0.4583 0.2917 0.0000  plane waves:    9477
 k-point 35 :  -0.3750 0.2917 0.0000  plane waves:    9455
 k-point 36 :  -0.2917 0.2917 0.0000  plane waves:    9422
 k-point 37 :   0.3750 0.3750 0.0000  plane waves:    9532
 k-point 38 :   0.4583 0.3750 0.0000  plane waves:    9515
 k-point 39 :  -0.4583 0.3750 0.0000  plane waves:    9469
 k-point 40 :  -0.3750 0.3750 0.0000  plane waves:    9410
 k-point 41 :   0.4583 0.4583 0.0000  plane waves:    9484
 k-point 42 :  -0.4583 0.4583 0.0000  plane waves:    9452

 maximum and minimum number of plane-waves per node :      9542     9323

 maximum number of plane-waves:      9542
 maximum index in each direction: 
   IXMAX=    6   IYMAX=    5   IZMAX=   73
   IXMIN=   -6   IYMIN=   -6   IZMIN=  -73


 serial   3D FFT for wavefunctions
 parallel 3D FFT for charge:
    minimum data exchange during FFTs selected (reduces bandwidth)


 total amount of memory used by VASP MPI-rank0    72344. kBytes
=======================================================================

   base      :      30000. kBytes
   nonl-proj :      25981. kBytes
   fftplans  :       1683. kBytes
   grid      :       8239. kBytes
   one-center:          6. kBytes
   wavefun   :       6435. kBytes
 
     INWAV:  cpu time    0.0000: real time    0.0000
 Broyden mixing: mesh for mixing (old mesh)
   NGX = 11   NGY = 11   NGZ =147
  (NGX  = 36   NGY  = 36   NGZ  =420)
  gives a total of  17787 points

 initial charge density was supplied:
 charge density of overlapping atoms calculated
 number of electron       8.0000000 magnetization 
 keeping initial charge density in first step


--------------------------------------------------------------------------------------------------------


 Maximum index for augmentation-charges          213 (set IRDMAX)


--------------------------------------------------------------------------------------------------------


 First call to EWALD:  gamma=   0.326
 Maximum number of real-space cells 6x 6x 1
 Maximum number of reciprocal cells 2x 2x13

    FEWALD:  cpu time    0.0020: real time    0.0054


--------------------------------------- Iteration      1(   1)  ---------------------------------------


    POTLOK:  cpu time    0.0360: real time    0.0625
    SETDIJ:  cpu time    0.0100: real time    0.0174
    EDDIAG:  cpu time    0.6549: real time    0.7487
  RMM-DIIS:  cpu time    1.2128: real time    1.2356
    ORTHCH:  cpu time    0.0310: real time    0.0305
       DOS:  cpu time    0.0030: real time    0.0156
    --------------------------------------------
      LOOP:  cpu time    1.9477: real time    2.1115

 eigenvalue-minimisations  :  1008
 total energy-change (2. order) : 0.9770428E+02  (-0.1510959E+03)
 number of electron       8.0000000 magnetization 
 augmentation part        8.0000000 magnetization 

 Free energy of the ion-electron system (eV)
  ---------------------------------------------------
  alpha Z        PSCENC =         1.36319056
  Ewald energy   TEWEN  =      2215.41463789
  -Hartree energ DENC   =     -2422.22532422
  -exchange      EXHF   =         0.00000000
  -V(xc)+E(xc)   XCENC  =        14.44138122
  PAW double counting   =       228.69403340     -218.18290438
  entropy T*S    EENTRO =        -0.00342413
  eigenvalues    EBANDS =       -16.10050476
  atomic energy  EATOM  =       294.30319316
  Solvation  Ediel_sol  =         0.00000000
  ---------------------------------------------------
  free energy    TOTEN  =        97.70427874 eV

  energy without entropy =       97.70770286  energy(sigma->0) =       97.70599080


--------------------------------------------------------------------------------------------------------




--------------------------------------- Iteration      1(   2)  ---------------------------------------


    EDDIAG:  cpu time    0.6249: real time    0.6532
  RMM-DIIS:  cpu time    1.2098: real time    1.2135
    ORTHCH:  cpu time    0.0310: real time    0.0305
       DOS:  cpu time    0.0000: real time    0.0007
    --------------------------------------------
      LOOP:  cpu time    1.8657: real time    1.8968

 eigenvalue-minimisations  :  1008
 total energy-change (2. order) :-0.4931327E+02  (-0.2655167E+02)
 number of electron       8.0000000 magnetization 
 augmentation part        8.0000000 magnetization 

 Free energy of the ion-electron system (eV)
  ---------------------------------------------------
  alpha Z        PSCENC =         1.36319056
  Ewald energy   TEWEN  =      2215.41463789
  -Hartree energ DENC   =     -2422.22532422
  -exchange      EXHF   =         0.00000000
  -V(xc)+E(xc)   XCENC  =        14.44138122
  PAW double counting   =       228.69403340     -218.18290438
  entropy T*S    EENTRO =        -0.00293201
  eigenvalues    EBANDS =       -65.41427116
  atomic energy  EATOM  =       294.30319316
  Solvation  Ediel_sol  =         0.00000000
  ---------------------------------------------------
  free energy    TOTEN  =        48.39100445 eV

  energy without entropy =       48.39393646  energy(sigma->0) =       48.39247046


--------------------------------------------------------------------------------------------------------




--------------------------------------- Iteration      1(   3)  ---------------------------------------


    EDDIAG:  cpu time    0.6279: real time    0.6429
  RMM-DIIS:  cpu time    1.2028: real time    1.2044
    ORTHCH:  cpu time    0.0300: real time    0.0306
       DOS:  cpu time    0.0010: real time    0.0007
    --------------------------------------------
      LOOP:  cpu time    1.8617: real time    1.8786

 eigenvalue-minimisations  :  1008
 total energy-change (2. order) :-0.3908097E+02  (-0.1941925E+02)
 number of electron       8.0000000 magnetization 
 augmentation part        8.0000000 magnetization 

 Free energy of the ion-electron system (eV)
  ---------------------------------------------------
  alpha Z        PSCENC =         1.36319056
  Ewald energy   TEWEN  =      2215.41463789
  -Hartree energ DENC   =     -2422.22532422
  -exchange      EXHF   =         0.00000000
  -V(xc)+E(xc)   XCENC  =        14.44138122
  PAW double counting   =       228.69403340     -218.18290438
  entropy T*S    EENTRO =        -0.00110037
  eigenvalues    EBANDS =      -104.49706848
  atomic energy  EATOM  =       294.30319316
  Solvation  Ediel_sol  =         0.00000000
  ---------------------------------------------------
  free energy    TOTEN  =         9.31003877 eV

  energy without entropy =        9.31113914  energy(sigma->0) =        9.31058896


--------------------------------------------------------------------------------------------------------




--------------------------------------- Iteration      1(   4)  ---------------------------------------


    EDDIAG:  cpu time    0.6239: real time    0.6379
  RMM-DIIS:  cpu time    1.2108: real time    1.2137
    ORTHCH:  cpu time    0.0300: real time    0.0306
       DOS:  cpu time    0.0010: real time    0.0007
    --------------------------------------------
      LOOP:  cpu time    1.8657: real time    1.8829

 eigenvalue-minimisations  :  1008
 total energy-change (2. order) :-0.2289369E+02  (-0.1421724E+02)
 number of electron       8.0000000 magnetization 
 augmentation part        8.0000000 magnetization 

 Free energy of the ion-electron system (eV)
  ---------------------------------------------------
  alpha Z        PSCENC =         1.36319056
  Ewald energy   TEWEN  =      2215.41463789
  -Hartree energ DENC   =     -2422.22532422
  -exchange      EXHF   =         0.00000000
  -V(xc)+E(xc)   XCENC  =        14.44138122
  PAW double counting   =       228.69403340     -218.18290438
  entropy T*S    EENTRO =        -0.00105849
  eigenvalues    EBANDS =      -127.39080500
  atomic energy  EATOM  =       294.30319316
  Solvation  Ediel_sol  =         0.00000000
  ---------------------------------------------------
  free energy    TOTEN  =       -13.58365588 eV

  energy without entropy =      -13.58259738  energy(sigma->0) =      -13.58312663


--------------------------------------------------------------------------------------------------------




--------------------------------------- Iteration      1(   5)  ---------------------------------------


    EDDIAG:  cpu time    0.6299: real time    0.6404
  RMM-DIIS:  cpu time    1.2188: real time    1.2216
    ORTHCH:  cpu time    0.0300: real time    0.0305
       DOS:  cpu time    0.0010: real time    0.0004
    --------------------------------------------
      LOOP:  cpu time    1.8797: real time    1.8930

 eigenvalue-minimisations  :  1008
 total energy-change (2. order) :-0.4751770E+01  (-0.3734410E+01)
 number of electron       8.0000000 magnetization 
 augmentation part        8.0000000 magnetization 

 Free energy of the ion-electron system (eV)
  ---------------------------------------------------
  alpha Z        PSCENC =         1.36319056
  Ewald energy   TEWEN  =      2215.41463789
  -Hartree energ DENC   =     -2422.22532422
  -exchange      EXHF   =         0.00000000
  -V(xc)+E(xc)   XCENC  =        14.44138122
  PAW double counting   =       228.69403340     -218.18290438
  entropy T*S    EENTRO =        -0.00000000
  eigenvalues    EBANDS =      -132.14363379
  atomic energy  EATOM  =       294.30319316
  Solvation  Ediel_sol  =         0.00000000
  ---------------------------------------------------
  free energy    TOTEN  =       -18.33542617 eV

  energy without entropy =      -18.33542617  energy(sigma->0) =      -18.33542617


--------------------------------------------------------------------------------------------------------




--------------------------------------- Iteration      1(   6)  ---------------------------------------


    EDDIAG:  cpu time    0.6229: real time    0.6365
  RMM-DIIS:  cpu time    1.2248: real time    1.2267
    ORTHCH:  cpu time    0.0310: real time    0.0305
       DOS:  cpu time    0.0000: real time    0.0004
    --------------------------------------------
      LOOP:  cpu time    1.8787: real time    1.8941

 eigenvalue-minimisations  :  1008
 total energy-change (2. order) :-0.1028732E+01  (-0.8530191E+00)
 number of electron       8.0000000 magnetization 
 augmentation part        8.0000000 magnetization 

 Free energy of the ion-electron system (eV)
  ---------------------------------------------------
  alpha Z        PSCENC =         1.36319056
  Ewald energy   TEWEN  =      2215.41463789
  -Hartree energ DENC   =     -2422.22532422
  -exchange      EXHF   =         0.00000000
  -V(xc)+E(xc)   XCENC  =        14.44138122
  PAW double counting   =       228.69403340     -218.18290438
  entropy T*S    EENTRO =        -0.00000000
  eigenvalues    EBANDS =      -133.17236593
  atomic energy  EATOM  =       294.30319316
  Solvation  Ediel_sol  =         0.00000000
  ---------------------------------------------------
  free energy    TOTEN  =       -19.36415831 eV

  energy without entropy =      -19.36415831  energy(sigma->0) =      -19.36415831


--------------------------------------------------------------------------------------------------------




--------------------------------------- Iteration      1(   7)  ---------------------------------------


    EDDIAG:  cpu time    0.6279: real time    0.6400
  RMM-DIIS:  cpu time    1.2218: real time    1.2247
    ORTHCH:  cpu time    0.0300: real time    0.0304
       DOS:  cpu time    0.0000: real time    0.0004
    --------------------------------------------
      LOOP:  cpu time    1.8807: real time    1.8955

 eigenvalue-minimisations  :  1008
 total energy-change (2. order) :-0.2349875E+00  (-0.1959548E+00)
 number of electron       8.0000000 magnetization 
 augmentation part        8.0000000 magnetization 

 Free energy of the ion-electron system (eV)
  ---------------------------------------------------
  alpha Z        PSCENC =         1.36319056
  Ewald energy   TEWEN  =      2215.41463789
  -Hartree energ DENC   =     -2422.22532422
  -exchange      EXHF   =         0.00000000
  -V(xc)+E(xc)   XCENC  =        14.44138122
  PAW double counting   =       228.69403340     -218.18290438
  entropy T*S    EENTRO =        -0.00000000
  eigenvalues    EBANDS =      -133.40735341
  atomic energy  EATOM  =       294.30319316
  Solvation  Ediel_sol  =         0.00000000
  ---------------------------------------------------
  free energy    TOTEN  =       -19.59914579 eV

  energy without entropy =      -19.59914579  energy(sigma->0) =      -19.59914579


--------------------------------------------------------------------------------------------------------




--------------------------------------- Iteration      1(   8)  ---------------------------------------


    EDDIAG:  cpu time    0.6239: real time    0.6355
  RMM-DIIS:  cpu time    1.2188: real time    1.2225
    ORTHCH:  cpu time    0.0300: real time    0.0305
       DOS:  cpu time    0.0000: real time    0.0004
    --------------------------------------------
      LOOP:  cpu time    1.8717: real time    1.8889

 eigenvalue-minimisations  :  1008
 total energy-change (2. order) :-0.6095264E-01  (-0.5042702E-01)
 number of electron       8.0000000 magnetization 
 augmentation part        8.0000000 magnetization 

 Free energy of the ion-electron system (eV)
  ---------------------------------------------------
  alpha Z        PSCENC =         1.36319056
  Ewald energy   TEWEN  =      2215.41463789
  -Hartree energ DENC   =     -2422.22532422
  -exchange      EXHF   =         0.00000000
  -V(xc)+E(xc)   XCENC  =        14.44138122
  PAW double counting   =       228.69403340     -218.18290438
  entropy T*S    EENTRO =        -0.00000000
  eigenvalues    EBANDS =      -133.46830605
  atomic energy  EATOM  =       294.30319316
  Solvation  Ediel_sol  =         0.00000000
  ---------------------------------------------------
  free energy    TOTEN  =       -19.66009843 eV

  energy without entropy =      -19.66009843  energy(sigma->0) =      -19.66009843


--------------------------------------------------------------------------------------------------------




--------------------------------------- Iteration      1(   9)  ---------------------------------------


    EDDIAG:  cpu time    0.6289: real time    0.6384
  RMM-DIIS:  cpu time    2.3586: real time    2.3910
    ORTHCH:  cpu time    0.0290: real time    0.0306
       DOS:  cpu time    0.0010: real time    0.0005
    --------------------------------------------
      LOOP:  cpu time    3.0175: real time    3.0605

 eigenvalue-minimisations  :  2027
 total energy-change (2. order) :-0.2257039E-01  (-0.1968243E-01)
 number of electron       8.0000000 magnetization 
 augmentation part        8.0000000 magnetization 

 Free energy of the ion-electron system (eV)
  ---------------------------------------------------
  alpha Z        PSCENC =         1.36319056
  Ewald energy   TEWEN  =      2215.41463789
  -Hartree energ DENC   =     -2422.22532422
  -exchange      EXHF   =         0.00000000
  -V(xc)+E(xc)   XCENC  =        14.44138122
  PAW double counting   =       228.69403340     -218.18290438
  entropy T*S    EENTRO =        -0.00000000
  eigenvalues    EBANDS =      -133.49087644
  atomic energy  EATOM  =       294.30319316
  Solvation  Ediel_sol  =         0.00000000
  ---------------------------------------------------
  free energy    TOTEN  =       -19.68266882 eV

  energy without entropy =      -19.68266882  energy(sigma->0) =      -19.68266882


--------------------------------------------------------------------------------------------------------




--------------------------------------- Iteration      1(  10)  ---------------------------------------


    EDDIAG:  cpu time    0.6249: real time    0.6378
  RMM-DIIS:  cpu time    2.5746: real time    2.5799
    ORTHCH:  cpu time    0.0300: real time    0.0307
       DOS:  cpu time    0.0010: real time    0.0004
    --------------------------------------------
      LOOP:  cpu time    3.2305: real time    3.2488

 eigenvalue-minimisations  :  2073
 total energy-change (2. order) :-0.4121520E-02  (-0.3531027E-02)
 number of electron       8.0000000 magnetization 
 augmentation part        8.0000000 magnetization 

 Free energy of the ion-electron system (eV)
  ---------------------------------------------------
  alpha Z        PSCENC =         1.36319056
  Ewald energy   TEWEN  =      2215.41463789
  -Hartree energ DENC   =     -2422.22532422
  -exchange      EXHF   =         0.00000000
  -V(xc)+E(xc)   XCENC  =        14.44138122
  PAW double counting   =       228.69403340     -218.18290438
  entropy T*S    EENTRO =        -0.00000000
  eigenvalues    EBANDS =      -133.49499796
  atomic energy  EATOM  =       294.30319316
  Solvation  Ediel_sol  =         0.00000000
  ---------------------------------------------------
  free energy    TOTEN  =       -19.68679034 eV

  energy without entropy =      -19.68679034  energy(sigma->0) =      -19.68679034


--------------------------------------------------------------------------------------------------------




--------------------------------------- Iteration      1(  11)  ---------------------------------------


    EDDIAG:  cpu time    0.6229: real time    0.6371
  RMM-DIIS:  cpu time    2.2607: real time    2.2658
    ORTHCH:  cpu time    0.0300: real time    0.0306
       DOS:  cpu time    0.0010: real time    0.0004
    --------------------------------------------
      LOOP:  cpu time    2.9146: real time    2.9339

 eigenvalue-minimisations  :  2031
 total energy-change (2. order) :-0.1550458E-03  (-0.1205590E-03)
 number of electron       8.0000000 magnetization 
 augmentation part        8.0000000 magnetization 

 Free energy of the ion-electron system (eV)
  ---------------------------------------------------
  alpha Z        PSCENC =         1.36319056
  Ewald energy   TEWEN  =      2215.41463789
  -Hartree energ DENC   =     -2422.22532422
  -exchange      EXHF   =         0.00000000
  -V(xc)+E(xc)   XCENC  =        14.44138122
  PAW double counting   =       228.69403340     -218.18290438
  entropy T*S    EENTRO =        -0.00000000
  eigenvalues    EBANDS =      -133.49515300
  atomic energy  EATOM  =       294.30319316
  Solvation  Ediel_sol  =         0.00000000
  ---------------------------------------------------
  free energy    TOTEN  =       -19.68694538 eV

  energy without entropy =      -19.68694538  energy(sigma->0) =      -19.68694538


--------------------------------------------------------------------------------------------------------




--------------------------------------- Iteration      1(  12)  ---------------------------------------


    EDDIAG:  cpu time    0.6219: real time    0.6312
  RMM-DIIS:  cpu time    2.5576: real time    2.5650
    ORTHCH:  cpu time    0.0300: real time    0.0305
       DOS:  cpu time    0.0010: real time    0.0004
    CHARGE:  cpu time    0.1700: real time    0.1903
    MIXING:  cpu time    0.0030: real time    0.0106
    --------------------------------------------
      LOOP:  cpu time    3.3835: real time    3.4281

 eigenvalue-minimisations  :  2055
 total energy-change (2. order) :-0.2696912E-04  (-0.2175746E-04)
 number of electron       8.0000001 magnetization 
 augmentation part       -0.0159495 magnetization 

 Broyden mixing:
  rms(total) = 0.90009E+00    rms(broyden)= 0.90002E+00
  rms(prec ) = 0.91334E+00
  weight for this iteration     100.00

 Free energy of the ion-electron system (eV)
  ---------------------------------------------------
  alpha Z        PSCENC =         1.36319056
  Ewald energy   TEWEN  =      2215.41463789
  -Hartree energ DENC   =     -2422.22532422
  -exchange      EXHF   =         0.00000000
  -V(xc)+E(xc)   XCENC  =        14.44138122
  PAW double counting   =       228.69403340     -218.18290438
  entropy T*S    EENTRO =        -0.00000000
  eigenvalues    EBANDS =      -133.49517997
  atomic energy  EATOM  =       294.30319316
  Solvation  Ediel_sol  =         0.00000000
  ---------------------------------------------------
  free energy    TOTEN  =       -19.68697235 eV

  energy without entropy =      -19.68697235  energy(sigma->0) =      -19.68697235


--------------------------------------------------------------------------------------------------------




--------------------------------------- Iteration      1(  13)  ---------------------------------------


    POTLOK:  cpu time    0.0220: real time    0.0291
    SETDIJ:  cpu time    0.0010: real time    0.0017
    EDDIAG:  cpu time    0.6149: real time    0.6179
  RMM-DIIS:  cpu time    2.2367: real time    2.2419
    ORTHCH:  cpu time    0.0310: real time    0.0311
       DOS:  cpu time    0.0010: real time    0.0005
    CHARGE:  cpu time    0.1640: real time    0.1654
    MIXING:  cpu time    0.0030: real time    0.0119
    --------------------------------------------
      LOOP:  cpu time    3.0735: real time    3.0995

 eigenvalue-minimisations  :  2016
 total energy-change (2. order) : 0.8577425E+00  (-0.4242355E-01)
 number of electron       8.0000001 magnetization 
 augmentation part       -0.0182990 magnetization 

 Broyden mixing:
  rms(total) = 0.58585E+00    rms(broyden)= 0.58585E+00
  rms(prec ) = 0.59205E+00
  weight for this iteration     100.00

 eigenvalues of (default mixing * dielectric matrix)
  average eigenvalue GAMMA=   2.6428
  2.6428

 Free energy of the ion-electron system (eV)
  ---------------------------------------------------
  alpha Z        PSCENC =         1.36319056
  Ewald energy   TEWEN  =      2215.41463789
  -Hartree energ DENC   =     -2433.33525538
  -exchange      EXHF   =         0.00000000
  -V(xc)+E(xc)   XCENC  =        14.88139955
  PAW double counting   =       985.13537757     -974.74459490
  entropy T*S    EENTRO =        -0.00000000
  eigenvalues    EBANDS =      -121.84717832
  atomic energy  EATOM  =       294.30319316
  Solvation  Ediel_sol  =         0.00000000
  ---------------------------------------------------
  free energy    TOTEN  =       -18.82922988 eV

  energy without entropy =      -18.82922988  energy(sigma->0) =      -18.82922988


--------------------------------------------------------------------------------------------------------




--------------------------------------- Iteration      1(  14)  ---------------------------------------


    POTLOK:  cpu time    0.0220: real time    0.0293
    SETDIJ:  cpu time    0.0010: real time    0.0017
    EDDIAG:  cpu time    0.6159: real time    0.6177
  RMM-DIIS:  cpu time    2.2117: real time    2.2211
    ORTHCH:  cpu time    0.0310: real time    0.0310
       DOS:  cpu time    0.0000: real time    0.0005
    CHARGE:  cpu time    0.1650: real time    0.1654
    MIXING:  cpu time    0.0020: real time    0.0075
    --------------------------------------------
      LOOP:  cpu time    3.0485: real time    3.0741

 eigenvalue-minimisations  :  2016
 total energy-change (2. order) : 0.3231247E+00  (-0.8959973E-01)
 number of electron       8.0000001 magnetization 
 augmentation part       -0.0212772 magnetization 

 Broyden mixing:
  rms(total) = 0.11406E+00    rms(broyden)= 0.11406E+00
  rms(prec ) = 0.11660E+00
  weight for this iteration     100.00

 eigenvalues of (default mixing * dielectric matrix)
  average eigenvalue GAMMA=   2.2345
  2.2345  2.2345

 Free energy of the ion-electron system (eV)
  ---------------------------------------------------
  alpha Z        PSCENC =         1.36319056
  Ewald energy   TEWEN  =      2215.41463789
  -Hartree energ DENC   =     -2451.56411030
  -exchange      EXHF   =         0.00000000
  -V(xc)+E(xc)   XCENC  =        15.61714609
  PAW double counting   =      3773.54113509    -3763.25687333
  entropy T*S    EENTRO =        -0.00000000
  eigenvalues    EBANDS =      -103.92442433
  atomic energy  EATOM  =       294.30319316
  Solvation  Ediel_sol  =         0.00000000
  ---------------------------------------------------
  free energy    TOTEN  =       -18.50610517 eV

  energy without entropy =      -18.50610517  energy(sigma->0) =      -18.50610517


--------------------------------------------------------------------------------------------------------




--------------------------------------- Iteration      1(  15)  ---------------------------------------


    POTLOK:  cpu time    0.0220: real time    0.0316
    SETDIJ:  cpu time    0.0020: real time    0.0017
    EDDIAG:  cpu time    0.6149: real time    0.6173
  RMM-DIIS:  cpu time    2.3256: real time    2.3306
    ORTHCH:  cpu time    0.0310: real time    0.0311
       DOS:  cpu time    0.0000: real time    0.0005
    CHARGE:  cpu time    0.1650: real time    0.1654
    MIXING:  cpu time    0.0020: real time    0.0041
    --------------------------------------------
      LOOP:  cpu time    3.1625: real time    3.1823

 eigenvalue-minimisations  :  2025
 total energy-change (2. order) : 0.1989598E-01  (-0.2410438E-02)
 number of electron       8.0000001 magnetization 
 augmentation part       -0.0207529 magnetization 

 Broyden mixing:
  rms(total) = 0.12226E-01    rms(broyden)= 0.12224E-01
  rms(prec ) = 0.15711E-01
  weight for this iteration     100.00

 eigenvalues of (default mixing * dielectric matrix)
  average eigenvalue GAMMA=   2.0044
  1.3514  2.3308  2.3308

 Free energy of the ion-electron system (eV)
  ---------------------------------------------------
  alpha Z        PSCENC =         1.36319056
  Ewald energy   TEWEN  =      2215.41463789
  -Hartree energ DENC   =     -2450.69270667
  -exchange      EXHF   =         0.00000000
  -V(xc)+E(xc)   XCENC  =        15.50565210
  PAW double counting   =      3994.97257745    -3984.62916222
  entropy T*S    EENTRO =        -0.00000000
  eigenvalues    EBANDS =      -104.72359145
  atomic energy  EATOM  =       294.30319316
  Solvation  Ediel_sol  =         0.00000000
  ---------------------------------------------------
  free energy    TOTEN  =       -18.48620919 eV

  energy without entropy =      -18.48620919  energy(sigma->0) =      -18.48620919


--------------------------------------------------------------------------------------------------------




--------------------------------------- Iteration      1(  16)  ---------------------------------------


    POTLOK:  cpu time    0.0210: real time    0.0316
    SETDIJ:  cpu time    0.0020: real time    0.0017
    EDDIAG:  cpu time    0.6159: real time    0.6180
  RMM-DIIS:  cpu time    2.3336: real time    2.3402
    ORTHCH:  cpu time    0.0310: real time    0.0310
       DOS:  cpu time    0.0010: real time    0.0005
    CHARGE:  cpu time    0.1650: real time    0.1655
    MIXING:  cpu time    0.0010: real time    0.0009
    --------------------------------------------
      LOOP:  cpu time    3.1705: real time    3.1893

 eigenvalue-minimisations  :  2027
 total energy-change (2. order) : 0.1502719E-02  (-0.4113000E-04)
 number of electron       8.0000001 magnetization 
 augmentation part       -0.0206968 magnetization 

 Broyden mixing:
  rms(total) = 0.81309E-02    rms(broyden)= 0.81306E-02
  rms(prec ) = 0.11289E-01
  weight for this iteration     100.00

 eigenvalues of (default mixing * dielectric matrix)
  average eigenvalue GAMMA=   2.0863
  0.9943  2.5297  2.5297  2.2915

 Free energy of the ion-electron system (eV)
  ---------------------------------------------------
  alpha Z        PSCENC =         1.36319056
  Ewald energy   TEWEN  =      2215.41463789
  -Hartree energ DENC   =     -2451.86869264
  -exchange      EXHF   =         0.00000000
  -V(xc)+E(xc)   XCENC  =        15.52019558
  PAW double counting   =      4045.59316200    -4035.24707819
  entropy T*S    EENTRO =        -0.00000000
  eigenvalues    EBANDS =      -103.56331482
  atomic energy  EATOM  =       294.30319316
  Solvation  Ediel_sol  =         0.00000000
  ---------------------------------------------------
  free energy    TOTEN  =       -18.48470647 eV

  energy without entropy =      -18.48470647  energy(sigma->0) =      -18.48470647


--------------------------------------------------------------------------------------------------------




--------------------------------------- Iteration      1(  17)  ---------------------------------------


    POTLOK:  cpu time    0.0210: real time    0.0294
    SETDIJ:  cpu time    0.0020: real time    0.0017
    EDDIAG:  cpu time    0.6149: real time    0.6166
  RMM-DIIS:  cpu time    2.2747: real time    2.2802
    ORTHCH:  cpu time    0.0310: real time    0.0311
       DOS:  cpu time    0.0000: real time    0.0005
    CHARGE:  cpu time    0.1660: real time    0.1653
    MIXING:  cpu time    0.0010: real time    0.0009
    --------------------------------------------
      LOOP:  cpu time    3.1105: real time    3.1257

 eigenvalue-minimisations  :  2016
 total energy-change (2. order) : 0.1253511E-02  (-0.5503584E-04)
 number of electron       8.0000001 magnetization 
 augmentation part       -0.0207465 magnetization 

 Broyden mixing:
  rms(total) = 0.60175E-02    rms(broyden)= 0.60174E-02
  rms(prec ) = 0.74269E-02
  weight for this iteration     100.00

 eigenvalues of (default mixing * dielectric matrix)
  average eigenvalue GAMMA=   2.1083
  3.7499  2.3611  1.0371  1.8736  1.5199

 Free energy of the ion-electron system (eV)
  ---------------------------------------------------
  alpha Z        PSCENC =         1.36319056
  Ewald energy   TEWEN  =      2215.41463789
  -Hartree energ DENC   =     -2454.15096791
  -exchange      EXHF   =         0.00000000
  -V(xc)+E(xc)   XCENC  =        15.54681872
  PAW double counting   =      3988.81023290    -3978.46583233
  entropy T*S    EENTRO =        -0.00000000
  eigenvalues    EBANDS =      -101.30472594
  atomic energy  EATOM  =       294.30319316
  Solvation  Ediel_sol  =         0.00000000
  ---------------------------------------------------
  free energy    TOTEN  =       -18.48345296 eV

  energy without entropy =      -18.48345296  energy(sigma->0) =      -18.48345296


--------------------------------------------------------------------------------------------------------




--------------------------------------- Iteration      1(  18)  ---------------------------------------


    POTLOK:  cpu time    0.0210: real time    0.0342
    SETDIJ:  cpu time    0.0020: real time    0.0017
    EDDIAG:  cpu time    0.6119: real time    0.6139
  RMM-DIIS:  cpu time    2.2837: real time    2.2898
    ORTHCH:  cpu time    0.0310: real time    0.0311
       DOS:  cpu time    0.0010: real time    0.0005
    CHARGE:  cpu time    0.1650: real time    0.1648
    MIXING:  cpu time    0.0010: real time    0.0023
    --------------------------------------------
      LOOP:  cpu time    3.1165: real time    3.1381

 eigenvalue-minimisations  :  2016
 total energy-change (2. order) : 0.5205875E-04  (-0.1608241E-04)
 number of electron       8.0000001 magnetization 
 augmentation part       -0.0207317 magnetization 

 Broyden mixing:
  rms(total) = 0.55709E-02    rms(broyden)= 0.55708E-02
  rms(prec ) = 0.61483E-02
  weight for this iteration     100.00

 eigenvalues of (default mixing * dielectric matrix)
  average eigenvalue GAMMA=   2.5724
  5.9626  2.9068  2.3915  2.1984  0.9877  0.9877

 Free energy of the ion-electron system (eV)
  ---------------------------------------------------
  alpha Z        PSCENC =         1.36319056
  Ewald energy   TEWEN  =      2215.41463789
  -Hartree energ DENC   =     -2455.35912399
  -exchange      EXHF   =         0.00000000
  -V(xc)+E(xc)   XCENC  =        15.55190489
  PAW double counting   =      4029.17969188    -4018.83078749
  entropy T*S    EENTRO =        -0.00000000
  eigenvalues    EBANDS =      -100.10610779
  atomic energy  EATOM  =       294.30319316
  Solvation  Ediel_sol  =         0.00000000
  ---------------------------------------------------
  free energy    TOTEN  =       -18.48340090 eV

  energy without entropy =      -18.48340090  energy(sigma->0) =      -18.48340090


--------------------------------------------------------------------------------------------------------




--------------------------------------- Iteration      1(  19)  ---------------------------------------


    POTLOK:  cpu time    0.0210: real time    0.0329
    SETDIJ:  cpu time    0.0010: real time    0.0017
    EDDIAG:  cpu time    0.6129: real time    0.6140
  RMM-DIIS:  cpu time    2.2957: real time    2.3021
    ORTHCH:  cpu time    0.0310: real time    0.0310
       DOS:  cpu time    0.0010: real time    0.0005
    CHARGE:  cpu time    0.1650: real time    0.1650
    MIXING:  cpu time    0.0010: real time    0.0010
    --------------------------------------------
      LOOP:  cpu time    3.1285: real time    3.1481

 eigenvalue-minimisations  :  2016
 total energy-change (2. order) :-0.4663754E-03  (-0.1436119E-04)
 number of electron       8.0000001 magnetization 
 augmentation part       -0.0207699 magnetization 

 Broyden mixing:
  rms(total) = 0.15240E-02    rms(broyden)= 0.15239E-02
  rms(prec ) = 0.17982E-02
  weight for this iteration     100.00

 eigenvalues of (default mixing * dielectric matrix)
  average eigenvalue GAMMA=   2.3958
  6.0861  2.9584  2.2896  2.1532  1.4173  0.9968  0.8692

 Free energy of the ion-electron system (eV)
  ---------------------------------------------------
  alpha Z        PSCENC =         1.36319056
  Ewald energy   TEWEN  =      2215.41463789
  -Hartree energ DENC   =     -2456.60283957
  -exchange      EXHF   =         0.00000000
  -V(xc)+E(xc)   XCENC  =        15.55931541
  PAW double counting   =      4001.60593594    -3991.25924549
  entropy T*S    EENTRO =        -0.00000000
  eigenvalues    EBANDS =       -98.86805517
  atomic energy  EATOM  =       294.30319316
  Solvation  Ediel_sol  =         0.00000000
  ---------------------------------------------------
  free energy    TOTEN  =       -18.48386728 eV

  energy without entropy =      -18.48386728  energy(sigma->0) =      -18.48386728


--------------------------------------------------------------------------------------------------------




--------------------------------------- Iteration      1(  20)  ---------------------------------------


    POTLOK:  cpu time    0.0210: real time    0.0348
    SETDIJ:  cpu time    0.0010: real time    0.0017
    EDDIAG:  cpu time    0.6119: real time    0.6140
  RMM-DIIS:  cpu time    2.3126: real time    2.3207
    ORTHCH:  cpu time    0.0310: real time    0.0310
       DOS:  cpu time    0.0010: real time    0.0005
    CHARGE:  cpu time    0.1640: real time    0.1651
    MIXING:  cpu time    0.0010: real time    0.0011
    --------------------------------------------
      LOOP:  cpu time    3.1435: real time    3.1687

 eigenvalue-minimisations  :  2021
 total energy-change (2. order) :-0.2936556E-03  (-0.6113421E-06)
 number of electron       8.0000001 magnetization 
 augmentation part       -0.0207701 magnetization 

 Broyden mixing:
  rms(total) = 0.19028E-02    rms(broyden)= 0.19028E-02
  rms(prec ) = 0.20318E-02
  weight for this iteration     100.00

 eigenvalues of (default mixing * dielectric matrix)
  average eigenvalue GAMMA=   2.7619
  7.6833  4.1710  2.7068  2.2986  2.2986  0.9912  0.9912  0.9547

 Free energy of the ion-electron system (eV)
  ---------------------------------------------------
  alpha Z        PSCENC =         1.36319056
  Ewald energy   TEWEN  =      2215.41463789
  -Hartree energ DENC   =     -2456.71723254
  -exchange      EXHF   =         0.00000000
  -V(xc)+E(xc)   XCENC  =        15.55882216
  PAW double counting   =      3996.75064131    -3986.40401440
  entropy T*S    EENTRO =        -0.00000000
  eigenvalues    EBANDS =       -98.75339906
  atomic energy  EATOM  =       294.30319316
  Solvation  Ediel_sol  =         0.00000000
  ---------------------------------------------------
  free energy    TOTEN  =       -18.48416093 eV

  energy without entropy =      -18.48416093  energy(sigma->0) =      -18.48416093


--------------------------------------------------------------------------------------------------------




--------------------------------------- Iteration      1(  21)  ---------------------------------------


    POTLOK:  cpu time    0.0220: real time    0.0367
    SETDIJ:  cpu time    0.0020: real time    0.0017
    EDDIAG:  cpu time    0.6119: real time    0.6142
  RMM-DIIS:  cpu time    2.2847: real time    2.2898
    ORTHCH:  cpu time    0.0300: real time    0.0309
       DOS:  cpu time    0.0000: real time    0.0004
    CHARGE:  cpu time    0.1650: real time    0.1651
    MIXING:  cpu time    0.0010: real time    0.0011
    --------------------------------------------
      LOOP:  cpu time    3.1175: real time    3.1398

 eigenvalue-minimisations  :  2016
 total energy-change (2. order) :-0.5446024E-03  (-0.4268457E-05)
 number of electron       8.0000001 magnetization 
 augmentation part       -0.0207630 magnetization 

 Broyden mixing:
  rms(total) = 0.61569E-03    rms(broyden)= 0.61567E-03
  rms(prec ) = 0.65171E-03
  weight for this iteration     100.00

 eigenvalues of (default mixing * dielectric matrix)
  average eigenvalue GAMMA=   2.9757
  8.3063  5.1190  3.2712  2.6219  2.2611  2.2611  1.0008  0.9700  0.9700

 Free energy of the ion-electron system (eV)
  ---------------------------------------------------
  alpha Z        PSCENC =         1.36319056
  Ewald energy   TEWEN  =      2215.41463789
  -Hartree energ DENC   =     -2456.90221721
  -exchange      EXHF   =         0.00000000
  -V(xc)+E(xc)   XCENC  =        15.55706143
  PAW double counting   =      4009.10083170    -3998.75358298
  entropy T*S    EENTRO =        -0.00000000
  eigenvalues    EBANDS =       -98.56782008
  atomic energy  EATOM  =       294.30319316
  Solvation  Ediel_sol  =         0.00000000
  ---------------------------------------------------
  free energy    TOTEN  =       -18.48470554 eV

  energy without entropy =      -18.48470554  energy(sigma->0) =      -18.48470554


--------------------------------------------------------------------------------------------------------




--------------------------------------- Iteration      1(  22)  ---------------------------------------


    POTLOK:  cpu time    0.0220: real time    0.0331
    SETDIJ:  cpu time    0.0010: real time    0.0017
    EDDIAG:  cpu time    0.6129: real time    0.6139
  RMM-DIIS:  cpu time    2.2037: real time    2.2089
    ORTHCH:  cpu time    0.0310: real time    0.0310
       DOS:  cpu time    0.0010: real time    0.0005
    CHARGE:  cpu time    0.1640: real time    0.1650
    MIXING:  cpu time    0.0010: real time    0.0011
    --------------------------------------------
      LOOP:  cpu time    3.0355: real time    3.0552

 eigenvalue-minimisations  :  1958
 total energy-change (2. order) :-0.9574659E-04  (-0.2767712E-06)
 number of electron       8.0000001 magnetization 
 augmentation part       -0.0207624 magnetization 

 Broyden mixing:
  rms(total) = 0.18780E-03    rms(broyden)= 0.18780E-03
  rms(prec ) = 0.21311E-03
  weight for this iteration     100.00

 eigenvalues of (default mixing * dielectric matrix)
  average eigenvalue GAMMA=   2.8026
  8.4294  5.2990  3.2408  2.6367  2.2994  2.2994  0.9971  0.9743  0.9743  0.8760

 Free energy of the ion-electron system (eV)
  ---------------------------------------------------
  alpha Z        PSCENC =         1.36319056
  Ewald energy   TEWEN  =      2215.41463789
  -Hartree energ DENC   =     -2456.93453514
  -exchange      EXHF   =         0.00000000
  -V(xc)+E(xc)   XCENC  =        15.55699546
  PAW double counting   =      4005.81212709    -3995.46490267
  entropy T*S    EENTRO =        -0.00000000
  eigenvalues    EBANDS =       -98.53550764
  atomic energy  EATOM  =       294.30319316
  Solvation  Ediel_sol  =         0.00000000
  ---------------------------------------------------
  free energy    TOTEN  =       -18.48480128 eV

  energy without entropy =      -18.48480128  energy(sigma->0) =      -18.48480128


--------------------------------------------------------------------------------------------------------




--------------------------------------- Iteration      1(  23)  ---------------------------------------


    POTLOK:  cpu time    0.0210: real time    0.0309
    SETDIJ:  cpu time    0.0010: real time    0.0017
    EDDIAG:  cpu time    0.6139: real time    0.6155
  RMM-DIIS:  cpu time    2.2697: real time    2.2747
    ORTHCH:  cpu time    0.0300: real time    0.0309
       DOS:  cpu time    0.0010: real time    0.0005
    CHARGE:  cpu time    0.1660: real time    0.1656
    MIXING:  cpu time    0.0020: real time    0.0071
    --------------------------------------------
      LOOP:  cpu time    3.1045: real time    3.1269

 eigenvalue-minimisations  :  2016
 total energy-change (2. order) :-0.1724592E-04  (-0.3409786E-07)
 number of electron       8.0000001 magnetization 
 augmentation part       -0.0207637 magnetization 

 Broyden mixing:
  rms(total) = 0.87853E-04    rms(broyden)= 0.87850E-04
  rms(prec ) = 0.10591E-03
  weight for this iteration     100.00

 eigenvalues of (default mixing * dielectric matrix)
  average eigenvalue GAMMA=   3.0035
  8.8020  5.9242  4.2580  2.9661  2.5900  2.2886  2.2886  0.9982  0.9702  0.9762
  0.9762

 Free energy of the ion-electron system (eV)
  ---------------------------------------------------
  alpha Z        PSCENC =         1.36319056
  Ewald energy   TEWEN  =      2215.41463789
  -Hartree energ DENC   =     -2456.96242495
  -exchange      EXHF   =         0.00000000
  -V(xc)+E(xc)   XCENC  =        15.55730836
  PAW double counting   =      4005.10390020    -3994.75676681
  entropy T*S    EENTRO =        -0.00000000
  eigenvalues    EBANDS =       -98.50785694
  atomic energy  EATOM  =       294.30319316
  Solvation  Ediel_sol  =         0.00000000
  ---------------------------------------------------
  free energy    TOTEN  =       -18.48481853 eV

  energy without entropy =      -18.48481853  energy(sigma->0) =      -18.48481853


--------------------------------------------------------------------------------------------------------




--------------------------------------- Iteration      1(  24)  ---------------------------------------


    POTLOK:  cpu time    0.0300: real time    0.0306
    SETDIJ:  cpu time    0.0020: real time    0.0017
    EDDIAG:  cpu time    0.6129: real time    0.6151
  RMM-DIIS:  cpu time    2.1927: real time    2.2006
    ORTHCH:  cpu time    0.0300: real time    0.0305
       DOS:  cpu time    0.0010: real time    0.0005
    CHARGE:  cpu time    0.1650: real time    0.1658
    MIXING:  cpu time    0.0010: real time    0.0012
    --------------------------------------------
      LOOP:  cpu time    3.0345: real time    3.0461

 eigenvalue-minimisations  :  1888
 total energy-change (2. order) :-0.1391921E-04  (-0.1196971E-07)
 number of electron       8.0000001 magnetization 
 augmentation part       -0.0207638 magnetization 

 Broyden mixing:
  rms(total) = 0.25895E-04    rms(broyden)= 0.25894E-04
  rms(prec ) = 0.35511E-04
  weight for this iteration     100.00

 eigenvalues of (default mixing * dielectric matrix)
  average eigenvalue GAMMA=   2.9157
  8.8209  6.0170  4.1648  2.8519  2.4638  2.4638  2.3480  1.9130  0.9710  0.9710
  1.0039  0.9992

 Free energy of the ion-electron system (eV)
  ---------------------------------------------------
  alpha Z        PSCENC =         1.36319056
  Ewald energy   TEWEN  =      2215.41463789
  -Hartree energ DENC   =     -2456.97953809
  -exchange      EXHF   =         0.00000000
  -V(xc)+E(xc)   XCENC  =        15.55733781
  PAW double counting   =      4005.64626544    -3995.29914045
  entropy T*S    EENTRO =        -0.00000000
  eigenvalues    EBANDS =       -98.49077876
  atomic energy  EATOM  =       294.30319316
  Solvation  Ediel_sol  =         0.00000000
  ---------------------------------------------------
  free energy    TOTEN  =       -18.48483245 eV

  energy without entropy =      -18.48483245  energy(sigma->0) =      -18.48483245


--------------------------------------------------------------------------------------------------------




--------------------------------------- Iteration      1(  25)  ---------------------------------------


    POTLOK:  cpu time    0.0210: real time    0.0305
    SETDIJ:  cpu time    0.0020: real time    0.0017
    EDDIAG:  cpu time    0.6129: real time    0.6155
  RMM-DIIS:  cpu time    2.1877: real time    2.1912
    ORTHCH:  cpu time    0.0300: real time    0.0305
       DOS:  cpu time    0.0010: real time    0.0005
    CHARGE:  cpu time    0.1650: real time    0.1657
    MIXING:  cpu time    0.0020: real time    0.0013
    --------------------------------------------
      LOOP:  cpu time    3.0215: real time    3.0368

 eigenvalue-minimisations  :  1741
 total energy-change (2. order) :-0.1706703E-05  (-0.1510555E-09)
 number of electron       8.0000001 magnetization 
 augmentation part       -0.0207638 magnetization 

 Broyden mixing:
  rms(total) = 0.37989E-04    rms(broyden)= 0.37989E-04
  rms(prec ) = 0.42010E-04
  weight for this iteration     100.00

 eigenvalues of (default mixing * dielectric matrix)
  average eigenvalue GAMMA=   3.0005
  8.9290  6.5458  4.9088  3.7489  2.8505  2.5528  2.2877  2.2877  1.0063  0.9770
  0.9770  0.9673  0.9673

 Free energy of the ion-electron system (eV)
  ---------------------------------------------------
  alpha Z        PSCENC =         1.36319056
  Ewald energy   TEWEN  =      2215.41463789
  -Hartree energ DENC   =     -2456.98231783
  -exchange      EXHF   =         0.00000000
  -V(xc)+E(xc)   XCENC  =        15.55733836
  PAW double counting   =      4005.38428179    -3995.03716351
  entropy T*S    EENTRO =        -0.00000000
  eigenvalues    EBANDS =       -98.48799456
  atomic energy  EATOM  =       294.30319316
  Solvation  Ediel_sol  =         0.00000000
  ---------------------------------------------------
  free energy    TOTEN  =       -18.48483415 eV

  energy without entropy =      -18.48483415  energy(sigma->0) =      -18.48483415


--------------------------------------------------------------------------------------------------------




--------------------------------------- Iteration      1(  26)  ---------------------------------------


    POTLOK:  cpu time    0.0310: real time    0.0329
    SETDIJ:  cpu time    0.0020: real time    0.0017
    EDDIAG:  cpu time    0.6149: real time    0.6154
  RMM-DIIS:  cpu time    2.1847: real time    2.1899
    ORTHCH:  cpu time    0.0300: real time    0.0305
       DOS:  cpu time    0.0000: real time    0.0005
    CHARGE:  cpu time    0.1660: real time    0.1658
    MIXING:  cpu time    0.0020: real time    0.0013
    --------------------------------------------
      LOOP:  cpu time    3.0305: real time    3.0381

 eigenvalue-minimisations  :  1829
 total energy-change (2. order) :-0.1951509E-05  (-0.1286337E-08)
 number of electron       8.0000001 magnetization 
 augmentation part       -0.0207637 magnetization 

 Broyden mixing:
  rms(total) = 0.25428E-04    rms(broyden)= 0.25427E-04
  rms(prec ) = 0.26488E-04
  weight for this iteration     100.00

 eigenvalues of (default mixing * dielectric matrix)
  average eigenvalue GAMMA=   3.1666
  8.9251  7.7609  5.4677  4.3668  2.9436  2.9436  2.5045  2.2327  2.2327  0.9722
  0.9722  1.0171  0.9963  0.9963

 Free energy of the ion-electron system (eV)
  ---------------------------------------------------
  alpha Z        PSCENC =         1.36319056
  Ewald energy   TEWEN  =      2215.41463789
  -Hartree energ DENC   =     -2456.98559827
  -exchange      EXHF   =         0.00000000
  -V(xc)+E(xc)   XCENC  =        15.55729418
  PAW double counting   =      4005.66528693    -3995.31814273
  entropy T*S    EENTRO =        -0.00000000
  eigenvalues    EBANDS =       -98.48469783
  atomic energy  EATOM  =       294.30319316
  Solvation  Ediel_sol  =         0.00000000
  ---------------------------------------------------
  free energy    TOTEN  =       -18.48483611 eV

  energy without entropy =      -18.48483611  energy(sigma->0) =      -18.48483611


--------------------------------------------------------------------------------------------------------




--------------------------------------- Iteration      1(  27)  ---------------------------------------


    POTLOK:  cpu time    0.0210: real time    0.0365
    SETDIJ:  cpu time    0.0020: real time    0.0017
    EDDIAG:  cpu time    0.6119: real time    0.6145
  RMM-DIIS:  cpu time    2.1637: real time    2.1705
    ORTHCH:  cpu time    0.0300: real time    0.0305
       DOS:  cpu time    0.0010: real time    0.0005
    CHARGE:  cpu time    0.1660: real time    0.1658
    MIXING:  cpu time    0.0010: real time    0.0014
    --------------------------------------------
      LOOP:  cpu time    2.9965: real time    3.0214

 eigenvalue-minimisations  :  1802
 total energy-change (2. order) :-0.7779454E-06  (-0.3026383E-09)
 number of electron       8.0000001 magnetization 
 augmentation part       -0.0207637 magnetization 

 Broyden mixing:
  rms(total) = 0.80229E-05    rms(broyden)= 0.80207E-05
  rms(prec ) = 0.86123E-05
  weight for this iteration     100.00

 eigenvalues of (default mixing * dielectric matrix)
  average eigenvalue GAMMA=   3.1452
  9.2326  8.1958  5.8461  4.3050  3.5044  2.7579  2.5052  2.3301  2.3301  0.9732
  0.9732  0.9923  0.9923  1.0616  1.1784

 Free energy of the ion-electron system (eV)
  ---------------------------------------------------
  alpha Z        PSCENC =         1.36319056
  Ewald energy   TEWEN  =      2215.41463789
  -Hartree energ DENC   =     -2456.98724561
  -exchange      EXHF   =         0.00000000
  -V(xc)+E(xc)   XCENC  =        15.55732040
[...]
     17       7.6964      0.00000
     18       9.0665      0.00000
     19       9.1642      0.00000
     20       9.7116      0.00000
     21      11.3855      0.00000
     22      12.0663      0.00000
     23      12.6322      0.00000
     24      13.8135      0.00000

 k-point    30 :      -0.2083    0.2083    0.0000
  band No.  band energies     occupation 
      1     -21.6184      2.00000
      2      -9.5570      2.00000
      3      -9.5414      2.00000
      4      -7.8267      2.00000
      5       1.4735      0.00000
      6       2.2514      0.00000
      7       2.4929      0.00000
      8       2.7988      0.00000
      9       3.0085      0.00000
     10       3.6469      0.00000
     11       3.9476      0.00000
     12       4.8652      0.00000
     13       4.8674      0.00000
     14       5.0759      0.00000
     15       5.2706      0.00000
     16       6.4846      0.00000
     17       6.9146      0.00000
     18       8.4090      0.00000
     19       8.7144      0.00000
     20       8.9271      0.00000
     21      10.6659      0.00000
     22      10.9730      0.00000
     23      11.2980      0.00000
     24      13.2323      0.00000

 k-point    31 :       0.2917    0.2917    0.0000
  band No.  band energies     occupation 
      1     -16.9984      2.00000
      2     -14.8461      2.00000
      3     -13.1395      2.00000
      4      -4.4923      2.00000
      5      -1.9296      0.00000
      6       7.5131      0.00000
      7       8.0217      0.00000
      8       9.4092      0.00000
      9       9.4260      0.00000
     10       9.6183      0.00000
     11       9.8017      0.00000
     12       9.8540      0.00000
     13       9.9650      0.00000
     14      10.6777      0.00000
     15      10.7906      0.00000
     16      11.8761      0.00000
     17      11.9992      0.00000
     18      12.9421      0.00000
     19      13.0656      0.00000
     20      13.0883      0.00000
     21      13.2795      0.00000
     22      13.5129      0.00000
     23      13.6097      0.00000
     24      13.6581      0.00000

 k-point    32 :       0.3750    0.2917    0.0000
  band No.  band energies     occupation 
      1     -16.3362      2.00000
      2     -15.3901      2.00000
      3     -13.4290      2.00000
      4      -3.8721      2.00000
      5      -2.5514      0.00000
      6       7.4645      0.00000
      7       9.0062      0.00000
      8       9.5531      0.00000
      9      10.0090      0.00000
     10      10.5304      0.00000
     11      10.6566      0.00000
     12      10.9965      0.00000
     13      11.1030      0.00000
     14      11.7333      0.00000
     15      11.8771      0.00000
     16      11.9842      0.00000
     17      12.0024      0.00000
     18      12.2537      0.00000
     19      12.3586      0.00000
     20      12.7510      0.00000
     21      12.8500      0.00000
     22      12.9972      0.00000
     23      13.1086      0.00000
     24      13.2608      0.00000

 k-point    33 :       0.4583    0.2917    0.0000
  band No.  band energies     occupation 
      1     -17.6917      2.00000
      2     -14.3906      2.00000
      3     -12.5670      2.00000
      4      -5.1985      2.00000
      5      -1.2149      0.00000
      6       7.0077      0.00000
      7       7.3486      0.00000
      8       8.2774      0.00000
      9       8.4347      0.00000
     10       8.7516      0.00000
     11       8.9229      0.00000
     12       8.9797      0.00000
     13       9.6560      0.00000
     14       9.7408      0.00000
     15       9.9098      0.00000
     16      10.8737      0.00000
     17      10.9436      0.00000
     18      12.3679      0.00000
     19      12.5346      0.00000
     20      13.2092      0.00000
     21      13.5393      0.00000
     22      13.7997      0.00000
     23      14.1172      0.00000
     24      14.3028      0.00000

 k-point    34 :      -0.4583    0.2917    0.0000
  band No.  band energies     occupation 
      1     -18.9490      2.00000
      2     -13.6329      2.00000
      3     -10.9865      2.00000
      4      -6.5353      2.00000
      5       0.2025      0.00000
      6       5.1964      0.00000
      7       5.9733      0.00000
      8       6.3496      0.00000
      9       6.6170      0.00000
     10       6.7480      0.00000
     11       6.8694      0.00000
     12       7.4259      0.00000
     13       7.7807      0.00000
     14       8.5845      0.00000
     15       9.0559      0.00000
     16       9.9287      0.00000
     17      10.3807      0.00000
     18      10.7205      0.00000
     19      11.1503      0.00000
     20      12.5861      0.00000
     21      12.6863      0.00000
     22      13.7888      0.00000
     23      14.3041      0.00000
     24      14.6310      0.00000

 k-point    35 :      -0.3750    0.2917    0.0000
  band No.  band energies     occupation 
      1     -19.9511      2.00000
      2     -12.7635      2.00000
      3      -9.4829      2.00000
      4      -7.6388      2.00000
      5       1.5536      0.00000
      6       3.7779      0.00000
      7       4.5978      0.00000
      8       4.8741      0.00000
      9       5.0790      0.00000
     10       5.1694      0.00000
     11       5.3910      0.00000
     12       6.0074      0.00000
     13       6.3212      0.00000
     14       7.2312      0.00000
     15       7.6084      0.00000
     16       8.7825      0.00000
     17       9.2552      0.00000
     18      10.6269      0.00000
     19      11.0848      0.00000
     20      11.2898      0.00000
     21      12.5621      0.00000
     22      13.6078      0.00000
     23      13.8730      0.00000
     24      13.9061      0.00000

 k-point    36 :      -0.2917    0.2917    0.0000
  band No.  band energies     occupation 
      1     -20.6597      2.00000
      2     -11.7243      2.00000
      3      -8.6426      2.00000
      4      -8.4356      2.00000
      5       2.7761      0.00000
      6       2.7917      0.00000
      7       3.6279      0.00000
      8       3.8540      0.00000
      9       4.1609      0.00000
     10       4.3538      0.00000
     11       4.5462      0.00000
     12       5.0046      0.00000
     13       5.3113      0.00000
     14       6.2392      0.00000
     15       6.6018      0.00000
     16       7.8130      0.00000
     17       8.2540      0.00000
     18       9.7158      0.00000
     19      10.2615      0.00000
     20      11.4203      0.00000
     21      11.9199      0.00000
     22      12.2616      0.00000
     23      12.6311      0.00000
     24      14.2566      0.00000

 k-point    37 :       0.3750    0.3750    0.0000
  band No.  band energies     occupation 
      1     -16.5073      2.00000
      2     -15.6117      2.00000
      3     -12.8880      2.00000
      4      -4.2159      2.00000
      5      -2.2644      0.00000
      6       7.6752      0.00000
      7       8.7430      0.00000
      8       9.0302      0.00000
      9       9.3645      0.00000
     10      10.4136      0.00000
     11      10.7557      0.00000
     12      10.7753      0.00000
     13      10.8350      0.00000
     14      11.0460      0.00000
     15      11.1756      0.00000
     16      11.2405      0.00000
     17      11.3013      0.00000
     18      11.8787      0.00000
     19      11.9237      0.00000
     20      12.0932      0.00000
     21      12.1641      0.00000
     22      12.8693      0.00000
     23      13.1197      0.00000
     24      13.3254      0.00000

 k-point    38 :       0.4583    0.3750    0.0000
  band No.  band energies     occupation 
      1     -17.5080      2.00000
      2     -15.4551      2.00000
      3     -11.3588      2.00000
      4      -5.2188      2.00000
      5      -1.4482      0.00000
      6       6.5828      0.00000
      7       7.3493      0.00000
      8       7.8801      0.00000
      9       8.6182      0.00000
     10       8.8019      0.00000
     11       9.1043      0.00000
     12       9.3709      0.00000
     13       9.6912      0.00000
     14      10.0157      0.00000
     15      10.0306      0.00000
     16      10.9748      0.00000
     17      11.2581      0.00000
     18      11.3359      0.00000
     19      11.4627      0.00000
     20      11.7672      0.00000
     21      11.8415      0.00000
     22      12.4946      0.00000
     23      12.5562      0.00000
     24      12.8780      0.00000

 k-point    39 :      -0.4583    0.3750    0.0000
  band No.  band energies     occupation 
      1     -18.5739      2.00000
      2     -14.8100      2.00000
      3      -9.9635      2.00000
      4      -6.2334      2.00000
      5      -0.5005      0.00000
      6       4.8264      0.00000
      7       5.7598      0.00000
      8       6.5690      0.00000
      9       6.9176      0.00000
     10       7.1919      0.00000
     11       7.4177      0.00000
     12       8.0097      0.00000
     13       8.3397      0.00000
     14       9.1896      0.00000
     15       9.6139      0.00000
     16      10.5718      0.00000
     17      10.6109      0.00000
     18      11.2511      0.00000
     19      11.4342      0.00000
     20      12.3548      0.00000
     21      12.4228      0.00000
     22      12.6871      0.00000
     23      12.7676      0.00000
     24      13.2929      0.00000

 k-point    40 :      -0.3750    0.3750    0.0000
  band No.  band energies     occupation 
      1     -19.4070      2.00000
      2     -13.8797      2.00000
      3      -9.2472      2.00000
      4      -7.0714      2.00000
      5       0.5487      0.00000
      6       4.1909      0.00000
      7       4.5903      0.00000
      8       5.3831      0.00000
      9       5.6700      0.00000
     10       5.9612      0.00000
     11       6.1763      0.00000
     12       6.7970      0.00000
     13       7.1063      0.00000
     14       8.0170      0.00000
     15       8.3905      0.00000
     16       9.5602      0.00000
     17      10.0339      0.00000
     18      11.3740      0.00000
     19      11.7579      0.00000
     20      12.0381      0.00000
     21      12.7663      0.00000
     22      13.7049      0.00000
     23      13.8314      0.00000
     24      14.3013      0.00000

 k-point    41 :       0.4583    0.4583    0.0000
  band No.  band energies     occupation 
      1     -17.3455      2.00000
      2     -16.2711      2.00000
      3     -10.1271      2.00000
      4      -5.3913      2.00000
      5      -1.5739      0.00000
      6       4.7479      0.00000
      7       8.0150      0.00000
      8       8.1792      0.00000
      9       8.6913      0.00000
     10       9.0696      0.00000
     11       9.4015      0.00000
     12       9.4208      0.00000
     13       9.6287      0.00000
     14       9.6881      0.00000
     15       9.8810      0.00000
     16       9.9110      0.00000
     17      10.3385      0.00000
     18      10.5243      0.00000
     19      10.7722      0.00000
     20      10.8148      0.00000
     21      11.3551      0.00000
     22      11.7560      0.00000
     23      12.0093      0.00000
     24      12.0711      0.00000

 k-point    42 :      -0.4583    0.4583    0.0000
  band No.  band energies     occupation 
      1     -17.9399      2.00000
      2     -15.8229      2.00000
      3      -9.5645      2.00000
      4      -5.7877      2.00000
      5      -1.2217      0.00000
      6       4.0547      0.00000
      7       6.7248      0.00000
      8       7.5720      0.00000
      9       7.9383      0.00000
     10       8.2086      0.00000
     11       8.4326      0.00000
     12       9.0191      0.00000
     13       9.2431      0.00000
     14       9.3555      0.00000
     15      10.0279      0.00000
     16      10.3005      0.00000
     17      10.6161      0.00000
     18      10.6597      0.00000
     19      10.8986      0.00000
     20      11.1325      0.00000
     21      11.5655      0.00000
     22      11.8227      0.00000
     23      12.0238      0.00000
     24      12.2579      0.00000


--------------------------------------------------------------------------------------------------------


 soft charge-density along one line, spin component           1
         0         1         2         3         4         5         6         7         8         9
 total charge-density along one line
 
 pseudopotential strength for first ion, spin component:           1
 12.716  21.399  -0.000  -0.000   0.000  -0.000  -0.000   0.000
 21.399  36.010  -0.000  -0.000   0.000  -0.000  -0.000   0.000
 -0.000  -0.000  -3.176  -0.000  -0.000  -5.694  -0.000  -0.000
 -0.000  -0.000  -0.000  -3.177  -0.000  -0.000  -5.695  -0.000
  0.000   0.000  -0.000  -0.000  -3.176  -0.000  -0.000  -5.694
 -0.000  -0.000  -5.694  -0.000  -0.000 -10.184  -0.000  -0.000
 -0.000  -0.000  -0.000  -5.695  -0.000  -0.000 -10.187  -0.000
  0.000   0.000  -0.000  -0.000  -5.694  -0.000  -0.000 -10.184
 total augmentation occupancy for first ion, spin component:           1
  7.705  -2.685  -0.000   0.000   0.000   0.000   0.000   0.000
 -2.685   0.974   0.000   0.000   0.000   0.000   0.000   0.000
  0.000  -0.000   7.281   0.000   0.000  -2.476   0.000   0.000
  0.000   0.000  -0.000   3.268   0.000  -0.000  -0.877  -0.000
  0.000   0.000   0.000   0.000   7.281   0.000  -0.000  -2.476
 -0.000   0.000  -2.476   0.000   0.000   0.856  -0.000   0.000
  0.000   0.000   0.000  -0.877   0.000  -0.000   0.242  -0.000
  0.000   0.000   0.000   0.000  -2.476   0.000  -0.000   0.856


------------------------ aborting loop because EDIFF is reached ----------------------------------------


    CHARGE:  cpu time    0.1650: real time    0.1658
    FORLOC:  cpu time    0.0020: real time    0.0033
    FORNL :  cpu time    0.0850: real time    0.0953
    STRESS:  cpu time    1.1838: real time    1.1957
    FORCOR:  cpu time    0.0170: real time    0.0232
    FORHAR:  cpu time    0.0040: real time    0.0061
    MIXING:  cpu time    0.0040: real time    0.0282
    OFIELD:  cpu time    0.0010: real time    0.0022

  DFT-D2 method for vdW energy calculation
  -------------------------------------------------------------------

  Parameters of vdW forcefield:
         C6(Jnm^6/mol)     R0(A)
   -----------------------------
   C        1.750          1.452

  IVDW =   1
  VDW_RADIUS =    50.000 A
  VDW_S6 =     0.750
  VDW_SR =     1.000
  VDW_D =    20.000
  LVDW_EWALD = F

  Number of pair interactions contributing to vdW energy:   10033
  Edisp (eV):   -0.10826
    FORVDW:  cpu time    0.0090: real time    0.0218

  FORCE on cell =-STRESS in cart. coord.  units (eV):
  Direction    XX          YY          ZZ          XY          YZ          ZX
  --------------------------------------------------------------------------------------
  Alpha Z     1.36319     1.36319     1.36319
  Ewald    2483.13362  2483.12972 -2750.84886    -0.00000     0.00000     0.00000
  Hartree  2445.59931  2445.59932 -2434.21070     0.00000    -0.00000    -0.00000
  E(xc)     -32.32975   -32.32974   -33.29104     0.00000     0.00000     0.00000
  Local   -5044.29111 -5044.28951  5055.59827     0.00000    -0.00000     0.00000
  n-local     8.30909     8.30908     6.86982     0.18244    -0.00000    -0.00000
  augment     0.14324     0.14323     0.11915     0.00000     0.00000    -0.00000
  Kinetic   137.44161   137.47232   154.35340    -1.22659     0.00000     0.00000
  Fock        0.00000     0.00000     0.00000     0.00000     0.00000     0.00000
  vdW        -0.00005    -0.00005    -0.00007    -0.00000     0.00000     0.00000
  -------------------------------------------------------------------------------------
  Total      -0.61665    -0.61665    -0.04684     0.00000     0.00000    -0.00000
  in kB      -6.14183    -6.14186    -0.46649     0.00000     0.00000    -0.00000
  external pressure =       -4.25 kB  Pullay stress =        0.00 kB


 VOLUME and BASIS-vectors are now :
 -----------------------------------------------------------------------------
  energy-cutoff  :      875.00
  volume of cell :      160.86
      direct lattice vectors                 reciprocal lattice vectors
     1.238320935 -2.144840172  0.000000000     0.403772549 -0.233117603  0.000000000
     1.238320935  2.144840172  0.000000000     0.403772549  0.233117603  0.000000000
     0.000000000  0.000000000 30.282393743     0.000000000  0.000000000  0.033022489

  length of vectors
     2.476646543  2.476646543 30.282393743     0.466236086  0.466236086  0.033022489


 FORCES acting on ions
    electron-ion (+dipol)            ewald-force                    non-local-force                 convergence-correction
 -----------------------------------------------------------------------------------------------
   -.117E-07 0.132E-02 0.112E-07   -.135E-13 0.199E-02 0.000E+00   -.379E-16 -.107E-15 0.000E+00   -.506E-15 -.667E-10 -.100E-11
   -.120E-07 -.468E-03 0.459E-08   0.139E-13 -.199E-02 0.000E+00   0.370E-16 0.115E-15 0.000E+00   0.452E-14 0.142E-10 -.100E-11
 -----------------------------------------------------------------------------------------------
   -.237E-07 0.857E-03 0.158E-07   0.374E-15 0.108E-15 0.000E+00   -.861E-18 0.720E-17 0.000E+00   0.401E-14 -.526E-10 -.201E-11
 
 
 POSITION                                       TOTAL-FORCE (eV/Angst)
 -----------------------------------------------------------------------------------
      1.23832      2.14483     15.14120        -0.000000     -0.000000      0.000000
      1.23832     -0.71495     15.14120         0.000000      0.000000      0.000000
 -----------------------------------------------------------------------------------
    total drift:                               -0.000000      0.000857      0.000000


--------------------------------------------------------------------------------------------------------



  FREE ENERGIE OF THE ION-ELECTRON SYSTEM (eV)
  ---------------------------------------------------
  free  energy   TOTEN  =       -18.59309683 eV

  energy  without entropy=      -18.59309683  energy(sigma->0) =      -18.59309683
 


--------------------------------------------------------------------------------------------------------


    POTLOK:  cpu time    0.0240: real time    0.0265


--------------------------------------------------------------------------------------------------------


 stress matrix after NEB project (eV)
     -0.61665     -0.00000     -0.00000
      0.00000     -0.61665      0.00000
      0.00000      0.00000     -0.04684
  FORCES: max atom, RMS     0.000000    0.000000
  FORCE total and by dimension    0.000000    0.000000
  Stress total and by dimension    0.873327    0.616648


--------------------------------------------------------------------------------------------------------


  
 reached required accuracy - stopping structural energy minimisation
     LOOP+:  cpu time   81.3326: real time   82.1846
    4ORBIT:  cpu time    0.0000: real time    0.0000

 total amount of memory used by VASP MPI-rank0    72344. kBytes
=======================================================================

   base      :      30000. kBytes
   nonl-proj :      25981. kBytes
   fftplans  :       1683. kBytes
   grid      :       8239. kBytes
   one-center:          6. kBytes
   wavefun   :       6435. kBytes
 
  
  
 General timing and accounting informations for this job:
 ========================================================
  
                  Total CPU time used (sec):       83.494
                            User time (sec):       82.294
                          System time (sec):        1.200
                         Elapsed time (sec):       85.276
  
                   Maximum memory used (kb):      176440.
                   Average memory used (kb):           0.
  
                          Minor page faults:       125836
                          Major page faults:          288
                 Voluntary context switches:         9395
