 running on   24 total cores
 distrk:  each k-point on   24 cores,    1 groups
 distr:  one band on    1 cores,   24 groups
 using from now: INCAR     
 vasp.5.4.4.18Apr17-6-g9f103f2a35 (build Jan 14 2019 14:48:31) complex          
  
 POSCAR found type information on POSCAR  C 
 POSCAR found :  1 types and       2 ions
 scaLAPACK will be used

 ----------------------------------------------------------------------------- 
|                                                                             |
|           W    W    AA    RRRRR   N    N  II  N    N   GGGG   !!!           |
|           W    W   A  A   R    R  NN   N  II  NN   N  G    G  !!!           |
|           W    W  A    A  R    R  N N  N  II  N N  N  G       !!!           |
|           W WW W  AAAAAA  RRRRR   N  N N  II  N  N N  G  GGG   !            |
|           WW  WW  A    A  R   R   N   NN  II  N   NN  G    G                |
|           W    W  A    A  R    R  N    N  II  N    N   GGGG   !!!           |
|                                                                             |
|      For optimal performance we recommend to set                            |
|        NCORE= 4 - approx SQRT( number of cores)                             |
|      NCORE specifies how many cores store one orbital (NPAR=cpu/NCORE).     |
|      This setting can  greatly improve the performance of VASP for DFT.     |
|      The default,   NCORE=1            might be grossly inefficient         |
|      on modern multi-core architectures or massively parallel machines.     |
|      Do your own testing !!!!                                               |
|      Unfortunately you need to use the default for GW and RPA calculations. |
|      (for HF NCORE is supported but not extensively tested yet)             |
|                                                                             |
 ----------------------------------------------------------------------------- 

 WARNING: for PREC=h ENMAX is automatically increase by 25 %
        this was not the case for versions prior to vasp.4.4
 LDA part: xc-table for Pade appr. of Perdew
 POSCAR found type information on POSCAR  C 
 POSCAR found :  1 types and       2 ions
 POSCAR, INCAR and KPOINTS ok, starting setup
 FFT: planning ...
 WAVECAR not read
 WARNING: random wavefunctions but no delay for mixing, default for NELMDL
 entering main loop
       N       E                     dE             d eps       ncg     rms          rms(c)
RMM:   1     0.977042787358E+02    0.97704E+02   -0.15110E+03  1008   0.229E+02
RMM:   2     0.483910044536E+02   -0.49313E+02   -0.26552E+02  1008   0.437E+01
RMM:   3     0.931003877451E+01   -0.39081E+02   -0.19419E+02  1008   0.363E+01
RMM:   4    -0.135836558768E+02   -0.22894E+02   -0.14217E+02  1008   0.345E+01
RMM:   5    -0.183354261737E+02   -0.47518E+01   -0.37344E+01  1008   0.212E+01
RMM:   6    -0.193641583077E+02   -0.10287E+01   -0.85302E+00  1008   0.109E+01
RMM:   7    -0.195991457909E+02   -0.23499E+00   -0.19595E+00  1008   0.549E+00
RMM:   8    -0.196600984309E+02   -0.60953E-01   -0.50427E-01  1008   0.282E+00
RMM:   9    -0.196826688185E+02   -0.22570E-01   -0.19682E-01  2027   0.150E+00
RMM:  10    -0.196867903385E+02   -0.41215E-02   -0.35310E-02  2073   0.520E-01
RMM:  11    -0.196869453843E+02   -0.15505E-03   -0.12056E-03  2031   0.982E-02
RMM:  12    -0.196869723534E+02   -0.26969E-04   -0.21757E-04  2055   0.379E-02    0.900E+00
RMM:  13    -0.188292298848E+02    0.85774E+00   -0.42424E-01  2016   0.182E+00    0.586E+00
RMM:  14    -0.185061051674E+02    0.32312E+00   -0.89600E-01  2016   0.258E+00    0.114E+00
RMM:  15    -0.184862091913E+02    0.19896E-01   -0.24104E-02  2025   0.554E-01    0.122E-01
RMM:  16    -0.184847064718E+02    0.15027E-02   -0.41130E-04  2027   0.782E-02    0.813E-02
RMM:  17    -0.184834529611E+02    0.12535E-02   -0.55036E-04  2016   0.590E-02    0.602E-02
RMM:  18    -0.184834009023E+02    0.52059E-04   -0.16082E-04  2016   0.474E-02    0.557E-02
RMM:  19    -0.184838672777E+02   -0.46638E-03   -0.14361E-04  2016   0.307E-02    0.152E-02
RMM:  20    -0.184841609333E+02   -0.29366E-03   -0.61134E-06  2021   0.666E-03    0.190E-02
RMM:  21    -0.184847055357E+02   -0.54460E-03   -0.42685E-05  2016   0.137E-02    0.616E-03
RMM:  22    -0.184848012823E+02   -0.95747E-04   -0.27677E-06  1958   0.317E-03    0.188E-03
RMM:  23    -0.184848185282E+02   -0.17246E-04   -0.34098E-07  2016   0.155E-03    0.879E-04
RMM:  24    -0.184848324474E+02   -0.13919E-04   -0.11970E-07  1888   0.633E-04    0.259E-04
RMM:  25    -0.184848341541E+02   -0.17067E-05   -0.15106E-09  1741   0.135E-04    0.380E-04
RMM:  26    -0.184848361056E+02   -0.19515E-05   -0.12863E-08  1829   0.283E-04    0.254E-04
RMM:  27    -0.184848368836E+02   -0.77795E-06   -0.30264E-09  1802   0.159E-04    0.802E-05
RMM:  28    -0.184848371443E+02   -0.26077E-06   -0.30062E-10  1660   0.645E-05    0.109E-04
RMM:  29    -0.184848371965E+02   -0.52206E-07   -0.18979E-10  1641   0.664E-05
   1 F= -.18593097E+02 E0= -.18593097E+02  d E =-.185931E+02
 curvature:   0.00 expect dE= 0.000E+00 dE for cont linesearch  0.000E+00
 trial: gam= 0.00000 g(F)=  0.455E-38 g(S)=  0.000E+00 ort = 0.000E+00 (trialstep = 0.100E+01)
 search vector abs. value=  0.100E-09
 reached required accuracy - stopping structural energy minimisation
