<?xml version="1.0" encoding="ISO-8859-1"?>
<modeling>
 <generator>
  <i name="program" type="string">vasp </i>
  <i name="version" type="string">5.4.4.18Apr17-6-g9f103f2a35  </i>
  <i name="subversion" type="string">(build Jan 14 2019 14:48:31) complex            parallel </i>
  <i name="platform" type="string">LinuxIFC </i>
  <i name="date" type="string">2019 09 10 </i>
  <i name="time" type="string">15:54:03 </i>
 </generator>
 <incar>
  <i type="int" name="ISTART">     1</i>
  <i type="string" name="PREC">high</i>
  <i type="string" name="ALGO">very</i>
  <i type="int" name="NELM">    40</i>
  <i type="int" name="IBRION">     2</i>
  <i name="EDIFF">      0.00000010</i>
  <i name="EDIFFG">     -0.01000000</i>
  <i type="int" name="NSW">   100</i>
  <i type="logical" name="LREAL"> F  </i>
  <i type="int" name="ISMEAR">     0</i>
  <i name="SIGMA">      0.05000000</i>
  <i type="logical" name="LWAVE"> F  </i>
  <i type="logical" name="LCHARG"> F  </i>
  <v type="int" name="KPOINT_BSE">    -1     0     0     0</v>
  <i type="int" name="NELM">    40</i>
 </incar>
 <structure name="primitive_cell" >
  <crystal>
   <varray name="basis" >
    <v>       1.23832093      -2.14484017       0.00000000 </v>
    <v>       1.23832093       2.14484017       0.00000000 </v>
    <v>       0.00000000       0.00000000      30.28239374 </v>
   </varray>
   <i name="volume">    160.86010503 </i>
   <varray name="rec_basis" >
    <v>       0.40377255      -0.23311760       0.00000000 </v>
    <v>       0.40377255       0.23311760       0.00000000 </v>
    <v>       0.00000000       0.00000000       0.03302249 </v>
   </varray>
  </crystal>
  <varray name="positions" >
   <v>       0.00000262      -0.00000262      -0.50000000 </v>
   <v>      -0.33333262       0.33333262      -0.50000000 </v>
  </varray>
 </structure>
 <varray name="primitive_index" >
  <v type="int" >        1 </v>
  <v type="int" >        2 </v>
 </varray>
 <kpoints>
  <generation param="Monkhorst-Pack">
   <v type="int" name="divisions">      12       12        1 </v>
   <v name="usershift">      0.00000000       0.00000000       0.00000000 </v>
   <v name="genvec1">      0.08333333       0.00000000       0.00000000 </v>
   <v name="genvec2">      0.00000000       0.08333333       0.00000000 </v>
   <v name="genvec3">      0.00000000       0.00000000       1.00000000 </v>
   <v name="shift">      0.50000000       0.50000000       0.00000000 </v>
  </generation>
  <varray name="kpointlist" >
   <v>       0.04166667       0.04166667       0.00000000 </v>
   <v>       0.12500000       0.04166667       0.00000000 </v>
   <v>       0.20833333       0.04166667       0.00000000 </v>
   <v>       0.29166667       0.04166667       0.00000000 </v>
   <v>       0.37500000       0.04166667       0.00000000 </v>
   <v>       0.45833333       0.04166667       0.00000000 </v>
   <v>      -0.45833333       0.04166667       0.00000000 </v>
   <v>      -0.37500000       0.04166667       0.00000000 </v>
   <v>      -0.29166667       0.04166667       0.00000000 </v>
   <v>      -0.20833333       0.04166667       0.00000000 </v>
   <v>      -0.12500000       0.04166667       0.00000000 </v>
   <v>      -0.04166667       0.04166667       0.00000000 </v>
   <v>       0.12500000       0.12500000       0.00000000 </v>
   <v>       0.20833333       0.12500000       0.00000000 </v>
   <v>       0.29166667       0.12500000       0.00000000 </v>
   <v>       0.37500000       0.12500000       0.00000000 </v>
   <v>       0.45833333       0.12500000       0.00000000 </v>
   <v>      -0.45833333       0.12500000       0.00000000 </v>
   <v>      -0.37500000       0.12500000       0.00000000 </v>
   <v>      -0.29166667       0.12500000       0.00000000 </v>
   <v>      -0.20833333       0.12500000       0.00000000 </v>
   <v>      -0.12500000       0.12500000       0.00000000 </v>
   <v>       0.20833333       0.20833333       0.00000000 </v>
   <v>       0.29166667       0.20833333       0.00000000 </v>
   <v>       0.37500000       0.20833333       0.00000000 </v>
   <v>       0.45833333       0.20833333       0.00000000 </v>
   <v>      -0.45833333       0.20833333       0.00000000 </v>
   <v>      -0.37500000       0.20833333       0.00000000 </v>
   <v>      -0.29166667       0.20833333       0.00000000 </v>
   <v>      -0.20833333       0.20833333       0.00000000 </v>
   <v>       0.29166667       0.29166667       0.00000000 </v>
   <v>       0.37500000       0.29166667       0.00000000 </v>
   <v>       0.45833333       0.29166667       0.00000000 </v>
   <v>      -0.45833333       0.29166667       0.00000000 </v>
   <v>      -0.37500000       0.29166667       0.00000000 </v>
   <v>      -0.29166667       0.29166667       0.00000000 </v>
   <v>       0.37500000       0.37500000       0.00000000 </v>
   <v>       0.45833333       0.37500000       0.00000000 </v>
   <v>      -0.45833333       0.37500000       0.00000000 </v>
   <v>      -0.37500000       0.37500000       0.00000000 </v>
   <v>       0.45833333       0.45833333       0.00000000 </v>
   <v>      -0.45833333       0.45833333       0.00000000 </v>
  </varray>
  <varray name="weights" >
   <v>       0.01388889 </v>
   <v>       0.02777778 </v>
   <v>       0.02777778 </v>
   <v>       0.02777778 </v>
   <v>       0.02777778 </v>
   <v>       0.02777778 </v>
   <v>       0.02777778 </v>
   <v>       0.02777778 </v>
   <v>       0.02777778 </v>
   <v>       0.02777778 </v>
   <v>       0.02777778 </v>
   <v>       0.01388889 </v>
   <v>       0.01388889 </v>
   <v>       0.02777778 </v>
   <v>       0.02777778 </v>
   <v>       0.02777778 </v>
   <v>       0.02777778 </v>
   <v>       0.02777778 </v>
   <v>       0.02777778 </v>
   <v>       0.02777778 </v>
   <v>       0.02777778 </v>
   <v>       0.01388889 </v>
   <v>       0.01388889 </v>
   <v>       0.02777778 </v>
   <v>       0.02777778 </v>
   <v>       0.02777778 </v>
   <v>       0.02777778 </v>
   <v>       0.02777778 </v>
   <v>       0.02777778 </v>
   <v>       0.01388889 </v>
   <v>       0.01388889 </v>
   <v>       0.02777778 </v>
   <v>       0.02777778 </v>
   <v>       0.02777778 </v>
   <v>       0.02777778 </v>
   <v>       0.01388889 </v>
   <v>       0.01388889 </v>
   <v>       0.02777778 </v>
   <v>       0.02777778 </v>
   <v>       0.01388889 </v>
   <v>       0.01388889 </v>
   <v>       0.01388889 </v>
  </varray>
 </kpoints>
 <parameters>
  <separator name="general" >
   <i type="string" name="SYSTEM">unknown system</i>
   <i type="logical" name="LCOMPAT"> F  </i>
  </separator>
  <separator name="electronic" >
   <i type="string" name="PREC">high</i>
   <i name="ENMAX">    875.00000000</i>
   <i name="ENAUG">    946.76800000</i>
   <i name="EDIFF">      0.00000010</i>
   <i type="int" name="IALGO">    48</i>
   <i type="int" name="IWAVPR">    11</i>
   <i type="int" name="NBANDS">    24</i>
   <i name="NELECT">      8.00000000</i>
   <i type="int" name="TURBO">     0</i>
   <i type="int" name="IRESTART">     0</i>
   <i type="int" name="NREBOOT">     0</i>
   <i type="int" name="NMIN">     0</i>
   <i name="EREF">      0.00000000</i>
   <separator name="electronic smearing" >
    <i type="int" name="ISMEAR">     0</i>
    <i name="SIGMA">      0.05000000</i>
    <i name="KSPACING">      0.50000000</i>
    <i type="logical" name="KGAMMA"> T  </i>
   </separator>
   <separator name="electronic projectors" >
    <i type="logical" name="LREAL"> F  </i>
    <v name="ROPT">      0.00000000</v>
    <i type="int" name="LMAXPAW">  -100</i>
    <i type="int" name="LMAXMIX">     2</i>
    <i type="logical" name="NLSPLINE"> F  </i>
   </separator>
   <separator name="electronic startup" >
    <i type="int" name="ISTART">     0</i>
    <i type="int" name="ICHARG">     2</i>
    <i type="int" name="INIWAV">     1</i>
   </separator>
   <separator name="electronic spin" >
    <i type="int" name="ISPIN">     1</i>
    <i type="logical" name="LNONCOLLINEAR"> F  </i>
    <v name="MAGMOM">      1.00000000      1.00000000</v>
    <i name="NUPDOWN">     -1.00000000</i>
    <i type="logical" name="LSORBIT"> F  </i>
    <v name="SAXIS">      0.00000000      0.00000000      1.00000000</v>
    <i type="logical" name="LSPIRAL"> F  </i>
    <v name="QSPIRAL">      0.00000000      0.00000000      0.00000000</v>
    <i type="logical" name="LZEROZ"> F  </i>
   </separator>
   <separator name="electronic exchange-correlation" >
    <i type="logical" name="LASPH"> F  </i>
    <i type="logical" name="LMETAGGA"> F  </i>
   </separator>
   <separator name="electronic convergence" >
    <i type="int" name="NELM">    40</i>
    <i type="int" name="NELMDL">     0</i>
    <i type="int" name="NELMIN">     2</i>
    <i name="ENINI">    875.00000000</i>
    <separator name="electronic convergence detail" >
     <i type="logical" name="LDIAG"> T  </i>
     <i type="logical" name="LSUBROT"> F  </i>
     <i name="WEIMIN">      0.00100000</i>
     <i name="EBREAK">      0.00000000</i>
     <i name="DEPER">      0.30000000</i>
     <i type="int" name="NRMM">     4</i>
     <i name="TIME">      0.40000000</i>
    </separator>
   </separator>
   <separator name="electronic mixer" >
    <i name="AMIX">      0.40000000</i>
    <i name="BMIX">      1.00000000</i>
    <i name="AMIN">      0.10000000</i>
    <i name="AMIX_MAG">      1.60000000</i>
    <i name="BMIX_MAG">      1.00000000</i>
    <separator name="electronic mixer details" >
     <i type="int" name="IMIX">     4</i>
     <i type="logical" name="MIXFIRST"> F  </i>
     <i type="int" name="MAXMIX">   -45</i>
     <i name="WC">    100.00000000</i>
     <i type="int" name="INIMIX">     1</i>
     <i type="int" name="MIXPRE">     1</i>
     <i type="int" name="MREMOVE">     5</i>
    </separator>
   </separator>
   <separator name="electronic dipolcorrection" >
    <i type="logical" name="LDIPOL"> F  </i>
    <i type="logical" name="LMONO"> F  </i>
    <i type="int" name="IDIPOL">     0</i>
    <i name="EPSILON">      1.00000000</i>
    <v name="DIPOL">   -100.00000000   -100.00000000   -100.00000000</v>
    <i name="EFIELD">      0.00000000</i>
   </separator>
  </separator>
  <separator name="grids" >
   <i type="int" name="NGX">    24</i>
   <i type="int" name="NGY">    24</i>
   <i type="int" name="NGZ">   294</i>
   <i type="int" name="NGXF">    36</i>
   <i type="int" name="NGYF">    36</i>
   <i type="int" name="NGZF">   420</i>
   <i type="logical" name="ADDGRID"> F  </i>
  </separator>
  <separator name="ionic" >
   <i type="int" name="NSW">   100</i>
   <i type="int" name="IBRION">     2</i>
   <i type="int" name="MDALGO">     0</i>
   <i type="int" name="ISIF">     2</i>
   <i name="PSTRESS">      0.00000000</i>
   <i name="EDIFFG">     -0.01000000</i>
   <i type="int" name="NFREE">     1</i>
   <i name="POTIM">      0.50000000</i>
   <i name="SMASS">     -3.00000000</i>
   <i name="SCALEE">      1.00000000</i>
  </separator>
  <separator name="ionic md" >
   <i name="TEBEG">      0.00010000</i>
   <i name="TEEND">      0.00010000</i>
   <i type="int" name="NBLOCK">     1</i>
   <i type="int" name="KBLOCK">   100</i>
   <i type="int" name="NPACO">   256</i>
   <i name="APACO">     16.00000000</i>
  </separator>
  <separator name="symmetry" >
   <i type="int" name="ISYM">     2</i>
   <i name="SYMPREC">      0.00001000</i>
  </separator>
  <separator name="dos" >
   <i type="int" name="LORBIT">     0</i>
   <v name="RWIGS">     -1.00000000</v>
   <i type="int" name="NEDOS">   301</i>
   <i name="EMIN">     10.00000000</i>
   <i name="EMAX">    -10.00000000</i>
   <i name="EFERMI">      0.00000000</i>
  </separator>
  <separator name="writing" >
   <i type="int" name="NWRITE">     2</i>
   <i type="logical" name="LWAVE"> F  </i>
   <i type="logical" name="LDOWNSAMPLE"> F  </i>
   <i type="logical" name="LCHARG"> F  </i>
   <i type="logical" name="LPARD"> F  </i>
   <i type="logical" name="LVTOT"> F  </i>
   <i type="logical" name="LVHAR"> F  </i>
   <i type="logical" name="LELF"> F  </i>
   <i type="logical" name="LOPTICS"> F  </i>
   <v name="STM">      0.00000000      0.00000000      0.00000000      0.00000000      0.00000000      0.00000000      0.00000000</v>
  </separator>
  <separator name="performance" >
   <i type="int" name="NPAR">    24</i>
   <i type="int" name="NSIM">     4</i>
   <i type="int" name="NBLK">    -1</i>
   <i type="logical" name="LPLANE"> T  </i>
   <i type="logical" name="LSCALAPACK"> T  </i>
   <i type="logical" name="LSCAAWARE"> F  </i>
   <i type="logical" name="LSCALU"> F  </i>
   <i type="logical" name="LASYNC"> F  </i>
   <i type="logical" name="LORBITALREAL"> F  </i>
  </separator>
  <separator name="miscellaneous" >
   <i type="int" name="IDIOT">     3</i>
   <i type="int" name="ISPECIAL">     0</i>
   <i type="logical" name="LMUSIC"> F  </i>
   <v name="POMASS">     12.01100000</v>
   <v name="DARWINR">      0.00000000</v>
   <v name="DARWINV">      1.00000000</v>
   <i type="logical" name="LCORR"> T  </i>
  </separator>
  <i type="logical" name="GGA_COMPAT"> T  </i>
  <i type="logical" name="LBERRY"> F  </i>
  <i type="int" name="ICORELEVEL">     0</i>
  <i type="logical" name="LDAU"> F  </i>
  <i type="int" name="I_CONSTRAINED_M">     0</i>
  <separator name="electronic exchange-correlation" >
   <i type="string" name="GGA">--</i>
   <i type="int" name="VOSKOWN">     0</i>
   <i type="logical" name="LHFCALC"> F  </i>
   <i type="string" name="PRECFOCK"></i>
   <i type="logical" name="LSYMGRAD"> F  </i>
   <i type="logical" name="LHFONE"> F  </i>
   <i type="logical" name="LRHFCALC"> F  </i>
   <i type="logical" name="LTHOMAS"> F  </i>
   <i type="logical" name="LMODELHF"> F  </i>
   <i name="ENCUT4O">     -1.00000000</i>
   <i type="int" name="EXXOEP">     0</i>
   <i type="int" name="FOURORBIT">     0</i>
   <i name="AEXX">      0.00000000</i>
   <i name="HFALPHA">      0.00000000</i>
   <i name="MCALPHA">      0.00000000</i>
   <i name="ALDAX">      1.00000000</i>
   <i name="AGGAX">      1.00000000</i>
   <i name="ALDAC">      1.00000000</i>
   <i name="AGGAC">      1.00000000</i>
   <i type="int" name="NKREDX">     1</i>
   <i type="int" name="NKREDY">     1</i>
   <i type="int" name="NKREDZ">     1</i>
   <i type="logical" name="SHIFTRED"> F  </i>
   <i type="logical" name="ODDONLY"> F  </i>
   <i type="logical" name="EVENONLY"> F  </i>
   <i type="int" name="LMAXFOCK">     0</i>
   <i type="int" name="NMAXFOCKAE">     0</i>
   <i type="logical" name="LFOCKAEDFT"> F  </i>
   <i name="HFSCREEN">      0.00000000</i>
   <i name="HFSCREENC">      0.00000000</i>
   <i type="int" name="NBANDSGWLOW">     0</i>
  </separator>
  <separator name="vdW DFT" >
   <i type="logical" name="LUSE_VDW"> F  </i>
   <i name="Zab_VDW">     -0.84910000</i>
   <i name="PARAM1">      0.12340000</i>
   <i name="PARAM2">      1.00000000</i>
   <i name="PARAM3">      0.00000000</i>
  </separator>
  <separator name="model GW" >
   <i type="int" name="MODEL_GW">     0</i>
   <i name="MODEL_EPS0">     48.25803151</i>
   <i name="MODEL_ALPHA">      1.00000000</i>
  </separator>
  <separator name="linear response parameters" >
   <i type="logical" name="LEPSILON"> F  </i>
   <i type="logical" name="LRPA"> F  </i>
   <i type="logical" name="LNABLA"> F  </i>
   <i type="logical" name="LVEL"> F  </i>
   <i type="int" name="KINTER">     0</i>
   <i name="CSHIFT">      0.10000000</i>
   <i name="OMEGAMAX">     -1.00000000</i>
   <i name="DEG_THRESHOLD">      0.00200000</i>
   <i name="RTIME">     -0.10000000</i>
   <i name="WPLASMAI">      0.00000000</i>
   <v name="DFIELD">      0.00000000      0.00000000      0.00000000</v>
   <v name="WPLASMA">      0.00000000      0.00000000      0.00000000      0.00000000      0.00000000      0.00000000      0.00000000      0.00000000      0.00000000</v>
  </separator>
  <separator name="orbital magnetization" >
   <i type="logical" name="NUCIND"> F  </i>
   <v name="MAGPOS">      0.00000000      0.00000000      0.00000000</v>
   <i type="logical" name="LNICSALL"> T  </i>
   <i type="logical" name="ORBITALMAG"> F  </i>
   <i type="logical" name="LMAGBLOCH"> F  </i>
   <i type="logical" name="LCHIMAG"> F  </i>
   <i type="logical" name="LGAUGE"> T  </i>
   <i type="int" name="MAGATOM">     0</i>
   <v name="MAGDIPOL">      0.00000000      0.00000000      0.00000000</v>
   <v name="AVECCONST">      0.00000000      0.00000000      0.00000000</v>
  </separator>
  <separator name="response functions" >
   <i type="logical" name="LADDER"> F  </i>
   <i type="logical" name="LRPAFORCE"> F  </i>
   <i type="logical" name="LFXC"> F  </i>
   <i type="logical" name="LHARTREE"> T  </i>
   <i type="int" name="IBSE">     0</i>
   <v type="int" name="KPOINT">    -1     0     0     0</v>
   <i type="logical" name="LTCTE"> F  </i>
   <i type="logical" name="LTETE"> F  </i>
   <i type="logical" name="LTRIPLET"> F  </i>
   <i type="logical" name="LFXCEPS"> F  </i>
   <i type="logical" name="LFXHEG"> F  </i>
   <i type="int" name="NATURALO">     2</i>
   <i type="logical" name="L2ORDER"> F  </i>
   <i type="logical" name="LMP2LT"> F  </i>
   <i type="logical" name="LUSEW"> F  </i>
   <i name="ENCUTGW">     -2.00000000</i>
   <i name="ENCUTGWSOFT">     -2.00000000</i>
   <i name="ENCUTLF">     -1.00000000</i>
   <i type="int" name="LMAXMP2">    -1</i>
   <i name="SCISSOR">      0.00000000</i>
   <i type="int" name="NOMEGA">     0</i>
   <i type="int" name="NOMEGAR">     0</i>
   <i type="int" name="NBANDSGW">    -1</i>
   <i type="int" name="NBANDSO">    -1</i>
   <i type="int" name="NBANDSV">    -1</i>
   <i type="int" name="NELM">    40</i>
   <i type="int" name="NELMHF">     1</i>
   <i type="int" name="DIM">     3</i>
   <i type="int" name="ANTIRES">     0</i>
   <i name="OMEGAMAX">    -30.00000000</i>
   <i name="OMEGAMIN">    -30.00000000</i>
   <i name="OMEGATL">   -200.00000000</i>
   <i type="int" name="OMEGAGRID">   140</i>
   <i name="CSHIFT">     -0.10000000</i>
   <i type="logical" name="SELFENERGY"> F  </i>
   <i type="logical" name="LSPECTRAL"> F  </i>
   <i type="logical" name="LSPECTRALGW"> F  </i>
   <i type="logical" name="LSINGLES"> F  </i>
   <i type="logical" name="LFERMIGW"> F  </i>
   <i type="logical" name="ODDONLYGW"> F  </i>
   <i type="logical" name="EVENONLYGW"> F  </i>
   <i type="int" name="NKREDLFX">     1</i>
   <i type="int" name="NKREDLFY">     1</i>
   <i type="int" name="NKREDLFZ">     1</i>
   <i type="int" name="MAXMEM">  2800</i>
   <i type="int" name="TELESCOPE">     0</i>
   <i type="int" name="TAUPAR">     1</i>
   <i type="int" name="OMEGAPAR">    -1</i>
   <i name="LAMBDA">      1.00000000</i>
  </separator>
  <separator name="External order field" >
   <i name="OFIELD_KAPPA">      0.00000000</i>
   <v name="OFIELD_K">      0.00000000      0.00000000      0.00000000</v>
   <i name="OFIELD_Q6_NEAR">      0.00000000</i>
   <i name="OFIELD_Q6_FAR">      0.00000000</i>
   <i name="OFIELD_A">      0.00000000</i>
  </separator>
 </parameters>
 <atominfo>
  <atoms>       2 </atoms>
  <types>       1 </types>
  <array name="atoms" >
   <dimension dim="1">ion</dimension>
   <field type="string">element</field>
   <field type="int">atomtype</field>
   <set>
    <rc><c>C </c><c>   1</c></rc>
    <rc><c>C </c><c>   1</c></rc>
   </set>
  </array>
  <array name="atomtypes" >
   <dimension dim="1">type</dimension>
   <field type="int">atomspertype</field>
   <field type="string">element</field>
   <field>mass</field>
   <field>valence</field>
   <field type="string">pseudopotential</field>
   <set>
    <rc><c>   2</c><c>C </c><c>     12.01100000</c><c>      4.00000000</c><c>  PAW_PBE C_h 06Feb2004                 </c></rc>
   </set>
  </array>
 </atominfo>
 <structure name="initialpos" >
  <crystal>
   <varray name="basis" >
    <v>       1.23832093      -2.14484017       0.00000000 </v>
    <v>       1.23832093       2.14484017       0.00000000 </v>
    <v>       0.00000000       0.00000000      30.28239374 </v>
   </varray>
   <i name="volume">    160.86010503 </i>
   <varray name="rec_basis" >
    <v>       0.40377255      -0.23311760       0.00000000 </v>
    <v>       0.40377255       0.23311760       0.00000000 </v>
    <v>       0.00000000       0.00000000       0.03302249 </v>
   </varray>
  </crystal>
  <varray name="positions" >
   <v>       0.00000262       0.99999738       0.50000000 </v>
   <v>       0.66666738       0.33333262       0.50000000 </v>
  </varray>
 </structure>
 <calculation>
  <scstep>
   <time name="diag">    0.65    0.75</time>
   <time name="diis">    1.21    1.24</time>
   <time name="orth">    0.03    0.03</time>
   <time name="total">    1.95    2.11</time>
   <energy>
    <i name="alphaZ">      1.36319056 </i>
    <i name="ewald">   2215.41463789 </i>
    <i name="hartreedc">  -2422.22532422 </i>
    <i name="XCdc">     14.44138122 </i>
    <i name="pawpsdc">    228.69403340 </i>
    <i name="pawaedc">   -218.18290438 </i>
    <i name="eentropy">     -0.00342413 </i>
    <i name="bandstr">    -16.10050476 </i>
    <i name="atom">    294.30319316 </i>
    <i name="e_fr_energy">     97.70427874 </i>
    <i name="e_wo_entrp">     97.70770286 </i>
    <i name="e_0_energy">     97.70599080 </i>
   </energy>
  </scstep>
  <scstep>
   <time name="diag">    0.62    0.65</time>
   <time name="diis">    1.21    1.21</time>
   <time name="orth">    0.03    0.03</time>
   <time name="total">    1.87    1.90</time>
   <energy>
    <i name="e_fr_energy">     48.39100445 </i>
    <i name="e_wo_entrp">     48.39393646 </i>
    <i name="e_0_energy">     48.39247046 </i>
   </energy>
  </scstep>
  <scstep>
   <time name="diag">    0.63    0.64</time>
   <time name="diis">    1.20    1.20</time>
   <time name="orth">    0.03    0.03</time>
   <time name="total">    1.86    1.88</time>
   <energy>
    <i name="e_fr_energy">      9.31003877 </i>
    <i name="e_wo_entrp">      9.31113914 </i>
    <i name="e_0_energy">      9.31058896 </i>
   </energy>
  </scstep>
  <scstep>
   <time name="diag">    0.62    0.64</time>
   <time name="diis">    1.21    1.21</time>
   <time name="orth">    0.03    0.03</time>
   <time name="total">    1.87    1.88</time>
   <energy>
    <i name="e_fr_energy">    -13.58365588 </i>
    <i name="e_wo_entrp">    -13.58259738 </i>
    <i name="e_0_energy">    -13.58312663 </i>
   </energy>
  </scstep>
  <scstep>
   <time name="diag">    0.63    0.64</time>
   <time name="diis">    1.22    1.22</time>
   <time name="orth">    0.03    0.03</time>
   <time name="total">    1.88    1.89</time>
   <energy>
    <i name="e_fr_energy">    -18.33542617 </i>
    <i name="e_wo_entrp">    -18.33542617 </i>
    <i name="e_0_energy">    -18.33542617 </i>
   </energy>
  </scstep>
  <scstep>
   <time name="diag">    0.62    0.64</time>
   <time name="diis">    1.22    1.23</time>
   <time name="orth">    0.03    0.03</time>
   <time name="total">    1.88    1.89</time>
   <energy>
    <i name="e_fr_energy">    -19.36415831 </i>
    <i name="e_wo_entrp">    -19.36415831 </i>
    <i name="e_0_energy">    -19.36415831 </i>
   </energy>
  </scstep>
  <scstep>
   <time name="diag">    0.63    0.64</time>
   <time name="diis">    1.22    1.22</time>
   <time name="orth">    0.03    0.03</time>
   <time name="total">    1.88    1.90</time>
   <energy>
    <i name="e_fr_energy">    -19.59914579 </i>
    <i name="e_wo_entrp">    -19.59914579 </i>
    <i name="e_0_energy">    -19.59914579 </i>
   </energy>
  </scstep>
  <scstep>
   <time name="diag">    0.62    0.64</time>
   <time name="diis">    1.22    1.22</time>
   <time name="orth">    0.03    0.03</time>
   <time name="total">    1.87    1.89</time>
   <energy>
    <i name="e_fr_energy">    -19.66009843 </i>
    <i name="e_wo_entrp">    -19.66009843 </i>
    <i name="e_0_energy">    -19.66009843 </i>
   </energy>
  </scstep>
  <scstep>
   <time name="diag">    0.63    0.64</time>
   <time name="diis">    2.36    2.39</time>
   <time name="orth">    0.03    0.03</time>
   <time name="total">    3.02    3.06</time>
   <energy>
    <i name="e_fr_energy">    -19.68266882 </i>
    <i name="e_wo_entrp">    -19.68266882 </i>
    <i name="e_0_energy">    -19.68266882 </i>
   </energy>
  </scstep>
  <scstep>
   <time name="diag">    0.62    0.64</time>
   <time name="diis">    2.57    2.58</time>
   <time name="orth">    0.03    0.03</time>
   <time name="total">    3.23    3.25</time>
   <energy>
    <i name="e_fr_energy">    -19.68679034 </i>
    <i name="e_wo_entrp">    -19.68679034 </i>
    <i name="e_0_energy">    -19.68679034 </i>
   </energy>
  </scstep>
  <scstep>
   <time name="diag">    0.62    0.64</time>
   <time name="diis">    2.26    2.27</time>
   <time name="orth">    0.03    0.03</time>
   <time name="total">    2.91    2.93</time>
   <energy>
    <i name="e_fr_energy">    -19.68694538 </i>
    <i name="e_wo_entrp">    -19.68694538 </i>
    <i name="e_0_energy">    -19.68694538 </i>
   </energy>
  </scstep>
  <scstep>
   <time name="diag">    0.62    0.63</time>
   <time name="diis">    2.56    2.56</time>
   <time name="orth">    0.03    0.03</time>
   <time name="total">    3.38    3.43</time>
   <energy>
    <i name="e_fr_energy">    -19.68697235 </i>
    <i name="e_wo_entrp">    -19.68697235 </i>
    <i name="e_0_energy">    -19.68697235 </i>
   </energy>
  </scstep>
  <scstep>
   <time name="diag">    0.61    0.62</time>
   <time name="diis">    2.24    2.24</time>
   <time name="orth">    0.03    0.03</time>
   <time name="total">    3.07    3.10</time>
   <energy>
    <i name="e_fr_energy">    -18.82922988 </i>
    <i name="e_wo_entrp">    -18.82922988 </i>
    <i name="e_0_energy">    -18.82922988 </i>
   </energy>
  </scstep>
  <scstep>
   <time name="diag">    0.62    0.62</time>
   <time name="diis">    2.21    2.22</time>
   <time name="orth">    0.03    0.03</time>
   <time name="total">    3.05    3.07</time>
   <energy>
    <i name="e_fr_energy">    -18.50610517 </i>
    <i name="e_wo_entrp">    -18.50610517 </i>
    <i name="e_0_energy">    -18.50610517 </i>
   </energy>
  </scstep>
  <scstep>
   <time name="diag">    0.61    0.62</time>
   <time name="diis">    2.33    2.33</time>
   <time name="orth">    0.03    0.03</time>
   <time name="total">    3.16    3.18</time>
   <energy>
    <i name="e_fr_energy">    -18.48620919 </i>
    <i name="e_wo_entrp">    -18.48620919 </i>
    <i name="e_0_energy">    -18.48620919 </i>
   </energy>
  </scstep>
  <scstep>
   <time name="diag">    0.62    0.62</time>
   <time name="diis">    2.33    2.34</time>
   <time name="orth">    0.03    0.03</time>
   <time name="total">    3.17    3.19</time>
   <energy>
    <i name="e_fr_energy">    -18.48470647 </i>
    <i name="e_wo_entrp">    -18.48470647 </i>
    <i name="e_0_energy">    -18.48470647 </i>
   </energy>
  </scstep>
  <scstep>
   <time name="diag">    0.61    0.62</time>
   <time name="diis">    2.27    2.28</time>
   <time name="orth">    0.03    0.03</time>
   <time name="total">    3.11    3.13</time>
   <energy>
    <i name="e_fr_energy">    -18.48345296 </i>
    <i name="e_wo_entrp">    -18.48345296 </i>
    <i name="e_0_energy">    -18.48345296 </i>
   </energy>
  </scstep>
  <scstep>
   <time name="diag">    0.61    0.61</time>
   <time name="diis">    2.28    2.29</time>
   <time name="orth">    0.03    0.03</time>
   <time name="total">    3.12    3.14</time>
   <energy>
    <i name="e_fr_energy">    -18.48340090 </i>
    <i name="e_wo_entrp">    -18.48340090 </i>
    <i name="e_0_energy">    -18.48340090 </i>
   </energy>
  </scstep>
  <scstep>
   <time name="diag">    0.61    0.61</time>
   <time name="diis">    2.30    2.30</time>
   <time name="orth">    0.03    0.03</time>
   <time name="total">    3.13    3.15</time>
   <energy>
    <i name="e_fr_energy">    -18.48386728 </i>
    <i name="e_wo_entrp">    -18.48386728 </i>
    <i name="e_0_energy">    -18.48386728 </i>
   </energy>
  </scstep>
  <scstep>
   <time name="diag">    0.61    0.61</time>
   <time name="diis">    2.31    2.32</time>
   <time name="orth">    0.03    0.03</time>
   <time name="total">    3.14    3.17</time>
   <energy>
    <i name="e_fr_energy">    -18.48416093 </i>
    <i name="e_wo_entrp">    -18.48416093 </i>
    <i name="e_0_energy">    -18.48416093 </i>
   </energy>
  </scstep>
  <scstep>
   <time name="diag">    0.61    0.61</time>
   <time name="diis">    2.28    2.29</time>
   <time name="orth">    0.03    0.03</time>
   <time name="total">    3.12    3.14</time>
   <energy>
    <i name="e_fr_energy">    -18.48470554 </i>
    <i name="e_wo_entrp">    -18.48470554 </i>
    <i name="e_0_energy">    -18.48470554 </i>
   </energy>
  </scstep>
  <scstep>
   <time name="diag">    0.61    0.61</time>
   <time name="diis">    2.20    2.21</time>
   <time name="orth">    0.03    0.03</time>
   <time name="total">    3.04    3.06</time>
   <energy>
    <i name="e_fr_energy">    -18.48480128 </i>
    <i name="e_wo_entrp">    -18.48480128 </i>
    <i name="e_0_energy">    -18.48480128 </i>
   </energy>
  </scstep>
  <scstep>
   <time name="diag">    0.61    0.62</time>
   <time name="diis">    2.27    2.27</time>
   <time name="orth">    0.03    0.03</time>
   <time name="total">    3.10    3.13</time>
   <energy>
    <i name="e_fr_energy">    -18.48481853 </i>
    <i name="e_wo_entrp">    -18.48481853 </i>
    <i name="e_0_energy">    -18.48481853 </i>
   </energy>
  </scstep>
  <scstep>
   <time name="diag">    0.61    0.62</time>
   <time name="diis">    2.19    2.20</time>
   <time name="orth">    0.03    0.03</time>
   <time name="total">    3.03    3.05</time>
   <energy>
    <i name="e_fr_energy">    -18.48483245 </i>
    <i name="e_wo_entrp">    -18.48483245 </i>
    <i name="e_0_energy">    -18.48483245 </i>
   </energy>
  </scstep>
  <scstep>
   <time name="diag">    0.61    0.62</time>
   <time name="diis">    2.19    2.19</time>
   <time name="orth">    0.03    0.03</time>
   <time name="total">    3.02    3.04</time>
   <energy>
    <i name="e_fr_energy">    -18.48483415 </i>
    <i name="e_wo_entrp">    -18.48483415 </i>
    <i name="e_0_energy">    -18.48483415 </i>
   </energy>
  </scstep>
  <scstep>
   <time name="diag">    0.61    0.62</time>
   <time name="diis">    2.18    2.19</time>
   <time name="orth">    0.03    0.03</time>
   <time name="total">    3.03    3.04</time>
   <energy>
    <i name="e_fr_energy">    -18.48483611 </i>
    <i name="e_wo_entrp">    -18.48483611 </i>
    <i name="e_0_energy">    -18.48483611 </i>
   </energy>
  </scstep>
  <scstep>
   <time name="diag">    0.61    0.61</time>
   <time name="diis">    2.16    2.17</time>
   <time name="orth">    0.03    0.03</time>
   <time name="total">    3.00    3.02</time>
   <energy>
    <i name="e_fr_energy">    -18.48483688 </i>
    <i name="e_wo_entrp">    -18.48483688 </i>
    <i name="e_0_energy">    -18.48483688 </i>
   </energy>
  </scstep>
  <scstep>
   <time name="diag">    0.61    0.62</time>
   <time name="diis">    2.19    2.20</time>
   <time name="orth">    0.03    0.03</time>
   <time name="total">    3.03    3.05</time>
   <energy>
    <i name="e_fr_energy">    -18.48483714 </i>
    <i name="e_wo_entrp">    -18.48483714 </i>
    <i name="e_0_energy">    -18.48483714 </i>
   </energy>
  </scstep>
  <scstep>
   <time name="diag">    0.61    0.62</time>
   <time name="diis">    2.18    2.19</time>
   <time name="orth">    0.03    0.03</time>
   <time name="total">    2.86    2.87</time>
   <energy>
    <i name="alphaZ">      1.36319056 </i>
    <i name="ewald">   2215.41463789 </i>
    <i name="hartreedc">  -2456.98787311 </i>
    <i name="XCdc">     15.55731367 </i>
    <i name="pawpsdc">   4005.57195512 </i>
    <i name="pawaedc">  -3995.22482123 </i>
    <i name="eentropy">     -0.00000000 </i>
    <i name="bandstr">    -98.48243325 </i>
    <i name="atom">    294.30319316 </i>
    <i name="e_fr_energy">    -18.48483720 </i>
    <i name="e_wo_entrp">    -18.48483720 </i>
    <i name="e_0_energy">    -18.48483720 </i>
   </energy>
  </scstep>
  <structure>
   <crystal>
    <varray name="basis" >
     <v>       1.23832093      -2.14484017       0.00000000 </v>
     <v>       1.23832093       2.14484017       0.00000000 </v>
     <v>       0.00000000       0.00000000      30.28239374 </v>
    </varray>
    <i name="volume">    160.86010503 </i>
    <varray name="rec_basis" >
     <v>       0.40377255      -0.23311760       0.00000000 </v>
     <v>       0.40377255       0.23311760       0.00000000 </v>
     <v>       0.00000000       0.00000000       0.03302249 </v>
    </varray>
   </crystal>
   <varray name="positions" >
    <v>       0.00000262       0.99999738       0.50000000 </v>
    <v>       0.66666738       0.33333262       0.50000000 </v>
   </varray>
  </structure>
  <varray name="forces" >
   <v>      -0.00000000      -0.00000000       0.00000000 </v>
   <v>       0.00000000       0.00000000       0.00000000 </v>
  </varray>
  <varray name="stress" >
   <v>      -6.14182575      -0.00000000      -0.00000000 </v>
   <v>       0.00000000      -6.14185666       0.00000000 </v>
   <v>       0.00000000       0.00000000      -0.46649006 </v>
  </varray>
  <energy>
   <i name="e_fr_energy">    -18.59309683 </i>
   <i name="e_wo_entrp">    -18.59309683 </i>
   <i name="e_0_energy">     -0.00000000 </i>
  </energy>
  <time name="totalsc">   81.33   82.18</time>
  <eigenvalues>
   <array>
    <dimension dim="1">band</dimension>
    <dimension dim="2">kpoint</dimension>
    <dimension dim="3">spin</dimension>
    <field>eigene</field>
    <field>occ</field>
    <set>
     <set comment="spin 1">
      <set comment="kpoint 1">
       <r>  -22.5081    1.0000 </r>
       <r>  -10.5924    1.0000 </r>
       <r>   -6.7541    1.0000 </r>
       <r>   -6.5347    1.0000 </r>
       <r>    0.2599    0.0000 </r>
       <r>    1.0232    0.0000 </r>
       <r>    1.2450    0.0000 </r>
       <r>    1.5577    0.0000 </r>
       <r>    1.7649    0.0000 </r>
       <r>    2.4112    0.0000 </r>
       <r>    2.7116    0.0000 </r>
       <r>    3.6602    0.0000 </r>
       <r>    4.0129    0.0000 </r>
       <r>    5.0961    0.0000 </r>
       <r>    5.2563    0.0000 </r>
       <r>    5.5070    0.0000 </r>
       <r>    5.6810    0.0000 </r>
       <r>    7.1955    0.0000 </r>
       <r>    7.6510    0.0000 </r>
       <r>    7.6965    0.0000 </r>
       <r>    9.2286    0.0000 </r>
       <r>    9.4746    0.0000 </r>
       <r>   10.0643    0.0000 </r>
       <r>   12.0865    0.0000 </r>
      </set>
      <set comment="kpoint 2">
       <r>  -22.1025    1.0000 </r>
       <r>  -10.1110    1.0000 </r>
       <r>   -8.1288    1.0000 </r>
       <r>   -7.2699    1.0000 </r>
       <r>    0.8119    0.0000 </r>
       <r>    1.5827    0.0000 </r>
       <r>    1.8122    0.0000 </r>
       <r>    2.1223    0.0000 </r>
       <r>    2.3303    0.0000 </r>
       <r>    2.9740    0.0000 </r>
       <r>    3.2743    0.0000 </r>
       <r>    4.2205    0.0000 </r>
       <r>    4.5677    0.0000 </r>
       <r>    5.1898    0.0000 </r>
       <r>    5.8121    0.0000 </r>
       <r>    6.2446    0.0000 </r>
       <r>    6.3879    0.0000 </r>
       <r>    6.9111    0.0000 </r>
       <r>    7.7479    0.0000 </r>
       <r>    8.2578    0.0000 </r>
       <r>   10.0185    0.0000 </r>
       <r>   10.1061    0.0000 </r>
       <r>   10.6241    0.0000 </r>
       <r>   12.6150    0.0000 </r>
      </set>
      <set comment="kpoint 3">
       <r>  -21.3775    1.0000 </r>
       <r>  -10.0981    1.0000 </r>
       <r>   -9.2600    1.0000 </r>
       <r>   -8.1650    1.0000 </r>
       <r>    1.8042    0.0000 </r>
       <r>    2.5837    0.0000 </r>
       <r>    2.8333    0.0000 </r>
       <r>    3.1360    0.0000 </r>
       <r>    3.3476    0.0000 </r>
       <r>    3.9774    0.0000 </r>
       <r>    4.2836    0.0000 </r>
       <r>    4.4661    0.0000 </r>
       <r>    4.9673    0.0000 </r>
       <r>    5.2358    0.0000 </r>
       <r>    5.6007    0.0000 </r>
       <r>    6.8157    0.0000 </r>
       <r>    7.2498    0.0000 </r>
       <r>    8.7359    0.0000 </r>
       <r>    9.0882    0.0000 </r>
       <r>    9.2669    0.0000 </r>
       <r>   10.9823    0.0000 </r>
       <r>   11.5684    0.0000 </r>
       <r>   11.6590    0.0000 </r>
       <r>   13.5386    0.0000 </r>
      </set>
      <set comment="kpoint 4">
       <r>  -20.3434    1.0000 </r>
       <r>  -12.2613    1.0000 </r>
       <r>   -8.9489    1.0000 </r>
       <r>   -8.0784    1.0000 </r>
       <r>    2.1915    0.0000 </r>
       <r>    3.2296    0.0000 </r>
       <r>    4.0553    0.0000 </r>
       <r>    4.3074    0.0000 </r>
       <r>    4.6091    0.0000 </r>
       <r>    4.6255    0.0000 </r>
       <r>    4.8307    0.0000 </r>
       <r>    5.4515    0.0000 </r>
       <r>    5.7595    0.0000 </r>
       <r>    6.6829    0.0000 </r>
       <r>    7.0493    0.0000 </r>
       <r>    8.2501    0.0000 </r>
       <r>    8.6997    0.0000 </r>
       <r>   10.1379    0.0000 </r>
       <r>   10.7026    0.0000 </r>
       <r>   11.4667    0.0000 </r>
       <r>   12.2908    0.0000 </r>
       <r>   13.0291    0.0000 </r>
       <r>   13.0982    0.0000 </r>
       <r>   14.2449    0.0000 </r>
      </set>
      <set comment="kpoint 5">
       <r>  -19.0245    1.0000 </r>
       <r>  -14.3754    1.0000 </r>
       <r>   -9.4904    1.0000 </r>
       <r>   -6.6817    1.0000 </r>
       <r>    0.0162    0.0000 </r>
       <r>    4.3396    0.0000 </r>
       <r>    5.1148    0.0000 </r>
       <r>    5.9299    0.0000 </r>
       <r>    6.2371    0.0000 </r>
       <r>    6.5226    0.0000 </r>
       <r>    6.7408    0.0000 </r>
       <r>    7.3532    0.0000 </r>
       <r>    7.6676    0.0000 </r>
       <r>    8.5631    0.0000 </r>
       <r>    8.9480    0.0000 </r>
       <r>   10.0792    0.0000 </r>
       <r>   10.5858    0.0000 </r>
       <r>   11.1898    0.0000 </r>
       <r>   11.6892    0.0000 </r>
       <r>   12.3793    0.0000 </r>
       <r>   12.5809    0.0000 </r>
       <r>   13.0706    0.0000 </r>
       <r>   13.3415    0.0000 </r>
       <r>   13.7448    0.0000 </r>
      </set>
      <set comment="kpoint 6">
       <r>  -17.5832    1.0000 </r>
       <r>  -16.1733    1.0000 </r>
       <r>   -9.7310    1.0000 </r>
       <r>   -5.5684    1.0000 </r>
       <r>   -1.4607    0.0000 </r>
       <r>    4.2238    0.0000 </r>
       <r>    7.3615    0.0000 </r>
       <r>    8.1991    0.0000 </r>
       <r>    8.6145    0.0000 </r>
       <r>    8.6345    0.0000 </r>
       <r>    8.8734    0.0000 </r>
       <r>    9.1099    0.0000 </r>
       <r>    9.4418    0.0000 </r>
       <r>    9.7199    0.0000 </r>
       <r>    9.9794    0.0000 </r>
       <r>   10.0185    0.0000 </r>
       <r>   10.2217    0.0000 </r>
       <r>   10.4590    0.0000 </r>
       <r>   10.8085    0.0000 </r>
       <r>   11.0559    0.0000 </r>
       <r>   11.2756    0.0000 </r>
       <r>   11.3523    0.0000 </r>
       <r>   12.0112    0.0000 </r>
       <r>   12.5585    0.0000 </r>
      </set>
      <set comment="kpoint 7">
       <r>  -18.2834    1.0000 </r>
       <r>  -15.3532    1.0000 </r>
       <r>   -9.6503    1.0000 </r>
       <r>   -6.0187    1.0000 </r>
       <r>   -0.8874    0.0000 </r>
       <r>    4.2652    0.0000 </r>
       <r>    6.1879    0.0000 </r>
       <r>    7.0226    0.0000 </r>
       <r>    7.3713    0.0000 </r>
       <r>    7.6460    0.0000 </r>
       <r>    7.8691    0.0000 </r>
       <r>    8.4640    0.0000 </r>
       <r>    8.7881    0.0000 </r>
       <r>    9.6410    0.0000 </r>
       <r>    9.9302    0.0000 </r>
       <r>   10.0690    0.0000 </r>
       <r>   10.7096    0.0000 </r>
       <r>   11.2473    0.0000 </r>
       <r>   11.4522    0.0000 </r>
       <r>   11.6869    0.0000 </r>
       <r>   11.6910    0.0000 </r>
       <r>   11.9122    0.0000 </r>
       <r>   12.3801    0.0000 </r>
       <r>   12.9177    0.0000 </r>
      </set>
      <set comment="kpoint 8">
       <r>  -19.7168    1.0000 </r>
       <r>  -13.3358    1.0000 </r>
       <r>   -9.2548    1.0000 </r>
       <r>   -7.3926    1.0000 </r>
       <r>    1.0735    0.0000 </r>
       <r>    4.0828    0.0000 </r>
       <r>    4.5095    0.0000 </r>
       <r>    4.9380    0.0000 </r>
       <r>    5.2164    0.0000 </r>
       <r>    5.5098    0.0000 </r>
       <r>    5.7250    0.0000 </r>
       <r>    6.3476    0.0000 </r>
       <r>    6.6572    0.0000 </r>
       <r>    7.5711    0.0000 </r>
       <r>    7.9437    0.0000 </r>
       <r>    9.1219    0.0000 </r>
       <r>    9.5896    0.0000 </r>
       <r>   10.9655    0.0000 </r>
       <r>   11.5818    0.0000 </r>
       <r>   11.9638    0.0000 </r>
       <r>   12.8338    0.0000 </r>
       <r>   13.6398    0.0000 </r>
       <r>   13.8176    0.0000 </r>
       <r>   13.9440    0.0000 </r>
      </set>
      <set comment="kpoint 9">
       <r>  -20.8982    1.0000 </r>
       <r>  -11.1736    1.0000 </r>
       <r>   -8.7064    1.0000 </r>
       <r>   -8.5814    1.0000 </r>
       <r>    2.4637    0.0000 </r>
       <r>    3.1528    0.0000 </r>
       <r>    3.4374    0.0000 </r>
       <r>    3.5139    0.0000 </r>
       <r>    3.8289    0.0000 </r>
       <r>    4.0245    0.0000 </r>
       <r>    4.6679    0.0000 </r>
       <r>    4.7786    0.0000 </r>
       <r>    4.9937    0.0000 </r>
       <r>    5.9030    0.0000 </r>
       <r>    6.2669    0.0000 </r>
       <r>    7.4796    0.0000 </r>
       <r>    7.9194    0.0000 </r>
       <r>    9.3880    0.0000 </r>
       <r>    9.9253    0.0000 </r>
       <r>   10.3231    0.0000 </r>
       <r>   11.6064    0.0000 </r>
       <r>   12.2707    0.0000 </r>
       <r>   12.4196    0.0000 </r>
       <r>   14.0272    0.0000 </r>
      </set>
      <set comment="kpoint 10">
       <r>  -21.7795    1.0000 </r>
       <r>   -9.7301    1.0000 </r>
       <r>   -9.0682    1.0000 </r>
       <r>   -7.7187    1.0000 </r>
       <r>    1.2532    0.0000 </r>
       <r>    2.0292    0.0000 </r>
       <r>    2.2660    0.0000 </r>
       <r>    2.5736    0.0000 </r>
       <r>    2.7825    0.0000 </r>
       <r>    3.4235    0.0000 </r>
       <r>    3.7240    0.0000 </r>
       <r>    4.6660    0.0000 </r>
       <r>    4.9742    0.0000 </r>
       <r>    5.1619    0.0000 </r>
       <r>    5.4845    0.0000 </r>
       <r>    6.2616    0.0000 </r>
       <r>    6.6916    0.0000 </r>
       <r>    7.9323    0.0000 </r>
       <r>    8.1882    0.0000 </r>
       <r>    8.7051    0.0000 </r>
       <r>   10.4498    0.0000 </r>
       <r>   10.8034    0.0000 </r>
       <r>   11.0730    0.0000 </r>
       <r>   13.0260    0.0000 </r>
      </set>
      <set comment="kpoint 11">
       <r>  -22.3456    1.0000 </r>
       <r>  -10.3992    1.0000 </r>
       <r>   -7.3358    1.0000 </r>
       <r>   -6.8580    1.0000 </r>
       <r>    0.4808    0.0000 </r>
       <r>    1.2471    0.0000 </r>
       <r>    1.4719    0.0000 </r>
       <r>    1.7836    0.0000 </r>
       <r>    1.9910    0.0000 </r>
       <r>    2.6364    0.0000 </r>
       <r>    2.9367    0.0000 </r>
       <r>    3.8845    0.0000 </r>
       <r>    4.2356    0.0000 </r>
       <r>    5.1722    0.0000 </r>
       <r>    5.4792    0.0000 </r>
       <r>    5.9079    0.0000 </r>
       <r>    6.0875    0.0000 </r>
       <r>    7.1240    0.0000 </r>
       <r>    7.4168    0.0000 </r>
       <r>    7.9215    0.0000 </r>
       <r>    9.5694    0.0000 </r>
       <r>    9.6927    0.0000 </r>
       <r>   10.2883    0.0000 </r>
       <r>   12.2995    0.0000 </r>
      </set>
      <set comment="kpoint 12">
       <r>  -22.5894    1.0000 </r>
       <r>  -10.6893    1.0000 </r>
       <r>   -6.4394    1.0000 </r>
       <r>   -6.3593    1.0000 </r>
       <r>    0.1495    0.0000 </r>
       <r>    0.9111    0.0000 </r>
       <r>    1.1315    0.0000 </r>
       <r>    1.4448    0.0000 </r>
       <r>    1.6518    0.0000 </r>
       <r>    2.2985    0.0000 </r>
       <r>    2.5990    0.0000 </r>
       <r>    3.5480    0.0000 </r>
       <r>    3.9014    0.0000 </r>
       <r>    5.0391    0.0000 </r>
       <r>    5.1447    0.0000 </r>
       <r>    5.1937    0.0000 </r>
       <r>    5.5661    0.0000 </r>
       <r>    7.0848    0.0000 </r>
       <r>    7.5837    0.0000 </r>
       <r>    7.9268    0.0000 </r>
       <r>    9.0718    0.0000 </r>
       <r>    9.3653    0.0000 </r>
       <r>    9.9521    0.0000 </r>
       <r>   11.9984    0.0000 </r>
      </set>
      <set comment="kpoint 13">
       <r>  -21.5382    1.0000 </r>
       <r>   -9.4465    1.0000 </r>
       <r>   -9.4386    1.0000 </r>
       <r>   -8.3473    1.0000 </r>
       <r>    1.5847    0.0000 </r>
       <r>    2.3641    0.0000 </r>
       <r>    2.6064    0.0000 </r>
       <r>    2.9121    0.0000 </r>
       <r>    3.1219    0.0000 </r>
       <r>    3.7610    0.0000 </r>
       <r>    4.0626    0.0000 </r>
       <r>    4.9038    0.0000 </r>
       <r>    5.0032    0.0000 </r>
       <r>    5.3478    0.0000 </r>
       <r>    5.9078    0.0000 </r>
       <r>    6.5888    0.0000 </r>
       <r>    7.0324    0.0000 </r>
       <r>    7.4661    0.0000 </r>
       <r>    8.5118    0.0000 </r>
       <r>    9.0411    0.0000 </r>
       <r>   10.7617    0.0000 </r>
       <r>   11.4027    0.0000 </r>
       <r>   11.7347    0.0000 </r>
       <r>   13.3127    0.0000 </r>
      </set>
      <set comment="kpoint 14">
       <r>  -20.6602    1.0000 </r>
       <r>  -11.2077    1.0000 </r>
       <r>   -9.4274    1.0000 </r>
       <r>   -8.4296    1.0000 </r>
       <r>    2.7957    0.0000 </r>
       <r>    2.9722    0.0000 </r>
       <r>    3.5949    0.0000 </r>
       <r>    3.8544    0.0000 </r>
       <r>    4.1531    0.0000 </r>
       <r>    4.3654    0.0000 </r>
       <r>    4.9955    0.0000 </r>
       <r>    5.2979    0.0000 </r>
       <r>    6.0633    0.0000 </r>
       <r>    6.2275    0.0000 </r>
       <r>    6.6129    0.0000 </r>
       <r>    7.7955    0.0000 </r>
       <r>    8.2529    0.0000 </r>
       <r>    8.8912    0.0000 </r>
       <r>    9.6834    0.0000 </r>
       <r>   10.2665    0.0000 </r>
       <r>   11.8322    0.0000 </r>
       <r>   12.6197    0.0000 </r>
       <r>   13.7839    0.0000 </r>
       <r>   13.8561    0.0000 </r>
      </set>
      <set comment="kpoint 15">
       <r>  -19.4851    1.0000 </r>
       <r>  -13.2213    1.0000 </r>
       <r>  -10.1859    1.0000 </r>
       <r>   -7.1219    1.0000 </r>
       <r>    0.8874    0.0000 </r>
       <r>    4.4348    0.0000 </r>
       <r>    5.2427    0.0000 </r>
       <r>    5.5552    0.0000 </r>
       <r>    5.8127    0.0000 </r>
       <r>    5.8398    0.0000 </r>
       <r>    6.0696    0.0000 </r>
       <r>    6.6689    0.0000 </r>
       <r>    6.9953    0.0000 </r>
       <r>    7.8756    0.0000 </r>
       <r>    8.2781    0.0000 </r>
       <r>    9.3834    0.0000 </r>
       <r>    9.9169    0.0000 </r>
       <r>   10.7449    0.0000 </r>
       <r>   11.0604    0.0000 </r>
       <r>   11.9266    0.0000 </r>
       <r>   12.4158    0.0000 </r>
       <r>   13.9769    0.0000 </r>
       <r>   14.0451    0.0000 </r>
       <r>   14.2751    0.0000 </r>
      </set>
      <set comment="kpoint 16">
       <r>  -18.0629    1.0000 </r>
       <r>  -15.1741    1.0000 </r>
       <r>  -10.6090    1.0000 </r>
       <r>   -5.7395    1.0000 </r>
       <r>   -0.9901    0.0000 </r>
       <r>    5.6008    0.0000 </r>
       <r>    6.5083    0.0000 </r>
       <r>    7.2686    0.0000 </r>
       <r>    7.7114    0.0000 </r>
       <r>    7.9623    0.0000 </r>
       <r>    8.2065    0.0000 </r>
       <r>    8.7402    0.0000 </r>
       <r>    9.1207    0.0000 </r>
       <r>    9.7699    0.0000 </r>
       <r>   10.1015    0.0000 </r>
       <r>   10.3958    0.0000 </r>
       <r>   10.5976    0.0000 </r>
       <r>   11.5672    0.0000 </r>
       <r>   11.7879    0.0000 </r>
       <r>   11.9908    0.0000 </r>
       <r>   12.0063    0.0000 </r>
       <r>   12.2156    0.0000 </r>
       <r>   12.4892    0.0000 </r>
       <r>   13.0307    0.0000 </r>
      </set>
      <set comment="kpoint 17">
       <r>  -17.3708    1.0000 </r>
       <r>  -15.9771    1.0000 </r>
       <r>  -10.6939    1.0000 </r>
       <r>   -5.2754    1.0000 </r>
       <r>   -1.5587    0.0000 </r>
       <r>    5.5627    0.0000 </r>
       <r>    7.6636    0.0000 </r>
       <r>    8.3088    0.0000 </r>
       <r>    8.9002    0.0000 </r>
       <r>    8.9602    0.0000 </r>
       <r>    9.1419    0.0000 </r>
       <r>    9.4453    0.0000 </r>
       <r>    9.5322    0.0000 </r>
       <r>   10.0534    0.0000 </r>
       <r>   10.3182    0.0000 </r>
       <r>   10.3464    0.0000 </r>
       <r>   10.5128    0.0000 </r>
       <r>   10.7885    0.0000 </r>
       <r>   10.9566    0.0000 </r>
       <r>   11.3838    0.0000 </r>
       <r>   11.5859    0.0000 </r>
       <r>   11.6669    0.0000 </r>
       <r>   12.0148    0.0000 </r>
       <r>   12.7877    0.0000 </r>
      </set>
      <set comment="kpoint 18">
       <r>  -18.7976    1.0000 </r>
       <r>  -14.2223    1.0000 </r>
       <r>  -10.4395    1.0000 </r>
       <r>   -6.4103    1.0000 </r>
       <r>   -0.1157    0.0000 </r>
       <r>    5.3880    0.0000 </r>
       <r>    5.7280    0.0000 </r>
       <r>    6.2172    0.0000 </r>
       <r>    6.5775    0.0000 </r>
       <r>    6.8483    0.0000 </r>
       <r>    7.0794    0.0000 </r>
       <r>    7.6624    0.0000 </r>
       <r>    8.0033    0.0000 </r>
       <r>    8.8337    0.0000 </r>
       <r>    9.2794    0.0000 </r>
       <r>   10.2118    0.0000 </r>
       <r>   10.8611    0.0000 </r>
       <r>   11.0035    0.0000 </r>
       <r>   11.3887    0.0000 </r>
       <r>   12.6330    0.0000 </r>
       <r>   12.8905    0.0000 </r>
       <r>   13.2647    0.0000 </r>
       <r>   13.4572    0.0000 </r>
       <r>   13.4650    0.0000 </r>
      </set>
      <set comment="kpoint 19">
       <r>  -20.1082    1.0000 </r>
       <r>  -12.2052    1.0000 </r>
       <r>   -9.8488    1.0000 </r>
       <r>   -7.8052    1.0000 </r>
       <r>    1.9345    0.0000 </r>
       <r>    3.5630    0.0000 </r>
       <r>    4.3650    0.0000 </r>
       <r>    4.6485    0.0000 </r>
       <r>    4.9408    0.0000 </r>
       <r>    5.1554    0.0000 </r>
       <r>    5.7781    0.0000 </r>
       <r>    5.9258    0.0000 </r>
       <r>    6.1205    0.0000 </r>
       <r>    7.0010    0.0000 </r>
       <r>    7.3865    0.0000 </r>
       <r>    8.5499    0.0000 </r>
       <r>    9.0306    0.0000 </r>
       <r>    9.8755    0.0000 </r>
       <r>   10.3863    0.0000 </r>
       <r>   11.0438    0.0000 </r>
       <r>   12.2979    0.0000 </r>
       <r>   13.3890    0.0000 </r>
       <r>   13.7186    0.0000 </r>
       <r>   14.5382    0.0000 </r>
      </set>
      <set comment="kpoint 20">
       <r>  -21.1377    1.0000 </r>
       <r>  -10.2707    1.0000 </r>
       <r>   -8.9797    1.0000 </r>
       <r>   -8.9225    1.0000 </r>
       <r>    2.1358    0.0000 </r>
       <r>    2.9194    0.0000 </r>
       <r>    3.1737    0.0000 </r>
       <r>    3.4751    0.0000 </r>
       <r>    3.6873    0.0000 </r>
       <r>    3.9819    0.0000 </r>
       <r>    4.3235    0.0000 </r>
       <r>    4.6251    0.0000 </r>
       <r>    5.5607    0.0000 </r>
       <r>    5.8825    0.0000 </r>
       <r>    6.1371    0.0000 </r>
       <r>    7.1395    0.0000 </r>
       <r>    7.5876    0.0000 </r>
       <r>    8.0267    0.0000 </r>
       <r>    9.0503    0.0000 </r>
       <r>    9.5986    0.0000 </r>
       <r>   11.2716    0.0000 </r>
       <r>   11.9577    0.0000 </r>
       <r>   13.0709    0.0000 </r>
       <r>   14.6378    0.0000 </r>
      </set>
      <set comment="kpoint 21">
       <r>  -21.8602    1.0000 </r>
       <r>   -9.8248    1.0000 </r>
       <r>   -8.7281    1.0000 </r>
       <r>   -7.7618    1.0000 </r>
       <r>    1.1432    0.0000 </r>
       <r>    1.9179    0.0000 </r>
       <r>    2.1526    0.0000 </r>
       <r>    2.4609    0.0000 </r>
       <r>    2.6695    0.0000 </r>
       <r>    3.3115    0.0000 </r>
       <r>    3.6121    0.0000 </r>
       <r>    4.5562    0.0000 </r>
       <r>    4.9023    0.0000 </r>
       <r>    5.5152    0.0000 </r>
       <r>    5.7171    0.0000 </r>
       <r>    6.1471    0.0000 </r>
       <r>    6.5825    0.0000 </r>
       <r>    7.1881    0.0000 </r>
       <r>    8.0765    0.0000 </r>
       <r>    8.5941    0.0000 </r>
       <r>   10.3401    0.0000 </r>
       <r>   10.7973    0.0000 </r>
       <r>   10.9587    0.0000 </r>
       <r>   12.9206    0.0000 </r>
      </set>
      <set comment="kpoint 22">
       <r>  -22.2645    1.0000 </r>
       <r>  -10.3029    1.0000 </r>
       <r>   -7.6444    1.0000 </r>
       <r>   -6.9636    1.0000 </r>
       <r>    0.5911    0.0000 </r>
       <r>    1.3590    0.0000 </r>
       <r>    1.5853    0.0000 </r>
       <r>    1.8965    0.0000 </r>
       <r>    2.1041    0.0000 </r>
       <r>    2.7490    0.0000 </r>
       <r>    3.0492    0.0000 </r>
       <r>    3.9965    0.0000 </r>
       <r>    4.3460    0.0000 </r>
       <r>    5.0822    0.0000 </r>
       <r>    5.5903    0.0000 </r>
       <r>    6.0197    0.0000 </r>
       <r>    6.4974    0.0000 </r>
       <r>    6.8692    0.0000 </r>
       <r>    7.5278    0.0000 </r>
       <r>    8.0335    0.0000 </r>
       <r>    9.7180    0.0000 </r>
       <r>    9.8018    0.0000 </r>
       <r>   10.4005    0.0000 </r>
       <r>   12.4055    0.0000 </r>
      </set>
      <set comment="kpoint 23">
       <r>  -19.6406    1.0000 </r>
       <r>  -12.4196    1.0000 </r>
       <r>  -10.8922    1.0000 </r>
       <r>   -7.2747    1.0000 </r>
       <r>    1.2798    0.0000 </r>
       <r>    4.2201    0.0000 </r>
       <r>    5.0019    0.0000 </r>
       <r>    5.3292    0.0000 </r>
       <r>    5.6092    0.0000 </r>
       <r>    5.8346    0.0000 </r>
       <r>    6.4354    0.0000 </r>
       <r>    6.7602    0.0000 </r>
       <r>    7.6368    0.0000 </r>
       <r>    7.6931    0.0000 </r>
       <r>    8.0845    0.0000 </r>
       <r>    8.6991    0.0000 </r>
       <r>    9.1300    0.0000 </r>
       <r>    9.7069    0.0000 </r>
       <r>   10.7595    0.0000 </r>
       <r>   11.7029    0.0000 </r>
       <r>   12.1393    0.0000 </r>
       <r>   13.8711    0.0000 </r>
       <r>   14.0401    0.0000 </r>
       <r>   15.5846    0.0000 </r>
      </set>
      <set comment="kpoint 24">
       <r>  -18.3481    1.0000 </r>
       <r>  -14.0106    1.0000 </r>
       <r>  -11.8094    1.0000 </r>
       <r>   -5.8889    1.0000 </r>
       <r>   -0.4992    0.0000 </r>
       <r>    6.0574    0.0000 </r>
       <r>    6.7390    0.0000 </r>
       <r>    7.2571    0.0000 </r>
       <r>    7.4919    0.0000 </r>
       <r>    7.7353    0.0000 </r>
       <r>    7.8535    0.0000 </r>
       <r>    8.2394    0.0000 </r>
       <r>    8.6755    0.0000 </r>
       <r>    9.2136    0.0000 </r>
       <r>    9.9124    0.0000 </r>
       <r>   10.1439    0.0000 </r>
       <r>   10.2155    0.0000 </r>
       <r>   11.5289    0.0000 </r>
       <r>   11.5790    0.0000 </r>
       <r>   13.2573    0.0000 </r>
       <r>   13.4218    0.0000 </r>
       <r>   13.5966    0.0000 </r>
       <r>   14.0015    0.0000 </r>
       <r>   14.0953    0.0000 </r>
      </set>
      <set comment="kpoint 25">
       <r>  -16.9492    1.0000 </r>
       <r>  -15.6276    1.0000 </r>
       <r>  -12.1447    1.0000 </r>
       <r>   -4.6967    1.0000 </r>
       <r>   -1.8760    0.0000 </r>
       <r>    7.6782    0.0000 </r>
       <r>    7.9629    0.0000 </r>
       <r>    8.2575    0.0000 </r>
       <r>    9.3912    0.0000 </r>
       <r>    9.6205    0.0000 </r>
       <r>    9.6388    0.0000 </r>
       <r>   10.0202    0.0000 </r>
       <r>   10.1138    0.0000 </r>
       <r>   10.7254    0.0000 </r>
       <r>   10.9848    0.0000 </r>
       <r>   11.0015    0.0000 </r>
       <r>   11.0914    0.0000 </r>
       <r>   11.4314    0.0000 </r>
       <r>   11.4418    0.0000 </r>
       <r>   12.0513    0.0000 </r>
       <r>   12.1414    0.0000 </r>
       <r>   12.2772    0.0000 </r>
       <r>   12.4179    0.0000 </r>
       <r>   13.3373    0.0000 </r>
      </set>
      <set comment="kpoint 26">
       <r>  -17.6272    1.0000 </r>
       <r>  -14.8714    1.0000 </r>
       <r>  -12.0365    1.0000 </r>
       <r>   -5.2007    1.0000 </r>
       <r>   -1.3092    0.0000 </r>
       <r>    7.1077    0.0000 </r>
       <r>    7.5412    0.0000 </r>
       <r>    7.7573    0.0000 </r>
       <r>    8.3917    0.0000 </r>
       <r>    8.5592    0.0000 </r>
       <r>    8.8802    0.0000 </r>
       <r>    9.1189    0.0000 </r>
       <r>    9.7777    0.0000 </r>
       <r>    9.8587    0.0000 </r>
       <r>   10.2135    0.0000 </r>
       <r>   10.9542    0.0000 </r>
       <r>   11.0470    0.0000 </r>
       <r>   12.2254    0.0000 </r>
       <r>   12.4182    0.0000 </r>
       <r>   12.5727    0.0000 </r>
       <r>   12.6072    0.0000 </r>
       <r>   12.7280    0.0000 </r>
       <r>   12.9400    0.0000 </r>
       <r>   13.2753    0.0000 </r>
      </set>
      <set comment="kpoint 27">
       <r>  -19.0252    1.0000 </r>
       <r>  -13.1697    1.0000 </r>
       <r>  -11.4386    1.0000 </r>
       <r>   -6.5997    1.0000 </r>
       <r>    0.3857    0.0000 </r>
       <r>    5.0895    0.0000 </r>
       <r>    5.8466    0.0000 </r>
       <r>    6.2366    0.0000 </r>
       <r>    6.5004    0.0000 </r>
       <r>    6.7372    0.0000 </r>
       <r>    7.3053    0.0000 </r>
       <r>    7.6445    0.0000 </r>
       <r>    7.9355    0.0000 </r>
       <r>    8.4544    0.0000 </r>
       <r>    8.9452    0.0000 </r>
       <r>    9.3452    0.0000 </r>
       <r>    9.7725    0.0000 </r>
       <r>   10.5927    0.0000 </r>
       <r>   10.9980    0.0000 </r>
       <r>   12.5046    0.0000 </r>
       <r>   12.5776    0.0000 </r>
       <r>   14.5619    0.0000 </r>
       <r>   14.7419    0.0000 </r>
       <r>   14.9324    0.0000 </r>
      </set>
      <set comment="kpoint 28">
       <r>  -20.1870    1.0000 </r>
       <r>  -11.7808    1.0000 </r>
       <r>  -10.1895    1.0000 </r>
       <r>   -7.8891    1.0000 </r>
       <r>    2.1509    0.0000 </r>
       <r>    3.4545    0.0000 </r>
       <r>    4.2449    0.0000 </r>
       <r>    4.5351    0.0000 </r>
       <r>    4.8256    0.0000 </r>
       <r>    5.0437    0.0000 </r>
       <r>    5.6623    0.0000 </r>
       <r>    5.9739    0.0000 </r>
       <r>    6.8842    0.0000 </r>
       <r>    6.9052    0.0000 </r>
       <r>    7.2947    0.0000 </r>
       <r>    8.4309    0.0000 </r>
       <r>    8.6909    0.0000 </r>
       <r>    8.9357    0.0000 </r>
       <r>   10.2600    0.0000 </r>
       <r>   10.9309    0.0000 </r>
       <r>   12.1436    0.0000 </r>
       <r>   13.2791    0.0000 </r>
       <r>   13.5906    0.0000 </r>
       <r>   15.1920    0.0000 </r>
      </set>
      <set comment="kpoint 29">
       <r>  -21.0577    1.0000 </r>
       <r>  -10.6518    1.0000 </r>
       <r>   -8.8883    1.0000 </r>
       <r>   -8.7210    1.0000 </r>
       <r>    2.2451    0.0000 </r>
       <r>    3.0214    0.0000 </r>
       <r>    3.2871    0.0000 </r>
       <r>    3.5749    0.0000 </r>
       <r>    3.7776    0.0000 </r>
       <r>    3.7999    0.0000 </r>
       <r>    4.4411    0.0000 </r>
       <r>    4.7337    0.0000 </r>
       <r>    5.3847    0.0000 </r>
       <r>    5.6760    0.0000 </r>
       <r>    6.0492    0.0000 </r>
       <r>    7.2539    0.0000 </r>
       <r>    7.6964    0.0000 </r>
       <r>    9.0665    0.0000 </r>
       <r>    9.1642    0.0000 </r>
       <r>    9.7116    0.0000 </r>
       <r>   11.3855    0.0000 </r>
       <r>   12.0663    0.0000 </r>
       <r>   12.6322    0.0000 </r>
       <r>   13.8135    0.0000 </r>
      </set>
      <set comment="kpoint 30">
       <r>  -21.6184    1.0000 </r>
       <r>   -9.5570    1.0000 </r>
       <r>   -9.5414    1.0000 </r>
       <r>   -7.8267    1.0000 </r>
       <r>    1.4735    0.0000 </r>
       <r>    2.2514    0.0000 </r>
       <r>    2.4929    0.0000 </r>
       <r>    2.7988    0.0000 </r>
       <r>    3.0085    0.0000 </r>
       <r>    3.6469    0.0000 </r>
       <r>    3.9476    0.0000 </r>
       <r>    4.8652    0.0000 </r>
       <r>    4.8674    0.0000 </r>
       <r>    5.0759    0.0000 </r>
       <r>    5.2706    0.0000 </r>
       <r>    6.4846    0.0000 </r>
       <r>    6.9146    0.0000 </r>
       <r>    8.4090    0.0000 </r>
       <r>    8.7144    0.0000 </r>
       <r>    8.9271    0.0000 </r>
       <r>   10.6659    0.0000 </r>
       <r>   10.9730    0.0000 </r>
       <r>   11.2980    0.0000 </r>
       <r>   13.2323    0.0000 </r>
      </set>
      <set comment="kpoint 31">
       <r>  -16.9984    1.0000 </r>
       <r>  -14.8461    1.0000 </r>
       <r>  -13.1395    1.0000 </r>
       <r>   -4.4923    1.0000 </r>
       <r>   -1.9296    0.0000 </r>
       <r>    7.5131    0.0000 </r>
       <r>    8.0217    0.0000 </r>
       <r>    9.4092    0.0000 </r>
       <r>    9.4260    0.0000 </r>
       <r>    9.6183    0.0000 </r>
       <r>    9.8017    0.0000 </r>
       <r>    9.8540    0.0000 </r>
       <r>    9.9650    0.0000 </r>
       <r>   10.6777    0.0000 </r>
       <r>   10.7906    0.0000 </r>
       <r>   11.8761    0.0000 </r>
       <r>   11.9992    0.0000 </r>
       <r>   12.9421    0.0000 </r>
       <r>   13.0656    0.0000 </r>
       <r>   13.0883    0.0000 </r>
       <r>   13.2795    0.0000 </r>
       <r>   13.5129    0.0000 </r>
       <r>   13.6097    0.0000 </r>
       <r>   13.6581    0.0000 </r>
      </set>
      <set comment="kpoint 32">
       <r>  -16.3362    1.0000 </r>
       <r>  -15.3901    1.0000 </r>
       <r>  -13.4290    1.0000 </r>
       <r>   -3.8721    1.0000 </r>
       <r>   -2.5514    0.0000 </r>
       <r>    7.4645    0.0000 </r>
       <r>    9.0062    0.0000 </r>
       <r>    9.5531    0.0000 </r>
       <r>   10.0090    0.0000 </r>
       <r>   10.5304    0.0000 </r>
       <r>   10.6566    0.0000 </r>
       <r>   10.9965    0.0000 </r>
       <r>   11.1030    0.0000 </r>
       <r>   11.7333    0.0000 </r>
       <r>   11.8771    0.0000 </r>
       <r>   11.9842    0.0000 </r>
       <r>   12.0024    0.0000 </r>
       <r>   12.2537    0.0000 </r>
       <r>   12.3586    0.0000 </r>
       <r>   12.7510    0.0000 </r>
       <r>   12.8500    0.0000 </r>
       <r>   12.9972    0.0000 </r>
       <r>   13.1086    0.0000 </r>
       <r>   13.2608    0.0000 </r>
      </set>
      <set comment="kpoint 33">
       <r>  -17.6917    1.0000 </r>
       <r>  -14.3906    1.0000 </r>
       <r>  -12.5670    1.0000 </r>
       <r>   -5.1985    1.0000 </r>
       <r>   -1.2149    0.0000 </r>
       <r>    7.0077    0.0000 </r>
       <r>    7.3486    0.0000 </r>
       <r>    8.2774    0.0000 </r>
       <r>    8.4347    0.0000 </r>
       <r>    8.7516    0.0000 </r>
       <r>    8.9229    0.0000 </r>
       <r>    8.9797    0.0000 </r>
       <r>    9.6560    0.0000 </r>
       <r>    9.7408    0.0000 </r>
       <r>    9.9098    0.0000 </r>
       <r>   10.8737    0.0000 </r>
       <r>   10.9436    0.0000 </r>
       <r>   12.3679    0.0000 </r>
       <r>   12.5346    0.0000 </r>
       <r>   13.2092    0.0000 </r>
       <r>   13.5393    0.0000 </r>
       <r>   13.7997    0.0000 </r>
       <r>   14.1172    0.0000 </r>
       <r>   14.3028    0.0000 </r>
      </set>
      <set comment="kpoint 34">
       <r>  -18.9490    1.0000 </r>
       <r>  -13.6329    1.0000 </r>
       <r>  -10.9865    1.0000 </r>
       <r>   -6.5353    1.0000 </r>
       <r>    0.2025    0.0000 </r>
       <r>    5.1964    0.0000 </r>
       <r>    5.9733    0.0000 </r>
       <r>    6.3496    0.0000 </r>
       <r>    6.6170    0.0000 </r>
       <r>    6.7480    0.0000 </r>
       <r>    6.8694    0.0000 </r>
       <r>    7.4259    0.0000 </r>
       <r>    7.7807    0.0000 </r>
       <r>    8.5845    0.0000 </r>
       <r>    9.0559    0.0000 </r>
       <r>    9.9287    0.0000 </r>
       <r>   10.3807    0.0000 </r>
       <r>   10.7205    0.0000 </r>
       <r>   11.1503    0.0000 </r>
       <r>   12.5861    0.0000 </r>
       <r>   12.6863    0.0000 </r>
       <r>   13.7888    0.0000 </r>
       <r>   14.3041    0.0000 </r>
       <r>   14.6310    0.0000 </r>
      </set>
      <set comment="kpoint 35">
       <r>  -19.9511    1.0000 </r>
       <r>  -12.7635    1.0000 </r>
       <r>   -9.4829    1.0000 </r>
       <r>   -7.6388    1.0000 </r>
       <r>    1.5536    0.0000 </r>
       <r>    3.7779    0.0000 </r>
       <r>    4.5978    0.0000 </r>
       <r>    4.8741    0.0000 </r>
       <r>    5.0790    0.0000 </r>
       <r>    5.1694    0.0000 </r>
       <r>    5.3910    0.0000 </r>
       <r>    6.0074    0.0000 </r>
       <r>    6.3212    0.0000 </r>
       <r>    7.2312    0.0000 </r>
       <r>    7.6084    0.0000 </r>
       <r>    8.7825    0.0000 </r>
       <r>    9.2552    0.0000 </r>
       <r>   10.6269    0.0000 </r>
       <r>   11.0848    0.0000 </r>
       <r>   11.2898    0.0000 </r>
       <r>   12.5621    0.0000 </r>
       <r>   13.6078    0.0000 </r>
       <r>   13.8730    0.0000 </r>
       <r>   13.9061    0.0000 </r>
      </set>
      <set comment="kpoint 36">
       <r>  -20.6597    1.0000 </r>
       <r>  -11.7243    1.0000 </r>
       <r>   -8.6426    1.0000 </r>
       <r>   -8.4356    1.0000 </r>
       <r>    2.7761    0.0000 </r>
       <r>    2.7917    0.0000 </r>
       <r>    3.6279    0.0000 </r>
       <r>    3.8540    0.0000 </r>
       <r>    4.1609    0.0000 </r>
       <r>    4.3538    0.0000 </r>
       <r>    4.5462    0.0000 </r>
       <r>    5.0046    0.0000 </r>
       <r>    5.3113    0.0000 </r>
       <r>    6.2392    0.0000 </r>
       <r>    6.6018    0.0000 </r>
       <r>    7.8130    0.0000 </r>
       <r>    8.2540    0.0000 </r>
       <r>    9.7158    0.0000 </r>
       <r>   10.2615    0.0000 </r>
       <r>   11.4203    0.0000 </r>
       <r>   11.9199    0.0000 </r>
       <r>   12.2616    0.0000 </r>
       <r>   12.6311    0.0000 </r>
       <r>   14.2566    0.0000 </r>
      </set>
      <set comment="kpoint 37">
       <r>  -16.5073    1.0000 </r>
       <r>  -15.6117    1.0000 </r>
       <r>  -12.8880    1.0000 </r>
       <r>   -4.2159    1.0000 </r>
       <r>   -2.2644    0.0000 </r>
       <r>    7.6752    0.0000 </r>
       <r>    8.7430    0.0000 </r>
       <r>    9.0302    0.0000 </r>
       <r>    9.3645    0.0000 </r>
       <r>   10.4136    0.0000 </r>
       <r>   10.7557    0.0000 </r>
       <r>   10.7753    0.0000 </r>
       <r>   10.8350    0.0000 </r>
       <r>   11.0460    0.0000 </r>
       <r>   11.1756    0.0000 </r>
       <r>   11.2405    0.0000 </r>
       <r>   11.3013    0.0000 </r>
       <r>   11.8787    0.0000 </r>
       <r>   11.9237    0.0000 </r>
       <r>   12.0932    0.0000 </r>
       <r>   12.1641    0.0000 </r>
       <r>   12.8693    0.0000 </r>
       <r>   13.1197    0.0000 </r>
       <r>   13.3254    0.0000 </r>
      </set>
      <set comment="kpoint 38">
       <r>  -17.5080    1.0000 </r>
       <r>  -15.4551    1.0000 </r>
       <r>  -11.3588    1.0000 </r>
       <r>   -5.2188    1.0000 </r>
       <r>   -1.4482    0.0000 </r>
       <r>    6.5828    0.0000 </r>
       <r>    7.3493    0.0000 </r>
       <r>    7.8801    0.0000 </r>
       <r>    8.6182    0.0000 </r>
       <r>    8.8019    0.0000 </r>
       <r>    9.1043    0.0000 </r>
       <r>    9.3709    0.0000 </r>
       <r>    9.6912    0.0000 </r>
       <r>   10.0157    0.0000 </r>
       <r>   10.0306    0.0000 </r>
       <r>   10.9748    0.0000 </r>
       <r>   11.2581    0.0000 </r>
       <r>   11.3359    0.0000 </r>
       <r>   11.4627    0.0000 </r>
       <r>   11.7672    0.0000 </r>
       <r>   11.8415    0.0000 </r>
       <r>   12.4946    0.0000 </r>
       <r>   12.5562    0.0000 </r>
       <r>   12.8780    0.0000 </r>
      </set>
      <set comment="kpoint 39">
       <r>  -18.5739    1.0000 </r>
       <r>  -14.8100    1.0000 </r>
       <r>   -9.9635    1.0000 </r>
       <r>   -6.2334    1.0000 </r>
       <r>   -0.5005    0.0000 </r>
       <r>    4.8264    0.0000 </r>
       <r>    5.7598    0.0000 </r>
       <r>    6.5690    0.0000 </r>
       <r>    6.9176    0.0000 </r>
       <r>    7.1919    0.0000 </r>
       <r>    7.4177    0.0000 </r>
       <r>    8.0097    0.0000 </r>
       <r>    8.3397    0.0000 </r>
       <r>    9.1896    0.0000 </r>
       <r>    9.6139    0.0000 </r>
       <r>   10.5718    0.0000 </r>
       <r>   10.6109    0.0000 </r>
       <r>   11.2511    0.0000 </r>
       <r>   11.4342    0.0000 </r>
       <r>   12.3548    0.0000 </r>
       <r>   12.4228    0.0000 </r>
       <r>   12.6871    0.0000 </r>
       <r>   12.7676    0.0000 </r>
       <r>   13.2929    0.0000 </r>
      </set>
      <set comment="kpoint 40">
       <r>  -19.4070    1.0000 </r>
       <r>  -13.8797    1.0000 </r>
       <r>   -9.2472    1.0000 </r>
       <r>   -7.0714    1.0000 </r>
       <r>    0.5487    0.0000 </r>
       <r>    4.1909    0.0000 </r>
       <r>    4.5903    0.0000 </r>
       <r>    5.3831    0.0000 </r>
       <r>    5.6700    0.0000 </r>
       <r>    5.9612    0.0000 </r>
       <r>    6.1763    0.0000 </r>
       <r>    6.7970    0.0000 </r>
       <r>    7.1063    0.0000 </r>
       <r>    8.0170    0.0000 </r>
       <r>    8.3905    0.0000 </r>
       <r>    9.5602    0.0000 </r>
       <r>   10.0339    0.0000 </r>
       <r>   11.3740    0.0000 </r>
       <r>   11.7579    0.0000 </r>
       <r>   12.0381    0.0000 </r>
       <r>   12.7663    0.0000 </r>
       <r>   13.7049    0.0000 </r>
       <r>   13.8314    0.0000 </r>
       <r>   14.3013    0.0000 </r>
      </set>
      <set comment="kpoint 41">
       <r>  -17.3455    1.0000 </r>
       <r>  -16.2711    1.0000 </r>
       <r>  -10.1271    1.0000 </r>
       <r>   -5.3913    1.0000 </r>
       <r>   -1.5739    0.0000 </r>
       <r>    4.7479    0.0000 </r>
       <r>    8.0150    0.0000 </r>
       <r>    8.1792    0.0000 </r>
       <r>    8.6913    0.0000 </r>
       <r>    9.0696    0.0000 </r>
       <r>    9.4015    0.0000 </r>
       <r>    9.4208    0.0000 </r>
       <r>    9.6287    0.0000 </r>
       <r>    9.6881    0.0000 </r>
       <r>    9.8810    0.0000 </r>
       <r>    9.9110    0.0000 </r>
       <r>   10.3385    0.0000 </r>
       <r>   10.5243    0.0000 </r>
       <r>   10.7722    0.0000 </r>
       <r>   10.8148    0.0000 </r>
       <r>   11.3551    0.0000 </r>
       <r>   11.7560    0.0000 </r>
       <r>   12.0093    0.0000 </r>
       <r>   12.0711    0.0000 </r>
      </set>
      <set comment="kpoint 42">
       <r>  -17.9399    1.0000 </r>
       <r>  -15.8229    1.0000 </r>
       <r>   -9.5645    1.0000 </r>
       <r>   -5.7877    1.0000 </r>
       <r>   -1.2217    0.0000 </r>
       <r>    4.0547    0.0000 </r>
       <r>    6.7248    0.0000 </r>
       <r>    7.5720    0.0000 </r>
       <r>    7.9383    0.0000 </r>
       <r>    8.2086    0.0000 </r>
       <r>    8.4326    0.0000 </r>
       <r>    9.0191    0.0000 </r>
       <r>    9.2431    0.0000 </r>
       <r>    9.3555    0.0000 </r>
       <r>   10.0279    0.0000 </r>
       <r>   10.3005    0.0000 </r>
       <r>   10.6161    0.0000 </r>
       <r>   10.6597    0.0000 </r>
       <r>   10.8986    0.0000 </r>
       <r>   11.1325    0.0000 </r>
       <r>   11.5655    0.0000 </r>
       <r>   11.8227    0.0000 </r>
       <r>   12.0238    0.0000 </r>
       <r>   12.2579    0.0000 </r>
      </set>
     </set>
    </set>
   </array>
  </eigenvalues>
  <separator name="orbital magnetization" >
   <v name="MAGDIPOLOUT">      0.00000000      0.00000000      0.00000000</v>
  </separator>
  <dos>
   <i name="efermi">     -3.62487249 </i>
   <total>
    <array>
     <dimension dim="1">gridpoints</dimension>
     <dimension dim="2">spin</dimension>
     <field>energy</field>
     <field>total</field>
     <field>integrated</field>
     <set>
      <set comment="spin 1">
       <r>   -24.4981     0.0000     0.0000 </r>
       <r>   -24.3581     0.0000     0.0000 </r>
       <r>   -24.2182     0.0000     0.0000 </r>
       <r>   -24.0782     0.0000     0.0000 </r>
       <r>   -23.9382     0.0000     0.0000 </r>
       <r>   -23.7982     0.0000     0.0000 </r>
       <r>   -23.6583     0.0000     0.0000 </r>
       <r>   -23.5183     0.0000     0.0000 </r>
       <r>   -23.3783     0.0000     0.0000 </r>
       <r>   -23.2384     0.0000     0.0000 </r>
       <r>   -23.0984     0.0000     0.0000 </r>
       <r>   -22.9584     0.0000     0.0000 </r>
       <r>   -22.8184     0.0000     0.0000 </r>
       <r>   -22.6785     0.0012     0.0002 </r>
       <r>   -22.5385     0.2211     0.0311 </r>
       <r>   -22.3985     0.2012     0.0593 </r>
       <r>   -22.2586     0.4802     0.1265 </r>
       <r>   -22.1186     0.2176     0.1569 </r>
       <r>   -21.9786     0.2680     0.1945 </r>
       <r>   -21.8386     0.3079     0.2375 </r>
       <r>   -21.6987     0.4838     0.3053 </r>
       <r>   -21.5587     0.2472     0.3399 </r>
       <r>   -21.4187     0.2002     0.3679 </r>
       <r>   -21.2788     0.3475     0.4165 </r>
       <r>   -21.1388     0.1988     0.4443 </r>
       <r>   -20.9988     0.5779     0.5252 </r>
       <r>   -20.8588     0.3622     0.5759 </r>
       <r>   -20.7189     0.0815     0.5873 </r>
       <r>   -20.5789     0.5603     0.6658 </r>
       <r>   -20.4389     0.0078     0.6669 </r>
       <r>   -20.2990     0.3545     0.7165 </r>
       <r>   -20.1590     0.3827     0.7700 </r>
       <r>   -20.0190     0.4607     0.8345 </r>
       <r>   -19.8790     0.3801     0.8877 </r>
       <r>   -19.7391     0.1136     0.9036 </r>
       <r>   -19.5991     0.4661     0.9689 </r>
       <r>   -19.4591     0.3428     1.0169 </r>
       <r>   -19.3192     0.2751     1.0554 </r>
       <r>   -19.1792     0.0013     1.0556 </r>
       <r>   -19.0392     0.2737     1.0939 </r>
       <r>   -18.8992     0.8860     1.2179 </r>
       <r>   -18.7593     0.3727     1.2700 </r>
       <r>   -18.6193     0.0947     1.2833 </r>
       <r>   -18.4793     0.3560     1.3331 </r>
       <r>   -18.3394     0.2611     1.3697 </r>
       <r>   -18.1994     0.5307     1.4440 </r>
       <r>   -18.0594     0.2178     1.4744 </r>
       <r>   -17.9194     0.3252     1.5200 </r>
       <r>   -17.7795     0.0585     1.5281 </r>
       <r>   -17.6395     0.5330     1.6028 </r>
       <r>   -17.4995     0.8874     1.7270 </r>
       <r>   -17.3596     0.4813     1.7943 </r>
       <r>   -17.2196     0.2786     1.8333 </r>
       <r>   -17.0796     0.0022     1.8336 </r>
       <r>   -16.9396     0.4273     1.8935 </r>
       <r>   -16.7997     0.1658     1.9167 </r>
       <r>   -16.6597     0.0000     1.9167 </r>
       <r>   -16.5197     0.0720     1.9267 </r>
       <r>   -16.3798     0.1699     1.9505 </r>
       <r>   -16.2398     0.5253     2.0241 </r>
       <r>   -16.0998     0.4162     2.0823 </r>
       <r>   -15.9598     0.2801     2.1215 </r>
       <r>   -15.8199     0.2302     2.1537 </r>
       <r>   -15.6799     0.1254     2.1713 </r>
       <r>   -15.5399     0.5589     2.2495 </r>
       <r>   -15.4000     0.5687     2.3291 </r>
       <r>   -15.2600     0.6269     2.4168 </r>
       <r>   -15.1200     0.3706     2.4687 </r>
       <r>   -14.9800     0.0254     2.4723 </r>
       <r>   -14.8401     0.5130     2.5441 </r>
       <r>   -14.7001     0.4785     2.6111 </r>
       <r>   -14.5601     0.0004     2.6111 </r>
       <r>   -14.4202     0.1208     2.6280 </r>
       <r>   -14.2802     0.6914     2.7248 </r>
       <r>   -14.1402     0.3746     2.7772 </r>
       <r>   -14.0002     0.2482     2.8120 </r>
       <r>   -13.8603     0.2933     2.8530 </r>
       <r>   -13.7203     0.0605     2.8615 </r>
       <r>   -13.5803     0.3670     2.9129 </r>
       <r>   -13.4404     0.1763     2.9375 </r>
       <r>   -13.3004     0.5868     3.0197 </r>
       <r>   -13.1604     0.7325     3.1222 </r>
       <r>   -13.0204     0.3177     3.1667 </r>
       <r>   -12.8805     0.1162     3.1829 </r>
       <r>   -12.7405     0.3768     3.2357 </r>
       <r>   -12.6005     0.1705     3.2595 </r>
       <r>   -12.4606     0.3528     3.3089 </r>
       <r>   -12.3206     0.1928     3.3359 </r>
       <r>   -12.1806     0.7357     3.4389 </r>
       <r>   -12.0406     0.6160     3.5251 </r>
       <r>   -11.9007     0.2197     3.5558 </r>
       <r>   -11.7607     0.6754     3.6504 </r>
       <r>   -11.6207     0.3144     3.6944 </r>
       <r>   -11.4808     0.0468     3.7009 </r>
       <r>   -11.3408     0.6250     3.7884 </r>
       <r>   -11.2008     0.4390     3.8499 </r>
       <r>   -11.0609     0.4839     3.9176 </r>
       <r>   -10.9209     0.4191     3.9763 </r>
       <r>   -10.7809     0.1731     4.0005 </r>
       <r>   -10.6409     0.8841     4.1243 </r>
       <r>   -10.5010     0.7156     4.2244 </r>
       <r>   -10.3610     0.7294     4.3265 </r>
       <r>   -10.2210     0.7493     4.4314 </r>
       <r>   -10.0811     1.4573     4.6354 </r>
       <r>    -9.9411     0.5182     4.7079 </r>
       <r>    -9.8011     0.7794     4.8170 </r>
       <r>    -9.6611     1.0424     4.9629 </r>
       <r>    -9.5212     0.8898     5.0875 </r>
       <r>    -9.3812     1.5023     5.2977 </r>
       <r>    -9.2412     0.7049     5.3964 </r>
       <r>    -9.1013     0.4128     5.4542 </r>
       <r>    -8.9613     0.8100     5.5676 </r>
       <r>    -8.8213     1.0953     5.7209 </r>
       <r>    -8.6813     1.0445     5.8671 </r>
       <r>    -8.5414     0.7004     5.9651 </r>
       <r>    -8.4014     0.5413     6.0409 </r>
       <r>    -8.2614     0.3032     6.0833 </r>
       <r>    -8.1215     0.6292     6.1714 </r>
       <r>    -7.9815     0.5623     6.2501 </r>
       <r>    -7.8415     0.4934     6.3191 </r>
       <r>    -7.7015     1.1752     6.4836 </r>
       <r>    -7.5616     0.7046     6.5823 </r>
       <r>    -7.4216     0.0926     6.5952 </r>
       <r>    -7.2816     0.9142     6.7232 </r>
       <r>    -7.1417     0.5090     6.7944 </r>
       <r>    -7.0017     0.4994     6.8643 </r>
       <r>    -6.8617     0.3572     6.9143 </r>
       <r>    -6.7217     0.4291     6.9744 </r>
       <r>    -6.5818     0.7114     7.0740 </r>
       <r>    -6.4418     0.8296     7.1901 </r>
       <r>    -6.3018     0.6263     7.2777 </r>
       <r>    -6.1619     0.3886     7.3321 </r>
       <r>    -6.0219     0.1927     7.3591 </r>
       <r>    -5.8819     0.4431     7.4211 </r>
       <r>    -5.7419     0.5333     7.4958 </r>
       <r>    -5.6020     0.2965     7.5373 </r>
       <r>    -5.4620     0.3330     7.5839 </r>
       <r>    -5.3220     0.2276     7.6158 </r>
       <r>    -5.1821     1.2474     7.7904 </r>
       <r>    -5.0421     0.3071     7.8333 </r>
       <r>    -4.9021     0.0000     7.8333 </r>
       <r>    -4.7621     0.0127     7.8351 </r>
       <r>    -4.6222     0.3772     7.8879 </r>
       <r>    -4.4822     0.1284     7.9059 </r>
       <r>    -4.3422     0.0770     7.9167 </r>
       <r>    -4.2023     0.1290     7.9347 </r>
       <r>    -4.0623     0.0694     7.9444 </r>
       <r>    -3.9223     0.0309     7.9488 </r>
       <r>    -3.7823     0.3638     7.9997 </r>
       <r>    -3.6424     0.0022     8.0000 </r>
       <r>    -3.5024     0.0000     8.0000 </r>
       <r>    -3.3624     0.0000     8.0000 </r>
       <r>    -3.2225     0.0000     8.0000 </r>
       <r>    -3.0825     0.0000     8.0000 </r>
       <r>    -2.9425     0.0000     8.0000 </r>
       <r>    -2.8025     0.0000     8.0000 </r>
       <r>    -2.6626     0.0003     8.0000 </r>
       <r>    -2.5226     0.3141     8.0440 </r>
       <r>    -2.3826     0.0825     8.0556 </r>
       <r>    -2.2427     0.1450     8.0759 </r>
       <r>    -2.1027     0.0533     8.0833 </r>
       <r>    -1.9627     0.0375     8.0886 </r>
       <r>    -1.8227     0.5314     8.1630 </r>
       <r>    -1.6828     0.0267     8.1667 </r>
       <r>    -1.5428     0.4335     8.2274 </r>
       <r>    -1.4028     0.8973     8.3530 </r>
       <r>    -1.2629     0.4764     8.4197 </r>
       <r>    -1.1229     0.5717     8.4997 </r>
       <r>    -0.9829     0.2339     8.5324 </r>
       <r>    -0.8429     0.5207     8.6053 </r>
       <r>    -0.7030     0.0415     8.6111 </r>
       <r>    -0.5630     0.0294     8.6152 </r>
       <r>    -0.4230     0.7526     8.7206 </r>
       <r>    -0.2831     0.0118     8.7222 </r>
       <r>    -0.1431     0.0871     8.7344 </r>
       <r>    -0.0031     0.4257     8.7940 </r>
       <r>     0.1369     0.3649     8.8451 </r>
       <r>     0.2768     0.6404     8.9347 </r>
       <r>     0.4168     0.4052     8.9914 </r>
       <r>     0.5568     0.6019     9.0757 </r>
       <r>     0.6967     0.2530     9.1111 </r>
       <r>     0.8367     0.3346     9.1579 </r>
       <r>     0.9767     0.6691     9.2516 </r>
       <r>     1.1167     0.6960     9.3490 </r>
       <r>     1.2566     1.1133     9.5048 </r>
       <r>     1.3966     0.7573     9.6108 </r>
       <r>     1.5366     1.0259     9.7544 </r>
       <r>     1.6765     1.3077     9.9375 </r>
       <r>     1.8165     1.0347    10.0823 </r>
       <r>     1.9565     1.3002    10.2643 </r>
       <r>     2.0965     1.1538    10.4258 </r>
       <r>     2.2364     2.1870    10.7319 </r>
       <r>     2.3764     1.4434    10.9339 </r>
       <r>     2.5164     1.2003    11.1019 </r>
       <r>     2.6563     1.6550    11.3336 </r>
       <r>     2.7963     1.6367    11.5627 </r>
       <r>     2.9363     1.6834    11.7983 </r>
       <r>     3.0763     1.8076    12.0513 </r>
       <r>     3.2162     1.5243    12.2647 </r>
       <r>     3.3562     1.6811    12.5000 </r>
       <r>     3.4962     1.7565    12.7459 </r>
       <r>     3.6361     2.3143    13.0698 </r>
       <r>     3.7761     1.9063    13.3366 </r>
       <r>     3.9161     2.2592    13.6528 </r>
       <r>     4.0561     2.2466    13.9673 </r>
       <r>     4.1960     1.7885    14.2176 </r>
       <r>     4.3360     3.4261    14.6972 </r>
       <r>     4.4760     2.3900    15.0317 </r>
       <r>     4.6159     2.9957    15.4510 </r>
       <r>     4.7559     2.4703    15.7968 </r>
       <r>     4.8959     2.5800    16.1579 </r>
       <r>     5.0359     3.5883    16.6602 </r>
       <r>     5.1758     3.7433    17.1842 </r>
       <r>     5.3158     3.3305    17.6503 </r>
       <r>     5.4558     2.3266    17.9760 </r>
       <r>     5.5957     3.4711    18.4618 </r>
       <r>     5.7357     3.0284    18.8857 </r>
       <r>     5.8757     3.4224    19.3648 </r>
       <r>     6.0157     3.3494    19.8336 </r>
       <r>     6.1556     3.1764    20.2782 </r>
       <r>     6.2956     3.6704    20.7920 </r>
       <r>     6.4356     1.7916    21.0427 </r>
       <r>     6.5755     2.6094    21.4080 </r>
       <r>     6.7155     3.6822    21.9234 </r>
       <r>     6.8555     2.8698    22.3251 </r>
       <r>     6.9955     2.8933    22.7300 </r>
       <r>     7.1354     3.0433    23.1560 </r>
       <r>     7.2754     3.1297    23.5941 </r>
       <r>     7.4154     3.9060    24.1408 </r>
       <r>     7.5553     3.0780    24.5716 </r>
       <r>     7.6953     4.5638    25.2105 </r>
       <r>     7.8353     3.4106    25.6878 </r>
       <r>     7.9753     4.3169    26.2921 </r>
       <r>     8.1152     2.7963    26.6835 </r>
       <r>     8.2552     2.9875    27.1017 </r>
       <r>     8.3952     2.9873    27.5198 </r>
       <r>     8.5351     2.5532    27.8772 </r>
       <r>     8.6751     3.4513    28.3603 </r>
       <r>     8.8151     4.0040    28.9207 </r>
       <r>     8.9551     3.6612    29.4332 </r>
       <r>     9.0950     4.6165    30.0793 </r>
       <r>     9.2350     3.8634    30.6201 </r>
       <r>     9.3750     2.8051    31.0127 </r>
       <r>     9.5149     3.0775    31.4435 </r>
       <r>     9.6549     3.9762    32.0000 </r>
       <r>     9.7949     4.5922    32.6428 </r>
       <r>     9.9349     3.5904    33.1454 </r>
       <r>    10.0748     5.1914    33.8720 </r>
       <r>    10.2148     3.3623    34.3426 </r>
       <r>    10.3548     3.8244    34.8779 </r>
       <r>    10.4947     2.7842    35.2676 </r>
       <r>    10.6347     3.4520    35.7508 </r>
       <r>    10.7747     4.3056    36.3535 </r>
       <r>    10.9147     3.5283    36.8473 </r>
       <r>    11.0546     6.1892    37.7137 </r>
       <r>    11.1946     3.2410    38.1673 </r>
       <r>    11.3346     3.5125    38.6590 </r>
       <r>    11.4745     4.2442    39.2530 </r>
       <r>    11.6145     3.1699    39.6967 </r>
       <r>    11.7545     3.3481    40.1654 </r>
       <r>    11.8945     2.8033    40.5578 </r>
       <r>    12.0344     4.8395    41.2351 </r>
       <r>    12.1744     2.9126    41.6428 </r>
       <r>    12.3144     3.3828    42.1163 </r>
       <r>    12.4543     4.3298    42.7224 </r>
       <r>    12.5943     4.3067    43.3252 </r>
       <r>    12.7343     3.6453    43.8354 </r>
       <r>    12.8742     2.5361    44.1904 </r>
       <r>    13.0142     2.7459    44.5747 </r>
       <r>    13.1542     2.9574    44.9887 </r>
       <r>    13.2942     2.7046    45.3672 </r>
       <r>    13.4341     2.5305    45.7214 </r>
       <r>    13.5741     2.0002    46.0014 </r>
       <r>    13.7141     2.1523    46.3027 </r>
       <r>    13.8540     2.9898    46.7211 </r>
       <r>    13.9940     2.1175    47.0175 </r>
       <r>    14.1340     1.8740    47.2799 </r>
       <r>    14.2740     1.0328    47.4244 </r>
       <r>    14.4139     1.1346    47.5832 </r>
       <r>    14.5539     0.4395    47.6447 </r>
       <r>    14.6939     1.1462    47.8052 </r>
       <r>    14.8338     0.3988    47.8610 </r>
       <r>    14.9738     0.3497    47.9100 </r>
       <r>    15.1138     0.0533    47.9174 </r>
       <r>    15.2538     0.3756    47.9700 </r>
       <r>    15.3937     0.0160    47.9722 </r>
       <r>    15.5337     0.0149    47.9743 </r>
       <r>    15.6737     0.1824    47.9998 </r>
       <r>    15.8136     0.0012    48.0000 </r>
       <r>    15.9536     0.0000    48.0000 </r>
       <r>    16.0936     0.0000    48.0000 </r>
       <r>    16.2336     0.0000    48.0000 </r>
       <r>    16.3735     0.0000    48.0000 </r>
       <r>    16.5135     0.0000    48.0000 </r>
       <r>    16.6535     0.0000    48.0000 </r>
       <r>    16.7934     0.0000    48.0000 </r>
       <r>    16.9334     0.0000    48.0000 </r>
       <r>    17.0734     0.0000    48.0000 </r>
       <r>    17.2134     0.0000    48.0000 </r>
       <r>    17.3533     0.0000    48.0000 </r>
       <r>    17.4933     0.0000    48.0000 </r>
      </set>
     </set>
    </array>
   </total>
  </dos>
 </calculation>
 <structure name="finalpos" >
  <crystal>
   <varray name="basis" >
    <v>       1.23832093      -2.14484017       0.00000000 </v>
    <v>       1.23832093       2.14484017       0.00000000 </v>
    <v>       0.00000000       0.00000000      30.28239374 </v>
   </varray>
   <i name="volume">    160.86010503 </i>
   <varray name="rec_basis" >
    <v>       0.40377255      -0.23311760       0.00000000 </v>
    <v>       0.40377255       0.23311760       0.00000000 </v>
    <v>       0.00000000       0.00000000       0.03302249 </v>
   </varray>
  </crystal>
  <varray name="positions" >
   <v>       0.00000262       0.99999738       0.50000000 </v>
   <v>       0.66666738       0.33333262       0.50000000 </v>
  </varray>
 </structure>
</modeling>
