   2   2   0   0
  0.7989563E+02  0.2461296E-09  0.2475548E-09  0.3028239E-08  0.5000000E-15
  1.000000000000000E-004
  CAR 
 unknown system                          
     18.14263071    -24.57854349  301     -3.49386397      1.00000000
    -24.579  0.0000E+00  0.0000E+00
    -24.436  0.0000E+00  0.0000E+00
    -24.294  0.0000E+00  0.0000E+00
    -24.151  0.0000E+00  0.0000E+00
    -24.009  0.0000E+00  0.0000E+00
    -23.867  0.0000E+00  0.0000E+00
    -23.724  0.0000E+00  0.0000E+00
    -23.582  0.0000E+00  0.0000E+00
    -23.439  0.0000E+00  0.0000E+00
    -23.297  0.0000E+00  0.0000E+00
    -23.155  0.0000E+00  0.0000E+00
    -23.012  0.0000E+00  0.0000E+00
    -22.870  0.4263E-13  0.6071E-14
    -22.727  0.1012E-04  0.1441E-05
    -22.585  0.2187E-02  0.3129E-03
    -22.442  0.1995E-02  0.5969E-03
    -22.300  0.4779E-02  0.1278E-02
    -22.158  0.2267E-02  0.1600E-02
    -22.015  0.2419E-02  0.1945E-02
    -21.873  0.3429E-02  0.2433E-02
    -21.730  0.4395E-02  0.3059E-02
    -21.588  0.2667E-02  0.3439E-02
    -21.446  0.2056E-02  0.3731E-02
    -21.303  0.3054E-02  0.4166E-02
    -21.161  0.2717E-02  0.4553E-02
    -21.018  0.5077E-02  0.5276E-02
    -20.876  0.3691E-02  0.5802E-02
    -20.734  0.1053E-02  0.5952E-02
    -20.591  0.5010E-02  0.6665E-02
    -20.449  0.1162E-03  0.6682E-02
    -20.306  0.3723E-02  0.7212E-02
    -20.164  0.4771E-02  0.7891E-02
    -20.022  0.3635E-02  0.8409E-02
    -19.879  0.3361E-02  0.8888E-02
    -19.737  0.2362E-02  0.9224E-02
    -19.594  0.3518E-02  0.9725E-02
    -19.452  0.4289E-02  0.1034E-01
    -19.310  0.1542E-02  0.1056E-01
    -19.167  0.1538E-04  0.1056E-01
    -19.025  0.5952E-02  0.1141E-01
    -18.882  0.6058E-02  0.1227E-01
    -18.740  0.3434E-02  0.1276E-01
    -18.598  0.1976E-02  0.1304E-01
    -18.455  0.2103E-02  0.1334E-01
    -18.313  0.5269E-02  0.1409E-01
    -18.170  0.2550E-02  0.1445E-01
    -18.028  0.3458E-02  0.1494E-01
    -17.886  0.2292E-02  0.1527E-01
    -17.743  0.1040E-02  0.1542E-01
    -17.601  0.7631E-02  0.1650E-01
    -17.458  0.7100E-02  0.1752E-01
    -17.316  0.4611E-02  0.1817E-01
    -17.174  0.1128E-02  0.1833E-01
    -17.031  0.7072E-03  0.1843E-01
    -16.889  0.4799E-02  0.1912E-01
    -16.746  0.3455E-03  0.1917E-01
    -16.604  0.7043E-05  0.1917E-01
    -16.462  0.1805E-02  0.1942E-01
    -16.319  0.2955E-02  0.1985E-01
    -16.177  0.5867E-02  0.2068E-01
    -16.034  0.1722E-02  0.2093E-01
    -15.892  0.3392E-02  0.2141E-01
    -15.750  0.1805E-02  0.2167E-01
    -15.607  0.4528E-02  0.2231E-01
    -15.465  0.3698E-02  0.2284E-01
    -15.322  0.8398E-02  0.2403E-01
    -15.180  0.3062E-02  0.2447E-01
    -15.037  0.1773E-02  0.2472E-01
    -14.895  0.1387E-02  0.2492E-01
    -14.753  0.8184E-02  0.2609E-01
    -14.610  0.1824E-03  0.2611E-01
    -14.468  0.3493E-03  0.2616E-01
    -14.325  0.6369E-02  0.2707E-01
    -14.183  0.4472E-02  0.2770E-01
    -14.041  0.1529E-02  0.2792E-01
    -13.898  0.3487E-02  0.2842E-01
    -13.756  0.1357E-02  0.2861E-01
    -13.613  0.2416E-02  0.2896E-01
    -13.471  0.3070E-02  0.2939E-01
    -13.329  0.4517E-02  0.3004E-01
    -13.186  0.5886E-02  0.3087E-01
    -13.044  0.5559E-02  0.3167E-01
    -12.901  0.1175E-02  0.3183E-01
    -12.759  0.2676E-02  0.3221E-01
    -12.617  0.2892E-02  0.3263E-01
    -12.474  0.3073E-02  0.3306E-01
    -12.332  0.2204E-02  0.3338E-01
    -12.189  0.6544E-02  0.3431E-01
    -12.047  0.6750E-02  0.3527E-01
    -11.905  0.2219E-02  0.3559E-01
    -11.762  0.5229E-02  0.3633E-01
    -11.620  0.4296E-02  0.3694E-01
    -11.477  0.8930E-03  0.3707E-01
    -11.335  0.6132E-02  0.3794E-01
    -11.193  0.3917E-02  0.3850E-01
    -11.050  0.4901E-02  0.3920E-01
    -10.908  0.4325E-02  0.3982E-01
    -10.765  0.2253E-02  0.4014E-01
    -10.623  0.9366E-02  0.4147E-01
    -10.481  0.6690E-02  0.4242E-01
    -10.338  0.7136E-02  0.4344E-01
    -10.196  0.8725E-02  0.4468E-01
    -10.053  0.1241E-01  0.4645E-01
     -9.911  0.5676E-02  0.4726E-01
     -9.769  0.1030E-01  0.4872E-01
     -9.626  0.6960E-02  0.4971E-01
     -9.484  0.1258E-01  0.5151E-01
     -9.341  0.1095E-01  0.5307E-01
     -9.199  0.8121E-02  0.5422E-01
     -9.057  0.3579E-02  0.5473E-01
     -8.914  0.1141E-01  0.5636E-01
     -8.772  0.6784E-02  0.5732E-01
     -8.629  0.1257E-01  0.5911E-01
     -8.487  0.4608E-02  0.5977E-01
     -8.344  0.6111E-02  0.6064E-01
     -8.202  0.2433E-02  0.6099E-01
     -8.060  0.8550E-02  0.6220E-01
     -7.917  0.3374E-02  0.6268E-01
     -7.775  0.8459E-02  0.6389E-01
     -7.632  0.1038E-01  0.6537E-01
     -7.490  0.3331E-02  0.6584E-01
     -7.348  0.4243E-02  0.6645E-01
     -7.205  0.8236E-02  0.6762E-01
     -7.063  0.6062E-02  0.6848E-01
     -6.920  0.2322E-02  0.6881E-01
     -6.778  0.4030E-02  0.6939E-01
     -6.636  0.6453E-02  0.7030E-01
     -6.493  0.8061E-02  0.7145E-01
     -6.351  0.7085E-02  0.7246E-01
     -6.208  0.5003E-02  0.7317E-01
     -6.066  0.1699E-02  0.7342E-01
     -5.924  0.3641E-02  0.7393E-01
     -5.781  0.4970E-02  0.7464E-01
     -5.639  0.4600E-02  0.7530E-01
     -5.496  0.3176E-02  0.7575E-01
     -5.354  0.2188E-02  0.7606E-01
     -5.212  0.7463E-02  0.7712E-01
     -5.069  0.8458E-02  0.7833E-01
     -4.927  0.3385E-04  0.7833E-01
     -4.784  0.2741E-04  0.7834E-01
     -4.642  0.2913E-02  0.7875E-01
     -4.500  0.1368E-02  0.7895E-01
     -4.357  0.1543E-02  0.7917E-01
     -4.215  0.5358E-03  0.7924E-01
     -4.072  0.1415E-02  0.7944E-01
     -3.930  0.1670E-03  0.7947E-01
     -3.788  0.3197E-02  0.7992E-01
     -3.645  0.5382E-03  0.8000E-01
     -3.503  0.3486E-08  0.8000E-01
     -3.360  0.0000E+00  0.8000E-01
     -3.218  0.0000E+00  0.8000E-01
     -3.076  0.0000E+00  0.8000E-01
     -2.933  0.0000E+00  0.8000E-01
     -2.791  0.1704E-14  0.8000E-01
     -2.648  0.2425E-05  0.8000E-01
     -2.506  0.2186E-02  0.8031E-01
     -2.364  0.1712E-02  0.8056E-01
     -2.221  0.1013E-02  0.8070E-01
     -2.079  0.9383E-03  0.8083E-01
     -1.936  0.1688E-03  0.8086E-01
     -1.794  0.5203E-02  0.8160E-01
     -1.652  0.4818E-03  0.8167E-01
     -1.509  0.3924E-02  0.8223E-01
     -1.367  0.8853E-02  0.8349E-01
     -1.224  0.4610E-02  0.8414E-01
     -1.082  0.5939E-02  0.8499E-01
     -0.939  0.2260E-02  0.8531E-01
     -0.797  0.5193E-02  0.8605E-01
     -0.655  0.4281E-03  0.8611E-01
     -0.512  0.2720E-03  0.8615E-01
     -0.370  0.7398E-02  0.8720E-01
     -0.227  0.1326E-03  0.8722E-01
     -0.085  0.9414E-03  0.8736E-01
      0.057  0.4452E-02  0.8799E-01
      0.200  0.4424E-02  0.8862E-01
      0.342  0.5686E-02  0.8943E-01
      0.485  0.5250E-02  0.9018E-01
      0.627  0.5552E-02  0.9097E-01
      0.769  0.1326E-02  0.9116E-01
      0.912  0.4993E-02  0.9187E-01
      1.054  0.5954E-02  0.9272E-01
      1.197  0.9717E-02  0.9410E-01
      1.339  0.1118E-01  0.9569E-01
      1.481  0.7080E-02  0.9670E-01
      1.624  0.1360E-01  0.9864E-01
      1.766  0.7500E-02  0.9970E-01
      1.909  0.1364E-01  0.1016E+00
      2.051  0.1318E-01  0.1035E+00
      2.193  0.1522E-01  0.1057E+00
      2.336  0.2083E-01  0.1087E+00
      2.478  0.1123E-01  0.1103E+00
      2.621  0.1446E-01  0.1123E+00
      2.763  0.1459E-01  0.1144E+00
      2.905  0.1894E-01  0.1171E+00
      3.048  0.1802E-01  0.1197E+00
      3.190  0.1471E-01  0.1218E+00
      3.333  0.1768E-01  0.1243E+00
      3.475  0.1370E-01  0.1262E+00
      3.617  0.2382E-01  0.1296E+00
      3.760  0.1971E-01  0.1324E+00
      3.902  0.2385E-01  0.1358E+00
      4.045  0.1742E-01  0.1383E+00
      4.187  0.2072E-01  0.1412E+00
      4.329  0.2870E-01  0.1453E+00
      4.472  0.2378E-01  0.1487E+00
      4.614  0.2825E-01  0.1527E+00
      4.757  0.3041E-01  0.1571E+00
      4.899  0.1804E-01  0.1596E+00
      5.041  0.3795E-01  0.1650E+00
      5.184  0.3076E-01  0.1694E+00
      5.326  0.4411E-01  0.1757E+00
      5.469  0.2188E-01  0.1788E+00
      5.611  0.3192E-01  0.1834E+00
      5.753  0.2869E-01  0.1875E+00
      5.896  0.3571E-01  0.1925E+00
      6.038  0.3436E-01  0.1974E+00
      6.181  0.3002E-01  0.2017E+00
      6.323  0.4077E-01  0.2075E+00
      6.466  0.1650E-01  0.2099E+00
      6.608  0.2553E-01  0.2135E+00
      6.750  0.3767E-01  0.2189E+00
      6.893  0.2782E-01  0.2228E+00
      7.035  0.2914E-01  0.2270E+00
      7.178  0.2966E-01  0.2312E+00
      7.320  0.3212E-01  0.2358E+00
      7.462  0.3847E-01  0.2412E+00
      7.605  0.3274E-01  0.2459E+00
      7.747  0.4243E-01  0.2520E+00
      7.890  0.3354E-01  0.2567E+00
      8.032  0.3638E-01  0.2619E+00
      8.174  0.3228E-01  0.2665E+00
      8.317  0.3725E-01  0.2718E+00
      8.459  0.2765E-01  0.2757E+00
      8.602  0.2664E-01  0.2795E+00
      8.744  0.3319E-01  0.2843E+00
      8.886  0.3366E-01  0.2891E+00
      9.029  0.3710E-01  0.2943E+00
      9.171  0.4834E-01  0.3012E+00
      9.314  0.3633E-01  0.3064E+00
      9.456  0.3049E-01  0.3107E+00
      9.598  0.2975E-01  0.3150E+00
      9.741  0.4401E-01  0.3212E+00
      9.883  0.3776E-01  0.3266E+00
     10.026  0.4143E-01  0.3325E+00
     10.168  0.5012E-01  0.3397E+00
     10.310  0.3314E-01  0.3444E+00
     10.453  0.3962E-01  0.3500E+00
     10.595  0.2295E-01  0.3533E+00
     10.738  0.4176E-01  0.3592E+00
     10.880  0.3599E-01  0.3644E+00
     11.022  0.4562E-01  0.3709E+00
     11.165  0.5496E-01  0.3787E+00
     11.307  0.3156E-01  0.3832E+00
     11.450  0.3841E-01  0.3887E+00
     11.592  0.3485E-01  0.3936E+00
     11.734  0.3285E-01  0.3983E+00
     11.877  0.3109E-01  0.4027E+00
     12.019  0.3679E-01  0.4080E+00
     12.162  0.4706E-01  0.4147E+00
     12.304  0.2529E-01  0.4183E+00
     12.446  0.3651E-01  0.4235E+00
     12.589  0.4347E-01  0.4297E+00
     12.731  0.4632E-01  0.4362E+00
     12.874  0.2633E-01  0.4400E+00
     13.016  0.3159E-01  0.4445E+00
     13.158  0.2321E-01  0.4478E+00
     13.301  0.2970E-01  0.4520E+00
     13.443  0.3012E-01  0.4563E+00
     13.586  0.1755E-01  0.4588E+00
     13.728  0.2506E-01  0.4624E+00
     13.871  0.2150E-01  0.4654E+00
     14.013  0.2495E-01  0.4690E+00
     14.155  0.1931E-01  0.4718E+00
     14.298  0.1388E-01  0.4737E+00
     14.440  0.1567E-01  0.4760E+00
     14.583  0.4166E-02  0.4766E+00
     14.725  0.6085E-02  0.4774E+00
     14.867  0.5458E-02  0.4782E+00
     15.010  0.4027E-02  0.4788E+00
     15.152  0.8329E-03  0.4789E+00
     15.295  0.2073E-07  0.4789E+00
     15.437  0.2978E-03  0.4789E+00
     15.579  0.1826E-02  0.4792E+00
     15.722  0.3680E-02  0.4797E+00
     15.864  0.4803E-04  0.4797E+00
     16.007  0.3968E-10  0.4797E+00
     16.149  0.1395E-03  0.4797E+00
     16.291  0.1801E-02  0.4800E+00
     16.434  0.1012E-04  0.4800E+00
     16.576  0.4263E-13  0.4800E+00
     16.719  0.0000E+00  0.4800E+00
     16.861  0.0000E+00  0.4800E+00
     17.003  0.0000E+00  0.4800E+00
     17.146  0.0000E+00  0.4800E+00
     17.288  0.0000E+00  0.4800E+00
     17.431  0.0000E+00  0.4800E+00
     17.573  0.0000E+00  0.4800E+00
     17.715  0.0000E+00  0.4800E+00
     17.858  0.0000E+00  0.4800E+00
     18.000  0.0000E+00  0.4800E+00
     18.143  0.0000E+00  0.4800E+00
