 vasp.5.4.4.18Apr17-6-g9f103f2a35 (build Jan 14 2019 14:48:31) complex          
  
 executed on             LinuxIFC date 2019.09.10  15:54:32
 running on   24 total cores
 distrk:  each k-point on   24 cores,    1 groups
 distr:  one band on NCORES_PER_BAND=   1 cores,   24 groups


--------------------------------------------------------------------------------------------------------


 INCAR:
 POTCAR:    PAW_PBE C_h 06Feb2004                 

 ----------------------------------------------------------------------------- 
|                                                                             |
|           W    W    AA    RRRRR   N    N  II  N    N   GGGG   !!!           |
|           W    W   A  A   R    R  NN   N  II  NN   N  G    G  !!!           |
|           W    W  A    A  R    R  N N  N  II  N N  N  G       !!!           |
|           W WW W  AAAAAA  RRRRR   N  N N  II  N  N N  G  GGG   !            |
|           WW  WW  A    A  R   R   N   NN  II  N   NN  G    G                |
|           W    W  A    A  R    R  N    N  II  N    N   GGGG   !!!           |
|                                                                             |
|      For optimal performance we recommend to set                            |
|        NCORE= 4 - approx SQRT( number of cores)                             |
|      NCORE specifies how many cores store one orbital (NPAR=cpu/NCORE).     |
|      This setting can  greatly improve the performance of VASP for DFT.     |
|      The default,   NCORE=1            might be grossly inefficient         |
|      on modern multi-core architectures or massively parallel machines.     |
|      Do your own testing !!!!                                               |
|      Unfortunately you need to use the default for GW and RPA calculations. |
|      (for HF NCORE is supported but not extensively tested yet)             |
|                                                                             |
 ----------------------------------------------------------------------------- 

 POTCAR:    PAW_PBE C_h 06Feb2004                 
   VRHFIN =C: s2p2                                                              
   LEXCH  = PE                                                                  
   EATOM  =   147.1560 eV,   10.8157 Ry                                         
                                                                                
   TITEL  = PAW_PBE C_h 06Feb2004                                               
   LULTRA =        F    use ultrasoft PP ?                                      
   IUNSCR =        1    unscreen: 0-lin 1-nonlin 2-no                           
   RPACOR =    0.800    partial core radius                                     
   POMASS =   12.011; ZVAL   =    4.000    mass and valenz                      
   RCORE  =    1.100    outmost cutoff radius                                   
   RWIGS  =    1.630; RWIGS  =    0.863    wigner-seitz radius (au A)           
   ENMAX  =  700.000; ENMIN  =  500.000 eV                                      
   ICORE  =        2    local potential                                         
   LCOR   =        T    correct aug charges                                     
   LPAW   =        T    paw PP                                                  
   EAUG   =  946.768                                                            
   DEXC   =    0.000                                                            
   RMAX   =    1.128    core radius for proj-oper                               
   RAUG   =    1.300    factor for augmentation sphere                          
   RDEP   =    1.162    radius for radial grids                                 
   RDEPT  =    1.088    core radius for aug-charge                              
                                                                                
   Atomic configuration                                                         
    4 entries                                                                   
     n  l   j            E        occ.                                          
     1  0  0.50      -273.3789   2.0000                                         
     2  0  0.50       -13.7508   2.0000                                         
     2  1  0.50        -5.2854   2.0000                                         
     3  2  1.50        -5.4423   0.0000                                         
   Description                                                                  
     l       E           TYP  RCUT    TYP  RCUT                                 
     0    -13.7508458     23  1.100                                             
     0     -8.2022199     23  1.100                                             
     1     -5.2854383     23  1.100                                             
     1      1.1560700     23  1.100                                             
     2     -5.4423304      7  1.100                                             
  local pseudopotential read in
  partial core-charges read in
  partial kinetic energy density read in
  atomic valenz-charges read in
  non local Contribution for L=           0  read in
    real space projection operators read in
  non local Contribution for L=           0  read in
    real space projection operators read in
  non local Contribution for L=           1  read in
    real space projection operators read in
  non local Contribution for L=           1  read in
    real space projection operators read in
    PAW grid and wavefunctions read in
 
   number of l-projection  operators is LMAX  =           4
   number of lm-projection operators is LMMAX =           8
 
  PAW_PBE C_h 06Feb2004                 :
 energy of atom  1       EATOM= -147.1560
 kinetic energy error for atom=    0.0044 (will be added to EATOM!!)
 
 
 POSCAR: graphene                                
  positions in direct lattice
  velocities in cartesian coordinates
 exchange correlation table for  LEXCH =        8
   RHO(1)=    0.500       N(1)  =     2000
   RHO(2)=  100.500       N(2)  =     4000

 VTST: version 3.1, (03/28/14)

 CHAIN: initializing optimizer
 
 OPT: Using VASP Conjugate-Gradient optimizer
 CHAIN: Read ICHAIN            0
 
 POSCAR: graphene                                
  positions in direct lattice
  velocities in cartesian coordinates
 


--------------------------------------------------------------------------------------------------------


 ion  position               nearest neighbor table
   1  0.000  1.000  0.500-   2 1.42   2 1.43   2 1.43
   2  0.667  0.333  0.500-   1 1.42   1 1.43   1 1.43
 
  LATTYP: Found a simple monoclinic cell.
 ALAT       =     4.2630847087
 B/A-ratio  =     7.1033994893
 C/A-ratio  =     1.5268921982
 COS(beta)  =    -0.9817541839
  
  Lattice vectors:
  
 A1 = (  -3.6954950205,   2.1253723879,   0.0000000000)
 A2 = (   0.0000000000,   0.0000000000, -30.2823937426)
 A3 = (   4.9225762174,  -4.2589728218,   0.0000000000)


Analysis of symmetry for initial positions (statically):
=====================================================================
 Subroutine PRICEL returns:
 Original cell was already a primitive cell.
 

 Routine SETGRP: Setting up the symmetry group for a 
 simple monoclinic supercell.


 Subroutine GETGRP returns: Found  4 space group operations
 (whereof  2 operations were pure point group operations)
 out of a pool of  4 trial point group operations.


The static configuration has the point symmetry C_1h.
 The point group associated with its full space group is C_2h.


Analysis of symmetry for dynamics (positions and initial velocities):
=====================================================================
 Subroutine PRICEL returns:
 Original cell was already a primitive cell.
 

 Routine SETGRP: Setting up the symmetry group for a 
 simple monoclinic supercell.


 Subroutine GETGRP returns: Found  4 space group operations
 (whereof  2 operations were pure point group operations)
 out of a pool of  4 trial point group operations.


The dynamic configuration has the point symmetry C_1h.
 The point group associated with its full space group is C_2h.


 Subroutine INISYM returns: Found  4 space group operations
 (whereof  2 operations are pure point group operations),
 and found     1 'primitive' translations

 
 
 KPOINTS: K-Mesh Generated with KP-Resolved Value 

Automatic generation of k-mesh.
Space group operators:
 irot       det(A)        alpha          n_x          n_y          n_z        tau_x        tau_y        tau_z
    1     1.000000     0.000001     1.000000     0.000000     0.000000     0.000000     0.000000     0.000000
    2    -1.000000   179.999999     0.000000     0.000000     1.000000     0.000000     0.000000     0.000000
    3    -1.000000     0.000001     1.000000     0.000000     0.000000    -1.333330    -0.666670     0.000000
    4     1.000000   179.999999     0.000000     0.000000     1.000000    -1.333330    -0.666670     0.000000
 
 Subroutine IBZKPT returns following result:
 ===========================================
 
 Found     72 irreducible k-points:
 
 Following reciprocal coordinates:
            Coordinates               Weight
  0.041667  0.041667  0.000000      2.000000
  0.125000  0.041667  0.000000      2.000000
  0.208333  0.041667  0.000000      2.000000
  0.291667  0.041667  0.000000      2.000000
  0.375000  0.041667  0.000000      2.000000
  0.458333  0.041667  0.000000      2.000000
 -0.458333  0.041667  0.000000      2.000000
 -0.375000  0.041667  0.000000      2.000000
 -0.291667  0.041667  0.000000      2.000000
 -0.208333  0.041667  0.000000      2.000000
 -0.125000  0.041667  0.000000      2.000000
 -0.041667  0.041667  0.000000      2.000000
  0.041667  0.125000  0.000000      2.000000
  0.125000  0.125000  0.000000      2.000000
  0.208333  0.125000  0.000000      2.000000
  0.291667  0.125000  0.000000      2.000000
  0.375000  0.125000  0.000000      2.000000
  0.458333  0.125000  0.000000      2.000000
 -0.458333  0.125000  0.000000      2.000000
 -0.375000  0.125000  0.000000      2.000000
 -0.291667  0.125000  0.000000      2.000000
 -0.208333  0.125000  0.000000      2.000000
 -0.125000  0.125000  0.000000      2.000000
 -0.041667  0.125000  0.000000      2.000000
  0.041667  0.208333  0.000000      2.000000
  0.125000  0.208333  0.000000      2.000000
  0.208333  0.208333  0.000000      2.000000
  0.291667  0.208333  0.000000      2.000000
  0.375000  0.208333  0.000000      2.000000
  0.458333  0.208333  0.000000      2.000000
 -0.458333  0.208333  0.000000      2.000000
 -0.375000  0.208333  0.000000      2.000000
 -0.291667  0.208333  0.000000      2.000000
 -0.208333  0.208333  0.000000      2.000000
 -0.125000  0.208333  0.000000      2.000000
 -0.041667  0.208333  0.000000      2.000000
  0.041667  0.291667  0.000000      2.000000
  0.125000  0.291667  0.000000      2.000000
  0.208333  0.291667  0.000000      2.000000
  0.291667  0.291667  0.000000      2.000000
  0.375000  0.291667  0.000000      2.000000
  0.458333  0.291667  0.000000      2.000000
 -0.458333  0.291667  0.000000      2.000000
 -0.375000  0.291667  0.000000      2.000000
 -0.291667  0.291667  0.000000      2.000000
 -0.208333  0.291667  0.000000      2.000000
 -0.125000  0.291667  0.000000      2.000000
 -0.041667  0.291667  0.000000      2.000000
  0.041667  0.375000  0.000000      2.000000
  0.125000  0.375000  0.000000      2.000000
  0.208333  0.375000  0.000000      2.000000
  0.291667  0.375000  0.000000      2.000000
  0.375000  0.375000  0.000000      2.000000
  0.458333  0.375000  0.000000      2.000000
 -0.458333  0.375000  0.000000      2.000000
 -0.375000  0.375000  0.000000      2.000000
 -0.291667  0.375000  0.000000      2.000000
 -0.208333  0.375000  0.000000      2.000000
 -0.125000  0.375000  0.000000      2.000000
 -0.041667  0.375000  0.000000      2.000000
  0.041667  0.458333  0.000000      2.000000
  0.125000  0.458333  0.000000      2.000000
  0.208333  0.458333  0.000000      2.000000
  0.291667  0.458333  0.000000      2.000000
  0.375000  0.458333  0.000000      2.000000
  0.458333  0.458333  0.000000      2.000000
 -0.458333  0.458333  0.000000      2.000000
 -0.375000  0.458333  0.000000      2.000000
 -0.291667  0.458333  0.000000      2.000000
 -0.208333  0.458333  0.000000      2.000000
 -0.125000  0.458333  0.000000      2.000000
 -0.041667  0.458333  0.000000      2.000000
 
 Following cartesian coordinates:
            Coordinates               Weight
  0.083050 -0.000277  0.000000      2.000000
  0.166260 -0.048503  0.000000      2.000000
  0.249470 -0.096728  0.000000      2.000000
  0.332680 -0.144954  0.000000      2.000000
  0.415890 -0.193180  0.000000      2.000000
  0.499100 -0.241406  0.000000      2.000000
 -0.416210  0.289078  0.000000      2.000000
 -0.333000  0.240852  0.000000      2.000000
 -0.249790  0.192626  0.000000      2.000000
 -0.166580  0.144400  0.000000      2.000000
 -0.083370  0.096175  0.000000      2.000000
 -0.000160  0.047949  0.000000      2.000000
  0.165941  0.047395  0.000000      2.000000
  0.249151 -0.000831  0.000000      2.000000
  0.332361 -0.049056  0.000000      2.000000
  0.415571 -0.097282  0.000000      2.000000
  0.498781 -0.145508  0.000000      2.000000
  0.581991 -0.193734  0.000000      2.000000
 -0.333320  0.336750  0.000000      2.000000
 -0.250110  0.288524  0.000000      2.000000
 -0.166900  0.240298  0.000000      2.000000
 -0.083690  0.192073  0.000000      2.000000
 -0.000479  0.143847  0.000000      2.000000
  0.082731  0.095621  0.000000      2.000000
  0.248831  0.095067  0.000000      2.000000
  0.332041  0.046842  0.000000      2.000000
  0.415251 -0.001384  0.000000      2.000000
  0.498461 -0.049610  0.000000      2.000000
  0.581671 -0.097836  0.000000      2.000000
  0.664881 -0.146061  0.000000      2.000000
 -0.250429  0.384422  0.000000      2.000000
 -0.167219  0.336196  0.000000      2.000000
 -0.084009  0.287970  0.000000      2.000000
 -0.000799  0.239745  0.000000      2.000000
  0.082411  0.191519  0.000000      2.000000
  0.165621  0.143293  0.000000      2.000000
  0.331721  0.142739  0.000000      2.000000
  0.414931  0.094514  0.000000      2.000000
  0.498141  0.046288  0.000000      2.000000
  0.581351 -0.001938  0.000000      2.000000
  0.664561 -0.050164  0.000000      2.000000
  0.747772 -0.098389  0.000000      2.000000
 -0.167539  0.432094  0.000000      2.000000
 -0.084329  0.383868  0.000000      2.000000
 -0.001119  0.335643  0.000000      2.000000
  0.082091  0.287417  0.000000      2.000000
  0.165301  0.239191  0.000000      2.000000
  0.248511  0.190965  0.000000      2.000000
  0.414612  0.190412  0.000000      2.000000
  0.497822  0.142186  0.000000      2.000000
  0.581032  0.093960  0.000000      2.000000
  0.664242  0.045734  0.000000      2.000000
  0.747452 -0.002492  0.000000      2.000000
  0.830662 -0.050717  0.000000      2.000000
 -0.084649  0.479766  0.000000      2.000000
 -0.001438  0.431540  0.000000      2.000000
  0.081772  0.383315  0.000000      2.000000
  0.164982  0.335089  0.000000      2.000000
  0.248192  0.286863  0.000000      2.000000
  0.331402  0.238637  0.000000      2.000000
  0.497502  0.238084  0.000000      2.000000
  0.580712  0.189858  0.000000      2.000000
  0.663922  0.141632  0.000000      2.000000
  0.747132  0.093406  0.000000      2.000000
  0.830342  0.045181  0.000000      2.000000
  0.913552 -0.003045  0.000000      2.000000
 -0.001758  0.527438  0.000000      2.000000
  0.081452  0.479213  0.000000      2.000000
  0.164662  0.430987  0.000000      2.000000
  0.247872  0.382761  0.000000      2.000000
  0.331082  0.334535  0.000000      2.000000
  0.414292  0.286309  0.000000      2.000000
 


--------------------------------------------------------------------------------------------------------




 Dimension of arrays:
   k-points           NKPTS =     72   k-points in BZ     NKDIM =     72   number of bands    NBANDS=     24
   number of dos      NEDOS =    301   number of ions     NIONS =      2
   non local maximal  LDIM  =      4   non local SUM 2l+1 LMDIM =      8
   total plane-waves  NPLWV = 169344
   max r-space proj   IRMAX =      1   max aug-charges    IRDMAX=   2710
   dimension x,y,z NGX =    24 NGY =   24 NGZ =  294
   dimension x,y,z NGXF=    32 NGYF=   36 NGZF=  420
   support grid    NGXF=    32 NGYF=   36 NGZF=  420
   ions per type =               2
   NGX,Y,Z   is equivalent  to a cutoff of  16.21, 16.12, 16.14 a.u.
   NGXF,Y,Z  is equivalent  to a cutoff of  21.61, 24.18, 23.06 a.u.

 SYSTEM =  unknown system                          
 POSCAR =  graphene                                

 Startparameter for this run:
   NWRITE =      2    write-flag & timer
   PREC   = high      normal or accurate (medium, high low for compatibility)
   ISTART =      0    job   : 0-new  1-cont  2-samecut
   ICHARG =      2    charge: 1-file 2-atom 10-const
   ISPIN  =      1    spin polarized calculation?
   LNONCOLLINEAR =      F non collinear calculations
   LSORBIT =      F    spin-orbit coupling
   INIWAV =      1    electr: 0-lowe 1-rand  2-diag
   LASPH  =      F    aspherical Exc in radial PAW
   METAGGA=      F    non-selfconsistent MetaGGA calc.

 Electronic Relaxation 1
   ENCUT  =  875.0 eV  64.31 Ry    8.02 a.u.   5.94  5.97 73.04*2*pi/ulx,y,z
   ENINI  =  875.0     initial cutoff
   ENAUG  =  946.8 eV  augmentation charge cutoff
   NELM   =     40;   NELMIN=  2; NELMDL=  0     # of ELM steps 
   EDIFF  = 0.1E-06   stopping-criterion for ELM
   LREAL  =      F    real-space projection
   NLSPLINE    = F    spline interpolate recip. space projectors
   LCOMPAT=      F    compatible to vasp.4.4
   GGA_COMPAT  = T    GGA compatible to vasp.4.4-vasp.4.6
   LMAXPAW     = -100 max onsite density
   LMAXMIX     =    2 max onsite mixed and CHGCAR
   VOSKOWN=      0    Vosko Wilk Nusair interpolation
   ROPT   =    0.00000
 Ionic relaxation
   EDIFFG = -.1E-01   stopping-criterion for IOM
   NSW    =    100    number of steps for IOM
   NBLOCK =      1;   KBLOCK =    100    inner block; outer block 
   IBRION =      2    ionic relax: 0-MD 1-quasi-New 2-CG
   NFREE  =      1    steps in history (QN), initial steepest desc. (CG)
   ISIF   =      2    stress and relaxation
   IWAVPR =     11    prediction:  0-non 1-charg 2-wave 3-comb
   ISYM   =      2    0-nonsym 1-usesym 2-fastsym
   LCORR  =      T    Harris-Foulkes like correction to forces

   POTIM  = 0.5000    time-step for ionic-motion
   TEIN   =    0.0    initial temperature
   TEBEG  =    0.0;   TEEND  =   0.0 temperature during run
   SMASS  =  -3.00    Nose mass-parameter (am)
   estimated Nose-frequenzy (Omega)   =  0.10E-29 period in steps =****** mass=  -0.138E-27a.u.
   SCALEE = 1.0000    scale energy and forces
   NPACO  =    256;   APACO  = 16.0  distance and # of slots for P.C.
   PSTRESS=    0.0 pullay stress

  Mass of Ions in am
   POMASS =  12.01
  Ionic Valenz
   ZVAL   =   4.00
  Atomic Wigner-Seitz radii
   RWIGS  =  -1.00
  virtual crystal weights 
   VCA    =   1.00
   NELECT =       8.0000    total number of electrons
   NUPDOWN=      -1.0000    fix difference up-down

 DOS related values:
   EMIN   =  10.00;   EMAX   =-10.00  energy-range for DOS
   EFERMI =   0.00
   ISMEAR =     0;   SIGMA  =   0.05  broadening in eV -4-tet -1-fermi 0-gaus

 Electronic relaxation 2 (details)
   IALGO  =     48    algorithm
   LDIAG  =      T    sub-space diagonalisation (order eigenvalues)
   LSUBROT=      F    optimize rotation matrix (better conditioning)
   TURBO    =      0    0=normal 1=particle mesh
   IRESTART =      0    0=no restart 2=restart with 2 vectors
   NREBOOT  =      0    no. of reboots
   NMIN     =      0    reboot dimension
   EREF     =   0.00    reference energy to select bands
   IMIX   =      4    mixing-type and parameters
     AMIX     =   0.40;   BMIX     =  1.00
     AMIX_MAG =   1.60;   BMIX_MAG =  1.00
     AMIN     =   0.10
     WC   =   100.;   INIMIX=   1;  MIXPRE=   1;  MAXMIX= -45

 Intra band minimization:
   WEIMIN = 0.0010     energy-eigenvalue tresh-hold
   EBREAK =  0.10E-08  absolut break condition
   DEPER  =   0.30     relativ break condition  

   TIME   =   0.40     timestep for ELM

  volume/ion in A,a.u.               =      79.90       539.16
  Fermi-wavevector in a.u.,A,eV,Ry     =   0.603375  1.140213  4.953352  0.364061
  Thomas-Fermi vector in A             =   1.656332
 
 Write flags
   LWAVE        =      F    write WAVECAR
   LDOWNSAMPLE  =      F    k-point downsampling of WAVECAR
   LCHARG       =      F    write CHGCAR
   LVTOT        =      F    write LOCPOT, total local potential
   LVHAR        =      F    write LOCPOT, Hartree potential only
   LELF         =      F    write electronic localiz. function (ELF)
   LORBIT       =      0    0 simple, 1 ext, 2 COOP (PROOUT), +10 PAW based schemes


 Dipole corrections
   LMONO  =      F    monopole corrections only (constant potential shift)
   LDIPOL =      F    correct potential (dipole corrections)
   IDIPOL =      0    1-x, 2-y, 3-z, 4-all directions 
   EPSILON=  1.0000000 bulk dielectric constant

 Exchange correlation treatment:
   GGA     =    --    GGA type
   LEXCH   =     8    internal setting for exchange type
   VOSKOWN=      0    Vosko Wilk Nusair interpolation
   LHFCALC =     F    Hartree Fock is set to
   LHFONE  =     F    Hartree Fock one center treatment
   AEXX    =    0.0000 exact exchange contribution

 Linear response parameters
   LEPSILON=     F    determine dielectric tensor
   LRPA    =     F    only Hartree local field effects (RPA)
   LNABLA  =     F    use nabla operator in PAW spheres
   LVEL    =     F    velocity operator in full k-point grid
   LINTERFAST=   F  fast interpolation
   KINTER  =     0    interpolate to denser k-point grid
   CSHIFT  =0.1000    complex shift for real part using Kramers Kronig
   OMEGAMAX=  -1.0    maximum frequency
   DEG_THRESHOLD= 0.2000000E-02 threshold for treating states as degnerate
   RTIME   =   -0.100 relaxation time in fs
  (WPLASMAI=    0.000 imaginary part of plasma frequency in eV, 0.658/RTIME)
   DFIELD  = 0.0000000 0.0000000 0.0000000 field for delta impulse in time
 
 Orbital magnetization related:
   ORBITALMAG=     F  switch on orbital magnetization
   LCHIMAG   =     F  perturbation theory with respect to B field
   DQ        =  0.001000  dq finite difference perturbation B field
   LLRAUG    =     F  two centre corrections for induced B field



--------------------------------------------------------------------------------------------------------


 conjugate gradient relaxation of ions
 charge density and potential will be updated during run
 non-spin polarized calculation
 RMM-DIIS sequential band-by-band
 perform sub-space diagonalisation
    before iterative eigenvector-optimisation
 modified Broyden-mixing scheme, WC =      100.0
 initial mixing is a Kerker type mixing with AMIX =  0.4000 and BMIX =      1.0000
 Hartree-type preconditioning will be used
 using additional bands           20
 reciprocal scheme for non local part
 use partial core corrections
 calculate Harris-corrections to forces 
   (improved forces if not selfconsistent)
 use gradient corrections 
 use of overlap-Matrix (Vanderbilt PP)
 Gauss-broadening in eV      SIGMA  =   0.05


--------------------------------------------------------------------------------------------------------


  energy-cutoff  :      875.00
  volume of cell :      159.79
      direct lattice vectors                 reciprocal lattice vectors
     1.227081197 -2.133600434  0.000000000     0.405902616 -0.235247671  0.000000000
     1.241332627  2.141828480  0.000000000     0.404343301  0.232546851  0.000000000
     0.000000000  0.000000000 30.282393743     0.000000000  0.000000000  0.033022489

  length of vectors
     2.461296219  2.475547602 30.282393743     0.469146459  0.466445648  0.033022489


 
 k-points in units of 2pi/SCALE and weight: K-Mesh Generated with KP-Resolved Value 
   0.08305021 -0.00027683  0.00000000       0.014
   0.16626024 -0.04850261  0.00000000       0.014
   0.24947028 -0.09672838  0.00000000       0.014
   0.33268032 -0.14495415  0.00000000       0.014
   0.41589035 -0.19317992  0.00000000       0.014
   0.49910039 -0.24140570  0.00000000       0.014
  -0.41621001  0.28907780  0.00000000       0.014
  -0.33299998  0.24085203  0.00000000       0.014
  -0.24978994  0.19262626  0.00000000       0.014
  -0.16657990  0.14440048  0.00000000       0.014
  -0.08336987  0.09617471  0.00000000       0.014
  -0.00015983  0.04794894  0.00000000       0.014
   0.16594058  0.04739527  0.00000000       0.014
   0.24915062 -0.00083050  0.00000000       0.014
   0.33236066 -0.04905627  0.00000000       0.014
   0.41557069 -0.09728205  0.00000000       0.014
   0.49878073 -0.14550782  0.00000000       0.014
   0.58199076 -0.19373359  0.00000000       0.014
  -0.33331963  0.33674991  0.00000000       0.014
  -0.25010960  0.28852413  0.00000000       0.014
  -0.16689956  0.24029836  0.00000000       0.014
  -0.08368953  0.19207259  0.00000000       0.014
  -0.00047949  0.14384682  0.00000000       0.014
   0.08273055  0.09562104  0.00000000       0.014
   0.24883096  0.09506737  0.00000000       0.014
   0.33204100  0.04684160  0.00000000       0.014
   0.41525103 -0.00138417  0.00000000       0.014
   0.49846107 -0.04960994  0.00000000       0.014
   0.58167111 -0.09783572  0.00000000       0.014
   0.66488114 -0.14606149  0.00000000       0.014
  -0.25042926  0.38442201  0.00000000       0.014
  -0.16721922  0.33619624  0.00000000       0.014
  -0.08400919  0.28797046  0.00000000       0.014
  -0.00079915  0.23974469  0.00000000       0.014
   0.08241089  0.19151892  0.00000000       0.014
   0.16562092  0.14329315  0.00000000       0.014
   0.33172134  0.14273948  0.00000000       0.014
   0.41493137  0.09451371  0.00000000       0.014
   0.49814141  0.04628793  0.00000000       0.014
   0.58135145 -0.00193784  0.00000000       0.014
   0.66456148 -0.05016361  0.00000000       0.014
   0.74777152 -0.09838938  0.00000000       0.014
  -0.16753888  0.43209411  0.00000000       0.014
  -0.08432884  0.38386834  0.00000000       0.014
  -0.00111881  0.33564257  0.00000000       0.014
   0.08209123  0.28741680  0.00000000       0.014
   0.16530126  0.23919102  0.00000000       0.014
   0.24851130  0.19096525  0.00000000       0.014
   0.41461171  0.19041158  0.00000000       0.014
   0.49782175  0.14218581  0.00000000       0.014
   0.58103179  0.09396004  0.00000000       0.014
   0.66424182  0.04573427  0.00000000       0.014
   0.74745186 -0.00249151  0.00000000       0.014
   0.83066189 -0.05071728  0.00000000       0.014
  -0.08464850  0.47976622  0.00000000       0.014
  -0.00143847  0.43154045  0.00000000       0.014
   0.08177157  0.38331467  0.00000000       0.014
   0.16498160  0.33508890  0.00000000       0.014
   0.24819164  0.28686313  0.00000000       0.014
   0.33140168  0.23863736  0.00000000       0.014
   0.49750209  0.23808369  0.00000000       0.014
   0.58071213  0.18985792  0.00000000       0.014
   0.66392216  0.14163214  0.00000000       0.014
   0.74713220  0.09340637  0.00000000       0.014
   0.83034224  0.04518060  0.00000000       0.014
   0.91355227 -0.00304517  0.00000000       0.014
  -0.00175813  0.52743832  0.00000000       0.014
   0.08145191  0.47921255  0.00000000       0.014
   0.16466194  0.43098678  0.00000000       0.014
   0.24787198  0.38276101  0.00000000       0.014
   0.33108202  0.33453523  0.00000000       0.014
   0.41429205  0.28630946  0.00000000       0.014
 
 k-points in reciprocal lattice and weights: K-Mesh Generated with KP-Resolved Value 
   0.04166667  0.04166667  0.00000000       0.014
   0.12500000  0.04166667  0.00000000       0.014
   0.20833333  0.04166667  0.00000000       0.014
   0.29166667  0.04166667  0.00000000       0.014
   0.37500000  0.04166667  0.00000000       0.014
   0.45833333  0.04166667  0.00000000       0.014
  -0.45833333  0.04166667  0.00000000       0.014
  -0.37500000  0.04166667  0.00000000       0.014
  -0.29166667  0.04166667  0.00000000       0.014
  -0.20833333  0.04166667  0.00000000       0.014
  -0.12500000  0.04166667  0.00000000       0.014
  -0.04166667  0.04166667  0.00000000       0.014
   0.04166667  0.12500000  0.00000000       0.014
   0.12500000  0.12500000  0.00000000       0.014
   0.20833333  0.12500000  0.00000000       0.014
   0.29166667  0.12500000  0.00000000       0.014
   0.37500000  0.12500000  0.00000000       0.014
   0.45833333  0.12500000  0.00000000       0.014
  -0.45833333  0.12500000  0.00000000       0.014
  -0.37500000  0.12500000  0.00000000       0.014
  -0.29166667  0.12500000  0.00000000       0.014
  -0.20833333  0.12500000  0.00000000       0.014
  -0.12500000  0.12500000  0.00000000       0.014
  -0.04166667  0.12500000  0.00000000       0.014
   0.04166667  0.20833333  0.00000000       0.014
   0.12500000  0.20833333  0.00000000       0.014
   0.20833333  0.20833333  0.00000000       0.014
   0.29166667  0.20833333  0.00000000       0.014
   0.37500000  0.20833333  0.00000000       0.014
   0.45833333  0.20833333  0.00000000       0.014
  -0.45833333  0.20833333  0.00000000       0.014
  -0.37500000  0.20833333  0.00000000       0.014
  -0.29166667  0.20833333  0.00000000       0.014
  -0.20833333  0.20833333  0.00000000       0.014
  -0.12500000  0.20833333  0.00000000       0.014
  -0.04166667  0.20833333  0.00000000       0.014
   0.04166667  0.29166667  0.00000000       0.014
   0.12500000  0.29166667  0.00000000       0.014
   0.20833333  0.29166667  0.00000000       0.014
   0.29166667  0.29166667  0.00000000       0.014
   0.37500000  0.29166667  0.00000000       0.014
   0.45833333  0.29166667  0.00000000       0.014
  -0.45833333  0.29166667  0.00000000       0.014
  -0.37500000  0.29166667  0.00000000       0.014
  -0.29166667  0.29166667  0.00000000       0.014
  -0.20833333  0.29166667  0.00000000       0.014
  -0.12500000  0.29166667  0.00000000       0.014
  -0.04166667  0.29166667  0.00000000       0.014
   0.04166667  0.37500000  0.00000000       0.014
   0.12500000  0.37500000  0.00000000       0.014
   0.20833333  0.37500000  0.00000000       0.014
   0.29166667  0.37500000  0.00000000       0.014
   0.37500000  0.37500000  0.00000000       0.014
   0.45833333  0.37500000  0.00000000       0.014
  -0.45833333  0.37500000  0.00000000       0.014
  -0.37500000  0.37500000  0.00000000       0.014
  -0.29166667  0.37500000  0.00000000       0.014
  -0.20833333  0.37500000  0.00000000       0.014
  -0.12500000  0.37500000  0.00000000       0.014
  -0.04166667  0.37500000  0.00000000       0.014
   0.04166667  0.45833333  0.00000000       0.014
   0.12500000  0.45833333  0.00000000       0.014
   0.20833333  0.45833333  0.00000000       0.014
   0.29166667  0.45833333  0.00000000       0.014
   0.37500000  0.45833333  0.00000000       0.014
   0.45833333  0.45833333  0.00000000       0.014
  -0.45833333  0.45833333  0.00000000       0.014
  -0.37500000  0.45833333  0.00000000       0.014
  -0.29166667  0.45833333  0.00000000       0.014
  -0.20833333  0.45833333  0.00000000       0.014
  -0.12500000  0.45833333  0.00000000       0.014
  -0.04166667  0.45833333  0.00000000       0.014
 
 position of ions in fractional coordinates (direct lattice) 
   0.00000262  0.99999738  0.50000000
   0.66666738  0.33333262  0.50000000
 
 position of ions in cartesian coordinates  (Angst):
   1.24133259  2.14181727 15.14119687
   1.23183166 -0.70846050 15.14119687
 


--------------------------------------------------------------------------------------------------------


 k-point  1 :   0.0417 0.0417 0.0000  plane waves:    9287
 k-point  2 :   0.1250 0.0417 0.0000  plane waves:    9303
 k-point  3 :   0.2083 0.0417 0.0000  plane waves:    9341
 k-point  4 :   0.2917 0.0417 0.0000  plane waves:    9368
 k-point  5 :   0.3750 0.0417 0.0000  plane waves:    9372
 k-point  6 :   0.4583 0.0417 0.0000  plane waves:    9396
 k-point  7 :  -0.4583 0.0417 0.0000  plane waves:    9384
 k-point  8 :  -0.3750 0.0417 0.0000  plane waves:    9379
 k-point  9 :  -0.2917 0.0417 0.0000  plane waves:    9366
 k-point 10 :  -0.2083 0.0417 0.0000  plane waves:    9328
 k-point 11 :  -0.1250 0.0417 0.0000  plane waves:    9292
 k-point 12 :  -0.0417 0.0417 0.0000  plane waves:    9268
 k-point 13 :   0.0417 0.1250 0.0000  plane waves:    9311
 k-point 14 :   0.1250 0.1250 0.0000  plane waves:    9349
 k-point 15 :   0.2083 0.1250 0.0000  plane waves:    9380
 k-point 16 :   0.2917 0.1250 0.0000  plane waves:    9419
 k-point 17 :   0.3750 0.1250 0.0000  plane waves:    9430
 k-point 18 :   0.4583 0.1250 0.0000  plane waves:    9431
 k-point 19 :  -0.4583 0.1250 0.0000  plane waves:    9431
 k-point 20 :  -0.3750 0.1250 0.0000  plane waves:    9409
 k-point 21 :  -0.2917 0.1250 0.0000  plane waves:    9374
 k-point 22 :  -0.2083 0.1250 0.0000  plane waves:    9329
 k-point 23 :  -0.1250 0.1250 0.0000  plane waves:    9281
 k-point 24 :  -0.0417 0.1250 0.0000  plane waves:    9291
 k-point 25 :   0.0417 0.2083 0.0000  plane waves:    9345
 k-point 26 :   0.1250 0.2083 0.0000  plane waves:    9376
 k-point 27 :   0.2083 0.2083 0.0000  plane waves:    9412
 k-point 28 :   0.2917 0.2083 0.0000  plane waves:    9413
 k-point 29 :   0.3750 0.2083 0.0000  plane waves:    9460
 k-point 30 :   0.4583 0.2083 0.0000  plane waves:    9440
 k-point 31 :  -0.4583 0.2083 0.0000  plane waves:    9419
 k-point 32 :  -0.3750 0.2083 0.0000  plane waves:    9404
 k-point 33 :  -0.2917 0.2083 0.0000  plane waves:    9372
 k-point 34 :  -0.2083 0.2083 0.0000  plane waves:    9336
 k-point 35 :  -0.1250 0.2083 0.0000  plane waves:    9333
 k-point 36 :  -0.0417 0.2083 0.0000  plane waves:    9335
 k-point 37 :   0.0417 0.2917 0.0000  plane waves:    9387
 k-point 38 :   0.1250 0.2917 0.0000  plane waves:    9415
 k-point 39 :   0.2083 0.2917 0.0000  plane waves:    9446
 k-point 40 :   0.2917 0.2917 0.0000  plane waves:    9457
 k-point 41 :   0.3750 0.2917 0.0000  plane waves:    9465
 k-point 42 :   0.4583 0.2917 0.0000  plane waves:    9448
 k-point 43 :  -0.4583 0.2917 0.0000  plane waves:    9419
 k-point 44 :  -0.3750 0.2917 0.0000  plane waves:    9394
 k-point 45 :  -0.2917 0.2917 0.0000  plane waves:    9363
 k-point 46 :  -0.2083 0.2917 0.0000  plane waves:    9361
 k-point 47 :  -0.1250 0.2917 0.0000  plane waves:    9367
 k-point 48 :  -0.0417 0.2917 0.0000  plane waves:    9369
 k-point 49 :   0.0417 0.3750 0.0000  plane waves:    9380
 k-point 50 :   0.1250 0.3750 0.0000  plane waves:    9437
 k-point 51 :   0.2083 0.3750 0.0000  plane waves:    9472
 k-point 52 :   0.2917 0.3750 0.0000  plane waves:    9476
 k-point 53 :   0.3750 0.3750 0.0000  plane waves:    9482
 k-point 54 :   0.4583 0.3750 0.0000  plane waves:    9457
 k-point 55 :  -0.4583 0.3750 0.0000  plane waves:    9411
 k-point 56 :  -0.3750 0.3750 0.0000  plane waves:    9364
 k-point 57 :  -0.2917 0.3750 0.0000  plane waves:    9386
 k-point 58 :  -0.2083 0.3750 0.0000  plane waves:    9406
 k-point 59 :  -0.1250 0.3750 0.0000  plane waves:    9403
 k-point 60 :  -0.0417 0.3750 0.0000  plane waves:    9384
 k-point 61 :   0.0417 0.4583 0.0000  plane waves:    9426
 k-point 62 :   0.1250 0.4583 0.0000  plane waves:    9434
 k-point 63 :   0.2083 0.4583 0.0000  plane waves:    9467
 k-point 64 :   0.2917 0.4583 0.0000  plane waves:    9457
 k-point 65 :   0.3750 0.4583 0.0000  plane waves:    9445
 k-point 66 :   0.4583 0.4583 0.0000  plane waves:    9416
 k-point 67 :  -0.4583 0.4583 0.0000  plane waves:    9404
 k-point 68 :  -0.3750 0.4583 0.0000  plane waves:    9395
 k-point 69 :  -0.2917 0.4583 0.0000  plane waves:    9413
 k-point 70 :  -0.2083 0.4583 0.0000  plane waves:    9408
 k-point 71 :  -0.1250 0.4583 0.0000  plane waves:    9422
 k-point 72 :  -0.0417 0.4583 0.0000  plane waves:    9414

 maximum and minimum number of plane-waves per node :      9482     9268

 maximum number of plane-waves:      9482
 maximum index in each direction: 
   IXMAX=    6   IYMAX=    5   IZMAX=   73
   IXMIN=   -6   IYMIN=   -6   IZMIN=  -73


 serial   3D FFT for wavefunctions
 parallel 3D FFT for charge:
    minimum data exchange during FFTs selected (reduces bandwidth)


 total amount of memory used by VASP MPI-rank0    94982. kBytes
=======================================================================

   base      :      30000. kBytes
   nonl-proj :      44098. kBytes
   fftplans  :       1663. kBytes
   grid      :       8239. kBytes
   one-center:          6. kBytes
   wavefun   :      10976. kBytes
 
     INWAV:  cpu time    0.0000: real time    0.0002
 Broyden mixing: mesh for mixing (old mesh)
   NGX = 11   NGY = 11   NGZ =147
  (NGX  = 32   NGY  = 36   NGZ  =420)
  gives a total of  17787 points

 initial charge density was supplied:
 charge density of overlapping atoms calculated
 number of electron       8.0000000 magnetization 
 keeping initial charge density in first step


--------------------------------------------------------------------------------------------------------


 Maximum index for augmentation-charges          243 (set IRDMAX)


--------------------------------------------------------------------------------------------------------


 First call to EWALD:  gamma=   0.327
 Maximum number of real-space cells 6x 6x 1
 Maximum number of reciprocal cells 2x 2x13

    FEWALD:  cpu time    0.0030: real time    0.0049


--------------------------------------- Iteration      1(   1)  ---------------------------------------


    POTLOK:  cpu time    0.0350: real time    0.0752
    SETDIJ:  cpu time    0.0130: real time    0.0191
    EDDIAG:  cpu time    1.1028: real time    1.2502
  RMM-DIIS:  cpu time    2.0777: real time    2.1084
    ORTHCH:  cpu time    0.0520: real time    0.0525
       DOS:  cpu time    0.0050: real time    0.0141
    --------------------------------------------
      LOOP:  cpu time    3.2855: real time    3.5206

 eigenvalue-minimisations  :  1728
 total energy-change (2. order) : 0.1017483E+03  (-0.1495396E+03)
 number of electron       8.0000000 magnetization 
 augmentation part        8.0000000 magnetization 

 Free energy of the ion-electron system (eV)
  ---------------------------------------------------
  alpha Z        PSCENC =         1.37230889
  Ewald energy   TEWEN  =      2232.02869137
  -Hartree energ DENC   =     -2438.24938802
  -exchange      EXHF   =         0.00000000
  -V(xc)+E(xc)   XCENC  =        14.48586741
  PAW double counting   =       228.69403340     -218.18290438
  entropy T*S    EENTRO =        -0.00269959
  eigenvalues    EBANDS =       -12.70079415
  atomic energy  EATOM  =       294.30319316
  Solvation  Ediel_sol  =         0.00000000
  ---------------------------------------------------
  free energy    TOTEN  =       101.74830809 eV

  energy without entropy =      101.75100769  energy(sigma->0) =      101.74965789


--------------------------------------------------------------------------------------------------------




--------------------------------------- Iteration      1(   2)  ---------------------------------------


    EDDIAG:  cpu time    1.0718: real time    1.0847
  RMM-DIIS:  cpu time    2.0667: real time    2.0769
    ORTHCH:  cpu time    0.0520: real time    0.0526
       DOS:  cpu time    0.0010: real time    0.0009
    --------------------------------------------
      LOOP:  cpu time    3.1915: real time    3.2140

 eigenvalue-minimisations  :  1728
 total energy-change (2. order) :-0.5254760E+02  (-0.2934696E+02)
 number of electron       8.0000000 magnetization 
 augmentation part        8.0000000 magnetization 

 Free energy of the ion-electron system (eV)
  ---------------------------------------------------
  alpha Z        PSCENC =         1.37230889
  Ewald energy   TEWEN  =      2232.02869137
  -Hartree energ DENC   =     -2438.24938802
  -exchange      EXHF   =         0.00000000
  -V(xc)+E(xc)   XCENC  =        14.48586741
  PAW double counting   =       228.69403340     -218.18290438
  entropy T*S    EENTRO =        -0.00410830
  eigenvalues    EBANDS =       -65.24698159
  atomic energy  EATOM  =       294.30319316
  Solvation  Ediel_sol  =         0.00000000
  ---------------------------------------------------
  free energy    TOTEN  =        49.20071194 eV

  energy without entropy =       49.20482025  energy(sigma->0) =       49.20276609


--------------------------------------------------------------------------------------------------------




--------------------------------------- Iteration      1(   3)  ---------------------------------------


    EDDIAG:  cpu time    1.0688: real time    1.0809
  RMM-DIIS:  cpu time    2.0777: real time    2.0833
    ORTHCH:  cpu time    0.0520: real time    0.0526
       DOS:  cpu time    0.0010: real time    0.0008
    --------------------------------------------
      LOOP:  cpu time    3.1995: real time    3.2177

 eigenvalue-minimisations  :  1728
 total energy-change (2. order) :-0.4053803E+02  (-0.2121861E+02)
 number of electron       8.0000000 magnetization 
 augmentation part        8.0000000 magnetization 

 Free energy of the ion-electron system (eV)
  ---------------------------------------------------
  alpha Z        PSCENC =         1.37230889
  Ewald energy   TEWEN  =      2232.02869137
  -Hartree energ DENC   =     -2438.24938802
  -exchange      EXHF   =         0.00000000
  -V(xc)+E(xc)   XCENC  =        14.48586741
  PAW double counting   =       228.69403340     -218.18290438
  entropy T*S    EENTRO =        -0.00003666
  eigenvalues    EBANDS =      -105.78908480
  atomic energy  EATOM  =       294.30319316
  Solvation  Ediel_sol  =         0.00000000
  ---------------------------------------------------
  free energy    TOTEN  =         8.66268038 eV

  energy without entropy =        8.66271704  energy(sigma->0) =        8.66269871


--------------------------------------------------------------------------------------------------------




--------------------------------------- Iteration      1(   4)  ---------------------------------------


    EDDIAG:  cpu time    1.0708: real time    1.0841
  RMM-DIIS:  cpu time    2.0767: real time    2.0830
    ORTHCH:  cpu time    0.0530: real time    0.0525
       DOS:  cpu time    0.0000: real time    0.0008
    --------------------------------------------
      LOOP:  cpu time    3.2005: real time    3.2203

 eigenvalue-minimisations  :  1728
 total energy-change (2. order) :-0.2248810E+02  (-0.1331080E+02)
 number of electron       8.0000000 magnetization 
 augmentation part        8.0000000 magnetization 

 Free energy of the ion-electron system (eV)
  ---------------------------------------------------
  alpha Z        PSCENC =         1.37230889
  Ewald energy   TEWEN  =      2232.02869137
  -Hartree energ DENC   =     -2438.24938802
  -exchange      EXHF   =         0.00000000
  -V(xc)+E(xc)   XCENC  =        14.48586741
  PAW double counting   =       228.69403340     -218.18290438
  entropy T*S    EENTRO =        -0.00066456
  eigenvalues    EBANDS =      -128.27655559
  atomic energy  EATOM  =       294.30319316
  Solvation  Ediel_sol  =         0.00000000
  ---------------------------------------------------
  free energy    TOTEN  =       -13.82541831 eV

  energy without entropy =      -13.82475376  energy(sigma->0) =      -13.82508603


--------------------------------------------------------------------------------------------------------




--------------------------------------- Iteration      1(   5)  ---------------------------------------


    EDDIAG:  cpu time    1.0668: real time    1.0820
  RMM-DIIS:  cpu time    2.0637: real time    2.0690
    ORTHCH:  cpu time    0.0530: real time    0.0524
       DOS:  cpu time    0.0000: real time    0.0006
    --------------------------------------------
      LOOP:  cpu time    3.1835: real time    3.2039

 eigenvalue-minimisations  :  1728
 total energy-change (2. order) :-0.4594131E+01  (-0.3617012E+01)
 number of electron       8.0000000 magnetization 
 augmentation part        8.0000000 magnetization 

 Free energy of the ion-electron system (eV)
  ---------------------------------------------------
  alpha Z        PSCENC =         1.37230889
  Ewald energy   TEWEN  =      2232.02869137
  -Hartree energ DENC   =     -2438.24938802
  -exchange      EXHF   =         0.00000000
  -V(xc)+E(xc)   XCENC  =        14.48586741
  PAW double counting   =       228.69403340     -218.18290438
  entropy T*S    EENTRO =        -0.00000000
  eigenvalues    EBANDS =      -132.87135105
  atomic energy  EATOM  =       294.30319316
  Solvation  Ediel_sol  =         0.00000000
  ---------------------------------------------------
  free energy    TOTEN  =       -18.41954922 eV

  energy without entropy =      -18.41954922  energy(sigma->0) =      -18.41954922


--------------------------------------------------------------------------------------------------------




--------------------------------------- Iteration      1(   6)  ---------------------------------------


    EDDIAG:  cpu time    1.0708: real time    1.0814
  RMM-DIIS:  cpu time    2.0827: real time    2.0873
    ORTHCH:  cpu time    0.0510: real time    0.0524
       DOS:  cpu time    0.0010: real time    0.0006
    --------------------------------------------
      LOOP:  cpu time    3.2055: real time    3.2216

 eigenvalue-minimisations  :  1728
 total energy-change (2. order) :-0.9886215E+00  (-0.8214046E+00)
 number of electron       8.0000000 magnetization 
 augmentation part        8.0000000 magnetization 

 Free energy of the ion-electron system (eV)
  ---------------------------------------------------
  alpha Z        PSCENC =         1.37230889
  Ewald energy   TEWEN  =      2232.02869137
  -Hartree energ DENC   =     -2438.24938802
  -exchange      EXHF   =         0.00000000
  -V(xc)+E(xc)   XCENC  =        14.48586741
  PAW double counting   =       228.69403340     -218.18290438
  entropy T*S    EENTRO =        -0.00000000
  eigenvalues    EBANDS =      -133.85997260
  atomic energy  EATOM  =       294.30319316
  Solvation  Ediel_sol  =         0.00000000
  ---------------------------------------------------
  free energy    TOTEN  =       -19.40817077 eV

  energy without entropy =      -19.40817077  energy(sigma->0) =      -19.40817077


--------------------------------------------------------------------------------------------------------




--------------------------------------- Iteration      1(   7)  ---------------------------------------


    EDDIAG:  cpu time    1.0718: real time    1.0859
  RMM-DIIS:  cpu time    2.0767: real time    2.0820
    ORTHCH:  cpu time    0.0520: real time    0.0525
       DOS:  cpu time    0.0010: real time    0.0006
    --------------------------------------------
      LOOP:  cpu time    3.2015: real time    3.2210

 eigenvalue-minimisations  :  1728
 total energy-change (2. order) :-0.2294582E+00  (-0.1921987E+00)
 number of electron       8.0000000 magnetization 
 augmentation part        8.0000000 magnetization 

 Free energy of the ion-electron system (eV)
  ---------------------------------------------------
  alpha Z        PSCENC =         1.37230889
  Ewald energy   TEWEN  =      2232.02869137
  -Hartree energ DENC   =     -2438.24938802
  -exchange      EXHF   =         0.00000000
  -V(xc)+E(xc)   XCENC  =        14.48586741
  PAW double counting   =       228.69403340     -218.18290438
  entropy T*S    EENTRO =        -0.00000000
  eigenvalues    EBANDS =      -134.08943078
  atomic energy  EATOM  =       294.30319316
  Solvation  Ediel_sol  =         0.00000000
  ---------------------------------------------------
  free energy    TOTEN  =       -19.63762894 eV

  energy without entropy =      -19.63762894  energy(sigma->0) =      -19.63762894


--------------------------------------------------------------------------------------------------------




--------------------------------------- Iteration      1(   8)  ---------------------------------------


    EDDIAG:  cpu time    1.0698: real time    1.0789
  RMM-DIIS:  cpu time    2.0677: real time    2.0815
    ORTHCH:  cpu time    0.0530: real time    0.0530
       DOS:  cpu time    0.0010: real time    0.0006
    --------------------------------------------
      LOOP:  cpu time    3.1915: real time    3.2140

 eigenvalue-minimisations  :  1728
 total energy-change (2. order) :-0.6194502E-01  (-0.5053028E-01)
 number of electron       8.0000000 magnetization 
 augmentation part        8.0000000 magnetization 

 Free energy of the ion-electron system (eV)
  ---------------------------------------------------
  alpha Z        PSCENC =         1.37230889
  Ewald energy   TEWEN  =      2232.02869137
  -Hartree energ DENC   =     -2438.24938802
  -exchange      EXHF   =         0.00000000
  -V(xc)+E(xc)   XCENC  =        14.48586741
  PAW double counting   =       228.69403340     -218.18290438
  entropy T*S    EENTRO =        -0.00000000
  eigenvalues    EBANDS =      -134.15137580
  atomic energy  EATOM  =       294.30319316
  Solvation  Ediel_sol  =         0.00000000
  ---------------------------------------------------
  free energy    TOTEN  =       -19.69957396 eV

  energy without entropy =      -19.69957396  energy(sigma->0) =      -19.69957396


--------------------------------------------------------------------------------------------------------




--------------------------------------- Iteration      1(   9)  ---------------------------------------


    EDDIAG:  cpu time    1.0758: real time    1.0921
  RMM-DIIS:  cpu time    3.9704: real time    4.0303
    ORTHCH:  cpu time    0.0520: real time    0.0526
       DOS:  cpu time    0.0010: real time    0.0006
    --------------------------------------------
      LOOP:  cpu time    5.0992: real time    5.1756

 eigenvalue-minimisations  :  3474
 total energy-change (2. order) :-0.2296618E-01  (-0.1977311E-01)
 number of electron       8.0000000 magnetization 
 augmentation part        8.0000000 magnetization 

 Free energy of the ion-electron system (eV)
  ---------------------------------------------------
  alpha Z        PSCENC =         1.37230889
  Ewald energy   TEWEN  =      2232.02869137
  -Hartree energ DENC   =     -2438.24938802
  -exchange      EXHF   =         0.00000000
  -V(xc)+E(xc)   XCENC  =        14.48586741
  PAW double counting   =       228.69403340     -218.18290438
  entropy T*S    EENTRO =        -0.00000000
  eigenvalues    EBANDS =      -134.17434198
  atomic energy  EATOM  =       294.30319316
  Solvation  Ediel_sol  =         0.00000000
  ---------------------------------------------------
  free energy    TOTEN  =       -19.72254014 eV

  energy without entropy =      -19.72254014  energy(sigma->0) =      -19.72254014


--------------------------------------------------------------------------------------------------------




--------------------------------------- Iteration      1(  10)  ---------------------------------------


    EDDIAG:  cpu time    1.0708: real time    1.0890
  RMM-DIIS:  cpu time    4.4503: real time    4.4613
    ORTHCH:  cpu time    0.0520: real time    0.0525
       DOS:  cpu time    0.0010: real time    0.0006
    --------------------------------------------
      LOOP:  cpu time    5.5742: real time    5.6033

 eigenvalue-minimisations  :  3542
 total energy-change (2. order) :-0.3849640E-02  (-0.3213250E-02)
 number of electron       8.0000000 magnetization 
 augmentation part        8.0000000 magnetization 

 Free energy of the ion-electron system (eV)
  ---------------------------------------------------
  alpha Z        PSCENC =         1.37230889
  Ewald energy   TEWEN  =      2232.02869137
  -Hartree energ DENC   =     -2438.24938802
  -exchange      EXHF   =         0.00000000
  -V(xc)+E(xc)   XCENC  =        14.48586741
  PAW double counting   =       228.69403340     -218.18290438
  entropy T*S    EENTRO =        -0.00000000
  eigenvalues    EBANDS =      -134.17819162
  atomic energy  EATOM  =       294.30319316
  Solvation  Ediel_sol  =         0.00000000
  ---------------------------------------------------
  free energy    TOTEN  =       -19.72638978 eV

  energy without entropy =      -19.72638978  energy(sigma->0) =      -19.72638978


--------------------------------------------------------------------------------------------------------




--------------------------------------- Iteration      1(  11)  ---------------------------------------


    EDDIAG:  cpu time    1.0688: real time    1.0848
  RMM-DIIS:  cpu time    3.8854: real time    3.8966
    ORTHCH:  cpu time    0.0530: real time    0.0525
       DOS:  cpu time    0.0000: real time    0.0006
    --------------------------------------------
      LOOP:  cpu time    5.0072: real time    5.0345

 eigenvalue-minimisations  :  3480
 total energy-change (2. order) :-0.1530007E-03  (-0.1174841E-03)
 number of electron       8.0000000 magnetization 
 augmentation part        8.0000000 magnetization 

 Free energy of the ion-electron system (eV)
  ---------------------------------------------------
  alpha Z        PSCENC =         1.37230889
  Ewald energy   TEWEN  =      2232.02869137
  -Hartree energ DENC   =     -2438.24938802
  -exchange      EXHF   =         0.00000000
  -V(xc)+E(xc)   XCENC  =        14.48586741
  PAW double counting   =       228.69403340     -218.18290438
  entropy T*S    EENTRO =        -0.00000000
  eigenvalues    EBANDS =      -134.17834462
  atomic energy  EATOM  =       294.30319316
  Solvation  Ediel_sol  =         0.00000000
  ---------------------------------------------------
  free energy    TOTEN  =       -19.72654278 eV

  energy without entropy =      -19.72654278  energy(sigma->0) =      -19.72654278


--------------------------------------------------------------------------------------------------------




--------------------------------------- Iteration      1(  12)  ---------------------------------------


    EDDIAG:  cpu time    1.0708: real time    1.0850
  RMM-DIIS:  cpu time    4.3623: real time    4.3737
    ORTHCH:  cpu time    0.0530: real time    0.0525
       DOS:  cpu time    0.0000: real time    0.0006
    CHARGE:  cpu time    0.2670: real time    0.2936
    MIXING:  cpu time    0.0040: real time    0.0144
    --------------------------------------------
      LOOP:  cpu time    5.7571: real time    5.8197

 eigenvalue-minimisations  :  3523
 total energy-change (2. order) :-0.2566798E-04  (-0.2076775E-04)
 number of electron       8.0000000 magnetization 
 augmentation part       -0.0156752 magnetization 

 Broyden mixing:
  rms(total) = 0.91112E+00    rms(broyden)= 0.91106E+00
  rms(prec ) = 0.92459E+00
  weight for this iteration     100.00

 Free energy of the ion-electron system (eV)
  ---------------------------------------------------
  alpha Z        PSCENC =         1.37230889
  Ewald energy   TEWEN  =      2232.02869137
  -Hartree energ DENC   =     -2438.24938802
  -exchange      EXHF   =         0.00000000
  -V(xc)+E(xc)   XCENC  =        14.48586741
  PAW double counting   =       228.69403340     -218.18290438
  entropy T*S    EENTRO =        -0.00000000
  eigenvalues    EBANDS =      -134.17837028
  atomic energy  EATOM  =       294.30319316
  Solvation  Ediel_sol  =         0.00000000
  ---------------------------------------------------
  free energy    TOTEN  =       -19.72656845 eV

  energy without entropy =      -19.72656845  energy(sigma->0) =      -19.72656845


--------------------------------------------------------------------------------------------------------




--------------------------------------- Iteration      1(  13)  ---------------------------------------


    POTLOK:  cpu time    0.0200: real time    0.0276
    SETDIJ:  cpu time    0.0010: real time    0.0017
    EDDIAG:  cpu time    1.0538: real time    1.0560
  RMM-DIIS:  cpu time    3.8334: real time    3.8425
    ORTHCH:  cpu time    0.0530: real time    0.0530
       DOS:  cpu time    0.0000: real time    0.0006
    CHARGE:  cpu time    0.2590: real time    0.2585
    MIXING:  cpu time    0.0020: real time    0.0155
    --------------------------------------------
      LOOP:  cpu time    5.2232: real time    5.2553

 eigenvalue-minimisations  :  3456
 total energy-change (2. order) : 0.8853613E+00  (-0.4389549E-01)
 number of electron       8.0000000 magnetization 
 augmentation part       -0.0180819 magnetization 

 Broyden mixing:
  rms(total) = 0.59390E+00    rms(broyden)= 0.59390E+00
  rms(prec ) = 0.60018E+00
  weight for this iteration     100.00

 eigenvalues of (default mixing * dielectric matrix)
  average eigenvalue GAMMA=   2.6437
  2.6437

 Free energy of the ion-electron system (eV)
  ---------------------------------------------------
  alpha Z        PSCENC =         1.37230889
  Ewald energy   TEWEN  =      2232.02869137
  -Hartree energ DENC   =     -2449.54850552
  -exchange      EXHF   =         0.00000000
  -V(xc)+E(xc)   XCENC  =        14.93170235
  PAW double counting   =       997.99684176     -987.60942863
  entropy T*S    EENTRO =        -0.00000000
  eigenvalues    EBANDS =      -122.31601050
  atomic energy  EATOM  =       294.30319316
  Solvation  Ediel_sol  =         0.00000000
  ---------------------------------------------------
  free energy    TOTEN  =       -18.84120712 eV

  energy without entropy =      -18.84120712  energy(sigma->0) =      -18.84120712


--------------------------------------------------------------------------------------------------------




--------------------------------------- Iteration      1(  14)  ---------------------------------------


    POTLOK:  cpu time    0.0220: real time    0.0271
    SETDIJ:  cpu time    0.0010: real time    0.0017
    EDDIAG:  cpu time    1.0538: real time    1.0571
  RMM-DIIS:  cpu time    3.7754: real time    3.7972
    ORTHCH:  cpu time    0.0540: real time    0.0531
       DOS:  cpu time    0.0000: real time    0.0006
    CHARGE:  cpu time    0.2580: real time    0.2585
    MIXING:  cpu time    0.0020: real time    0.0094
    --------------------------------------------
      LOOP:  cpu time    5.1652: real time    5.2046

 eigenvalue-minimisations  :  3456
 total energy-change (2. order) : 0.3331068E+00  (-0.9256552E-01)
 number of electron       8.0000000 magnetization 
 augmentation part       -0.0211246 magnetization 

 Broyden mixing:
  rms(total) = 0.11695E+00    rms(broyden)= 0.11694E+00
  rms(prec ) = 0.11950E+00
  weight for this iteration     100.00

 eigenvalues of (default mixing * dielectric matrix)
  average eigenvalue GAMMA=   2.2341
  2.2341  2.2341

 Free energy of the ion-electron system (eV)
  ---------------------------------------------------
  alpha Z        PSCENC =         1.37230889
  Ewald energy   TEWEN  =      2232.02869137
  -Hartree energ DENC   =     -2468.10301663
  -exchange      EXHF   =         0.00000000
  -V(xc)+E(xc)   XCENC  =        15.67806930
  PAW double counting   =      3854.01056648    -3843.73318137
  entropy T*S    EENTRO =        -0.00000000
  eigenvalues    EBANDS =      -104.06473157
  atomic energy  EATOM  =       294.30319316
  Solvation  Ediel_sol  =         0.00000000
  ---------------------------------------------------
  free energy    TOTEN  =       -18.50810036 eV

  energy without entropy =      -18.50810036  energy(sigma->0) =      -18.50810036


--------------------------------------------------------------------------------------------------------




--------------------------------------- Iteration      1(  15)  ---------------------------------------


    POTLOK:  cpu time    0.0200: real time    0.0341
    SETDIJ:  cpu time    0.0020: real time    0.0017
    EDDIAG:  cpu time    1.0528: real time    1.0558
  RMM-DIIS:  cpu time    3.9594: real time    3.9696
    ORTHCH:  cpu time    0.0530: real time    0.0530
       DOS:  cpu time    0.0010: real time    0.0006
    CHARGE:  cpu time    0.2580: real time    0.2586
    MIXING:  cpu time    0.0020: real time    0.0043
    --------------------------------------------
      LOOP:  cpu time    5.3482: real time    5.3777

 eigenvalue-minimisations  :  3468
 total energy-change (2. order) : 0.2062059E-01  (-0.2496654E-02)
 number of electron       8.0000000 magnetization 
 augmentation part       -0.0205825 magnetization 

 Broyden mixing:
  rms(total) = 0.12442E-01    rms(broyden)= 0.12440E-01
  rms(prec ) = 0.15974E-01
  weight for this iteration     100.00

 eigenvalues of (default mixing * dielectric matrix)
  average eigenvalue GAMMA=   2.0008
  1.3469  2.3278  2.3278

 Free energy of the ion-electron system (eV)
  ---------------------------------------------------
  alpha Z        PSCENC =         1.37230889
  Ewald energy   TEWEN  =      2232.02869137
  -Hartree energ DENC   =     -2467.20972050
  -exchange      EXHF   =         0.00000000
  -V(xc)+E(xc)   XCENC  =        15.56461263
  PAW double counting   =      4087.64387909    -4077.30632571
  entropy T*S    EENTRO =        -0.00000000
  eigenvalues    EBANDS =      -104.88411870
  atomic energy  EATOM  =       294.30319316
  Solvation  Ediel_sol  =         0.00000000
  ---------------------------------------------------
  free energy    TOTEN  =       -18.48747977 eV

  energy without entropy =      -18.48747977  energy(sigma->0) =      -18.48747977


--------------------------------------------------------------------------------------------------------




--------------------------------------- Iteration      1(  16)  ---------------------------------------


    POTLOK:  cpu time    0.0200: real time    0.0320
    SETDIJ:  cpu time    0.0010: real time    0.0017
    EDDIAG:  cpu time    1.0578: real time    1.0745
  RMM-DIIS:  cpu time    3.8194: real time    4.0104
    ORTHCH:  cpu time    0.0530: real time    0.0531
       DOS:  cpu time    0.0010: real time    0.0006
    CHARGE:  cpu time    0.2570: real time    0.2585
    MIXING:  cpu time    0.0010: real time    0.0009
    --------------------------------------------
      LOOP:  cpu time    5.2102: real time    5.4316

 eigenvalue-minimisations  :  3472
 total energy-change (2. order) : 0.1562584E-02  (-0.4183527E-04)
 number of electron       8.0000000 magnetization 
 augmentation part       -0.0205257 magnetization 

 Broyden mixing:
  rms(total) = 0.82546E-02    rms(broyden)= 0.82543E-02
  rms(prec ) = 0.11465E-01
  weight for this iteration     100.00

 eigenvalues of (default mixing * dielectric matrix)
  average eigenvalue GAMMA=   2.0872
  0.9934  2.5319  2.5319  2.2916

 Free energy of the ion-electron system (eV)
  ---------------------------------------------------
  alpha Z        PSCENC =         1.37230889
  Ewald energy   TEWEN  =      2232.02869137
  -Hartree energ DENC   =     -2468.40739195
  -exchange      EXHF   =         0.00000000
  -V(xc)+E(xc)   XCENC  =        15.57950109
  PAW double counting   =      4140.39956537    -4130.05939324
  entropy T*S    EENTRO =        -0.00000000
  eigenvalues    EBANDS =      -103.70239188
  atomic energy  EATOM  =       294.30319316
  Solvation  Ediel_sol  =         0.00000000
  ---------------------------------------------------
  free energy    TOTEN  =       -18.48591718 eV

  energy without entropy =      -18.48591718  energy(sigma->0) =      -18.48591718


--------------------------------------------------------------------------------------------------------




--------------------------------------- Iteration      1(  17)  ---------------------------------------


    POTLOK:  cpu time    0.0210: real time    0.0349
    SETDIJ:  cpu time    0.0020: real time    0.0017
    EDDIAG:  cpu time    1.0538: real time    1.0563
  RMM-DIIS:  cpu time    3.8714: real time    3.8817
    ORTHCH:  cpu time    0.0530: real time    0.0529
       DOS:  cpu time    0.0000: real time    0.0006
    CHARGE:  cpu time    0.2580: real time    0.2586
    MIXING:  cpu time    0.0010: real time    0.0009
    --------------------------------------------
      LOOP:  cpu time    5.2602: real time    5.2875

 eigenvalue-minimisations  :  3457
 total energy-change (2. order) : 0.1318654E-02  (-0.5696001E-04)
 number of electron       8.0000000 magnetization 
 augmentation part       -0.0205757 magnetization 

 Broyden mixing:
  rms(total) = 0.60906E-02    rms(broyden)= 0.60905E-02
  rms(prec ) = 0.75226E-02
  weight for this iteration     100.00

 eigenvalues of (default mixing * dielectric matrix)
  average eigenvalue GAMMA=   2.1139
  3.7639  2.3637  1.0333  1.8407  1.5680

 Free energy of the ion-electron system (eV)
  ---------------------------------------------------
  alpha Z        PSCENC =         1.37230889
  Ewald energy   TEWEN  =      2232.02869137
  -Hartree energ DENC   =     -2470.73658711
  -exchange      EXHF   =         0.00000000
  -V(xc)+E(xc)   XCENC  =        15.60647043
  PAW double counting   =      4082.59978906    -4072.26127070
  entropy T*S    EENTRO =        -0.00000000
  eigenvalues    EBANDS =      -101.39719364
  atomic energy  EATOM  =       294.30319316
  Solvation  Ediel_sol  =         0.00000000
  ---------------------------------------------------
  free energy    TOTEN  =       -18.48459853 eV

  energy without entropy =      -18.48459853  energy(sigma->0) =      -18.48459853


--------------------------------------------------------------------------------------------------------




--------------------------------------- Iteration      1(  18)  ---------------------------------------


    POTLOK:  cpu time    0.0210: real time    0.0337
    SETDIJ:  cpu time    0.0010: real time    0.0017
    EDDIAG:  cpu time    1.0548: real time    1.0564
  RMM-DIIS:  cpu time    3.8654: real time    3.8762
    ORTHCH:  cpu time    0.0530: real time    0.0529
       DOS:  cpu time    0.0000: real time    0.0006
    CHARGE:  cpu time    0.2600: real time    0.2592
    MIXING:  cpu time    0.0010: real time    0.0022
    --------------------------------------------
      LOOP:  cpu time    5.2562: real time    5.2829

 eigenvalue-minimisations  :  3456
 total energy-change (2. order) : 0.5440999E-04  (-0.1678240E-04)
 number of electron       8.0000000 magnetization 
 augmentation part       -0.0205602 magnetization 

 Broyden mixing:
  rms(total) = 0.58284E-02    rms(broyden)= 0.58283E-02
  rms(prec ) = 0.63919E-02
  weight for this iteration     100.00

 eigenvalues of (default mixing * dielectric matrix)
  average eigenvalue GAMMA=   2.5695
  5.9362  2.9213  2.3877  2.1953  0.9882  0.9882

 Free energy of the ion-electron system (eV)
  ---------------------------------------------------
  alpha Z        PSCENC =         1.37230889
  Ewald energy   TEWEN  =      2232.02869137
  -Hartree energ DENC   =     -2471.98031605
  -exchange      EXHF   =         0.00000000
  -V(xc)+E(xc)   XCENC  =        15.61162852
  PAW double counting   =      4124.83724960    -4114.49413075
  entropy T*S    EENTRO =        -0.00000000
  eigenvalues    EBANDS =      -100.16316886
  atomic energy  EATOM  =       294.30319316
  Solvation  Ediel_sol  =         0.00000000
  ---------------------------------------------------
  free energy    TOTEN  =       -18.48454412 eV

  energy without entropy =      -18.48454412  energy(sigma->0) =      -18.48454412


--------------------------------------------------------------------------------------------------------




--------------------------------------- Iteration      1(  19)  ---------------------------------------


    POTLOK:  cpu time    0.0200: real time    0.0322
    SETDIJ:  cpu time    0.0020: real time    0.0017
    EDDIAG:  cpu time    1.0528: real time    1.0559
  RMM-DIIS:  cpu time    3.8494: real time    3.8592
    ORTHCH:  cpu time    0.0520: real time    0.0524
       DOS:  cpu time    0.0010: real time    0.0006
    CHARGE:  cpu time    0.2580: real time    0.2594
    MIXING:  cpu time    0.0010: real time    0.0010
    --------------------------------------------
      LOOP:  cpu time    5.2362: real time    5.2625

 eigenvalue-minimisations  :  3456
 total energy-change (2. order) :-0.4691841E-03  (-0.1501701E-04)
 number of electron       8.0000000 magnetization 
 augmentation part       -0.0205995 magnetization 

 Broyden mixing:
  rms(total) = 0.16029E-02    rms(broyden)= 0.16027E-02
  rms(prec ) = 0.18727E-02
  weight for this iteration     100.00

 eigenvalues of (default mixing * dielectric matrix)
  average eigenvalue GAMMA=   2.3917
  6.0855  2.9607  2.3093  2.1358  1.3936  0.9975  0.8597

 Free energy of the ion-electron system (eV)
  ---------------------------------------------------
  alpha Z        PSCENC =         1.37230889
  Ewald energy   TEWEN  =      2232.02869137
  -Hartree energ DENC   =     -2473.23109777
  -exchange      EXHF   =         0.00000000
  -V(xc)+E(xc)   XCENC  =        15.61910172
  PAW double counting   =      4095.16083489    -4084.82004497
  entropy T*S    EENTRO =        -0.00000000
  eigenvalues    EBANDS =       -98.91800059
  atomic energy  EATOM  =       294.30319316
  Solvation  Ediel_sol  =         0.00000000
  ---------------------------------------------------
  free energy    TOTEN  =       -18.48501330 eV

  energy without entropy =      -18.48501330  energy(sigma->0) =      -18.48501330


--------------------------------------------------------------------------------------------------------




--------------------------------------- Iteration      1(  20)  ---------------------------------------


    POTLOK:  cpu time    0.0200: real time    0.0305
    SETDIJ:  cpu time    0.0010: real time    0.0017
    EDDIAG:  cpu time    1.0598: real time    1.0672
  RMM-DIIS:  cpu time    3.8524: real time    3.8626
    ORTHCH:  cpu time    0.0530: real time    0.0526
       DOS:  cpu time    0.0000: real time    0.0006
    CHARGE:  cpu time    0.2590: real time    0.2596
    MIXING:  cpu time    0.0010: real time    0.0011
    --------------------------------------------
      LOOP:  cpu time    5.2462: real time    5.2758

 eigenvalue-minimisations  :  3461
 total energy-change (2. order) :-0.2843240E-03  (-0.5723119E-06)
 number of electron       8.0000000 magnetization 
 augmentation part       -0.0206000 magnetization 

 Broyden mixing:
  rms(total) = 0.19812E-02    rms(broyden)= 0.19812E-02
  rms(prec ) = 0.21124E-02
  weight for this iteration     100.00

 eigenvalues of (default mixing * dielectric matrix)
  average eigenvalue GAMMA=   2.7570
  7.6661  4.1528  2.7017  2.2977  2.2977  0.9891  0.9891  0.9616

 Free energy of the ion-electron system (eV)
  ---------------------------------------------------
  alpha Z        PSCENC =         1.37230889
  Ewald energy   TEWEN  =      2232.02869137
  -Hartree energ DENC   =     -2473.34769817
  -exchange      EXHF   =         0.00000000
  -V(xc)+E(xc)   XCENC  =        15.61869727
  PAW double counting   =      4090.46883407    -4080.12810473
  entropy T*S    EENTRO =        -0.00000000
  eigenvalues    EBANDS =       -98.80121949
  atomic energy  EATOM  =       294.30319316
  Solvation  Ediel_sol  =         0.00000000
  ---------------------------------------------------
  free energy    TOTEN  =       -18.48529763 eV

  energy without entropy =      -18.48529763  energy(sigma->0) =      -18.48529763


--------------------------------------------------------------------------------------------------------




--------------------------------------- Iteration      1(  21)  ---------------------------------------


    POTLOK:  cpu time    0.0200: real time    0.0296
    SETDIJ:  cpu time    0.0010: real time    0.0017
    EDDIAG:  cpu time    1.0518: real time    1.0548
  RMM-DIIS:  cpu time    3.8454: real time    3.8556
    ORTHCH:  cpu time    0.0530: real time    0.0529
       DOS:  cpu time    0.0000: real time    0.0006
    CHARGE:  cpu time    0.2600: real time    0.2595
    MIXING:  cpu time    0.0010: real time    0.0011
    --------------------------------------------
      LOOP:  cpu time    5.2322: real time    5.2557

 eigenvalue-minimisations  :  3456
 total energy-change (2. order) :-0.5628963E-03  (-0.4593820E-05)
 number of electron       8.0000000 magnetization 
 augmentation part       -0.0205926 magnetization 

 Broyden mixing:
  rms(total) = 0.62659E-03    rms(broyden)= 0.62657E-03
  rms(prec ) = 0.66322E-03
  weight for this iteration     100.00

 eigenvalues of (default mixing * dielectric matrix)
  average eigenvalue GAMMA=   2.9351
  8.2704  4.9649  3.1685  2.6030  2.2333  2.2333  1.0013  0.9707  0.9707

 Free energy of the ion-electron system (eV)
  ---------------------------------------------------
  alpha Z        PSCENC =         1.37230889
  Ewald energy   TEWEN  =      2232.02869137
  -Hartree energ DENC   =     -2473.53708484
  -exchange      EXHF   =         0.00000000
  -V(xc)+E(xc)   XCENC  =        15.61684742
  PAW double counting   =      4103.34884151    -4093.00746356
  entropy T*S    EENTRO =        -0.00000000
  eigenvalues    EBANDS =       -98.61119447
  atomic energy  EATOM  =       294.30319316
  Solvation  Ediel_sol  =         0.00000000
  ---------------------------------------------------
  free energy    TOTEN  =       -18.48586052 eV

  energy without entropy =      -18.48586052  energy(sigma->0) =      -18.48586052


--------------------------------------------------------------------------------------------------------




--------------------------------------- Iteration      1(  22)  ---------------------------------------


    POTLOK:  cpu time    0.0190: real time    0.0333
    SETDIJ:  cpu time    0.0020: real time    0.0017
    EDDIAG:  cpu time    1.0518: real time    1.0556
  RMM-DIIS:  cpu time    3.7654: real time    3.7739
    ORTHCH:  cpu time    0.0530: real time    0.0524
       DOS:  cpu time    0.0000: real time    0.0006
    CHARGE:  cpu time    0.2590: real time    0.2592
    MIXING:  cpu time    0.0010: real time    0.0011
    --------------------------------------------
      LOOP:  cpu time    5.1512: real time    5.1778

 eigenvalue-minimisations  :  3362
 total energy-change (2. order) :-0.9354323E-04  (-0.2766491E-06)
 number of electron       8.0000000 magnetization 
 augmentation part       -0.0205915 magnetization 

 Broyden mixing:
  rms(total) = 0.27856E-03    rms(broyden)= 0.27856E-03
  rms(prec ) = 0.30101E-03
  weight for this iteration     100.00

 eigenvalues of (default mixing * dielectric matrix)
  average eigenvalue GAMMA=   2.7905
  8.4005  5.2242  3.1644  2.6185  2.3021  2.3021  0.9810  0.9810  0.9964  0.9348

 Free energy of the ion-electron system (eV)
  ---------------------------------------------------
  alpha Z        PSCENC =         1.37230889
  Ewald energy   TEWEN  =      2232.02869137
  -Hartree energ DENC   =     -2473.56590156
  -exchange      EXHF   =         0.00000000
  -V(xc)+E(xc)   XCENC  =        15.61668728
  PAW double counting   =      4100.30059779    -4089.95921061
  entropy T*S    EENTRO =        -0.00000000
  eigenvalues    EBANDS =       -98.58232039
  atomic energy  EATOM  =       294.30319316
  Solvation  Ediel_sol  =         0.00000000
  ---------------------------------------------------
  free energy    TOTEN  =       -18.48595407 eV

  energy without entropy =      -18.48595407  energy(sigma->0) =      -18.48595407


--------------------------------------------------------------------------------------------------------




--------------------------------------- Iteration      1(  23)  ---------------------------------------


    POTLOK:  cpu time    0.0190: real time    0.0305
    SETDIJ:  cpu time    0.0020: real time    0.0017
    EDDIAG:  cpu time    1.0508: real time    1.0538
  RMM-DIIS:  cpu time    3.8554: real time    3.8658
    ORTHCH:  cpu time    0.0530: real time    0.0525
       DOS:  cpu time    0.0000: real time    0.0006
    CHARGE:  cpu time    0.2580: real time    0.2579
    MIXING:  cpu time    0.0030: real time    0.0142
    --------------------------------------------
      LOOP:  cpu time    5.2412: real time    5.2770

 eigenvalue-minimisations  :  3456
 total energy-change (2. order) :-0.2067300E-04  (-0.4883172E-07)
 number of electron       8.0000000 magnetization 
 augmentation part       -0.0205931 magnetization 

 Broyden mixing:
  rms(total) = 0.74123E-04    rms(broyden)= 0.74118E-04
  rms(prec ) = 0.96250E-04
  weight for this iteration     100.00

 eigenvalues of (default mixing * dielectric matrix)
  average eigenvalue GAMMA=   2.9552
  8.7514  5.8338  4.0566  2.8500  2.5240  2.2762  2.2762  0.9961  0.9803  0.9814
  0.9814

 Free energy of the ion-electron system (eV)
  ---------------------------------------------------
  alpha Z        PSCENC =         1.37230889
  Ewald energy   TEWEN  =      2232.02869137
  -Hartree energ DENC   =     -2473.59795112
  -exchange      EXHF   =         0.00000000
  -V(xc)+E(xc)   XCENC  =        15.61707505
  PAW double counting   =      4099.27065983    -4088.92939317
  entropy T*S    EENTRO =        -0.00000000
  eigenvalues    EBANDS =       -98.55055875
  atomic energy  EATOM  =       294.30319316
  Solvation  Ediel_sol  =         0.00000000
  ---------------------------------------------------
  free energy    TOTEN  =       -18.48597474 eV

  energy without entropy =      -18.48597474  energy(sigma->0) =      -18.48597474


--------------------------------------------------------------------------------------------------------




--------------------------------------- Iteration      1(  24)  ---------------------------------------


    POTLOK:  cpu time    0.0190: real time    0.0326
    SETDIJ:  cpu time    0.0020: real time    0.0017
    EDDIAG:  cpu time    1.0528: real time    1.0561
  RMM-DIIS:  cpu time    3.7774: real time    3.7866
    ORTHCH:  cpu time    0.0520: real time    0.0525
       DOS:  cpu time    0.0010: real time    0.0006
    CHARGE:  cpu time    0.2580: real time    0.2578
    MIXING:  cpu time    0.0010: real time    0.0013
    --------------------------------------------
      LOOP:  cpu time    5.1632: real time    5.1893

 eigenvalue-minimisations  :  3240
 total energy-change (2. order) :-0.1453981E-04  (-0.1460811E-07)
 number of electron       8.0000000 magnetization 
 augmentation part       -0.0205934 magnetization 

 Broyden mixing:
  rms(total) = 0.48409E-04    rms(broyden)= 0.48408E-04
  rms(prec ) = 0.55671E-04
  weight for this iteration     100.00

 eigenvalues of (default mixing * dielectric matrix)
  average eigenvalue GAMMA=   2.8811
  8.7739  5.9068  3.9029  2.6949  2.5633  2.5633  2.1134  2.1134  0.9753  0.9753
  0.9953  0.9953

 Free energy of the ion-electron system (eV)
  ---------------------------------------------------
  alpha Z        PSCENC =         1.37230889
  Ewald energy   TEWEN  =      2232.02869137
  -Hartree energ DENC   =     -2473.61517198
  -exchange      EXHF   =         0.00000000
  -V(xc)+E(xc)   XCENC  =        15.61713054
  PAW double counting   =      4099.45772520    -4089.11648100
  entropy T*S    EENTRO =        -0.00000000
  eigenvalues    EBANDS =       -98.53338545
  atomic energy  EATOM  =       294.30319316
  Solvation  Ediel_sol  =         0.00000000
  ---------------------------------------------------
  free energy    TOTEN  =       -18.48598928 eV

  energy without entropy =      -18.48598928  energy(sigma->0) =      -18.48598928


--------------------------------------------------------------------------------------------------------




--------------------------------------- Iteration      1(  25)  ---------------------------------------


    POTLOK:  cpu time    0.0190: real time    0.0295
    SETDIJ:  cpu time    0.0020: real time    0.0017
    EDDIAG:  cpu time    1.0518: real time    1.0544
  RMM-DIIS:  cpu time    3.7834: real time    3.7978
    ORTHCH:  cpu time    0.0530: real time    0.0528
[...]
     12       6.0629      0.00000
     13       6.2560      0.00000
     14       7.0126      0.00000
     15       7.3990      0.00000
     16       8.5628      0.00000
     17       9.0437      0.00000
     18      10.0812      0.00000
     19      10.4048      0.00000
     20      11.0567      0.00000
     21      12.3344      0.00000
     22      13.3989      0.00000
     23      13.7658      0.00000
     24      14.5461      0.00000

 k-point    60 :      -0.0417    0.3750    0.0000
  band No.  band energies     occupation 
      1     -19.7668      2.00000
      2     -13.3672      2.00000
      3      -9.1843      2.00000
      4      -7.4218      2.00000
      5       1.1186      0.00000
      6       4.0956      0.00000
      7       4.7628      0.00000
      8       4.9489      0.00000
      9       5.2292      0.00000
     10       5.5265      0.00000
     11       5.7403      0.00000
     12       6.3688      0.00000
     13       6.6648      0.00000
     14       7.5848      0.00000
     15       7.9555      0.00000
     16       9.1374      0.00000
     17       9.6027      0.00000
     18      10.9882      0.00000
     19      11.5951      0.00000
     20      12.0750      0.00000
     21      12.8849      0.00000
     22      13.7174      0.00000
     23      13.8389      0.00000
     24      13.9504      0.00000

 k-point    61 :       0.0417    0.4583    0.0000
  band No.  band energies     occupation 
      1     -17.6356      2.00000
      2     -16.2084      2.00000
      3      -9.6558      2.00000
      4      -5.5950      2.00000
      5      -1.4330      0.00000
      6       4.4977      0.00000
      7       7.3744      0.00000
      8       8.2264      0.00000
      9       8.6302      0.00000
     10       8.6476      0.00000
     11       8.9031      0.00000
     12       9.1344      0.00000
     13       9.4707      0.00000
     14       9.7468      0.00000
     15       9.9950      0.00000
     16      10.0352      0.00000
     17      10.2451      0.00000
     18      10.4763      0.00000
     19      10.8382      0.00000
     20      11.0805      0.00000
     21      11.2973      0.00000
     22      11.3623      0.00000
     23      12.0460      0.00000
     24      12.5041      0.00000

 k-point    62 :       0.1250    0.4583    0.0000
  band No.  band energies     occupation 
      1     -17.4284      2.00000
      2     -15.9981      2.00000
      3     -10.6344      2.00000
      4      -5.3009      2.00000
      5      -1.5192      0.00000
      6       5.8515      0.00000
      7       7.6649      0.00000
      8       8.3419      0.00000
      9       8.9297      0.00000
     10       8.9724      0.00000
     11       9.1675      0.00000
     12       9.4588      0.00000
     13       9.5686      0.00000
     14      10.0748      0.00000
     15      10.3488      0.00000
     16      10.3577      0.00000
     17      10.5560      0.00000
     18      10.8272      0.00000
     19      10.9881      0.00000
     20      11.4166      0.00000
     21      11.5977      0.00000
     22      11.6982      0.00000
     23      12.0567      0.00000
     24      12.8844      0.00000

 k-point    63 :       0.2083    0.4583    0.0000
  band No.  band energies     occupation 
      1     -17.6807      2.00000
      2     -14.8703      2.00000
      3     -12.0113      2.00000
      4      -5.2224      2.00000
      5      -1.2497      0.00000
      6       7.1123      0.00000
      7       7.5731      0.00000
      8       8.0597      0.00000
      9       8.4049      0.00000
     10       8.5821      0.00000
     11       8.8956      0.00000
     12       9.1476      0.00000
     13       9.7859      0.00000
     14       9.8900      0.00000
     15      10.2977      0.00000
     16      10.9735      0.00000
     17      11.0600      0.00000
     18      12.2574      0.00000
     19      12.4818      0.00000
     20      12.6069      0.00000
     21      12.6537      0.00000
     22      12.7830      0.00000
     23      12.9977      0.00000
     24      13.6886      0.00000

 k-point    64 :       0.2917    0.4583    0.0000
  band No.  band energies     occupation 
      1     -17.7376      2.00000
      2     -14.3450      2.00000
      3     -12.5988      2.00000
      4      -5.2106      2.00000
      5      -1.1458      0.00000
      6       7.0156      0.00000
      7       7.3771      0.00000
      8       8.2975      0.00000
      9       8.4627      0.00000
     10       8.7783      0.00000
     11       9.0083      0.00000
     12       9.0689      0.00000
     13       9.6853      0.00000
     14       9.7735      0.00000
     15      10.1687      0.00000
     16      10.8993      0.00000
     17      10.9662      0.00000
     18      12.3936      0.00000
     19      12.5556      0.00000
     20      13.3906      0.00000
     21      13.6716      0.00000
     22      13.8971      0.00000
     23      14.2228      0.00000
     24      14.3431      0.00000

 k-point    65 :       0.3750    0.4583    0.0000
  band No.  band energies     occupation 
      1     -17.5392      2.00000
      2     -15.4431      2.00000
      3     -11.3714      2.00000
      4      -5.2164      2.00000
      5      -1.3917      0.00000
      6       6.7260      0.00000
      7       7.3739      0.00000
      8       7.9158      0.00000
      9       8.6511      0.00000
     10       8.8426      0.00000
     11       9.1393      0.00000
     12       9.4156      0.00000
     13       9.8107      0.00000
     14      10.0448      0.00000
     15      10.0829      0.00000
     16      11.0298      0.00000
     17      11.2902      0.00000
     18      11.4508      0.00000
     19      11.5643      0.00000
     20      11.8879      0.00000
     21      11.9346      0.00000
     22      12.5789      0.00000
     23      12.6634      0.00000
     24      12.9523      0.00000

 k-point    66 :       0.4583    0.4583    0.0000
  band No.  band energies     occupation 
      1     -17.3479      2.00000
      2     -16.2992      2.00000
      3     -10.1256      2.00000
      4      -5.3783      2.00000
      5      -1.5335      0.00000
      6       4.8811      0.00000
      7       8.0704      0.00000
      8       8.2378      0.00000
      9       8.7568      0.00000
     10       9.1323      0.00000
     11       9.4607      0.00000
     12       9.4986      0.00000
     13       9.6976      0.00000
     14       9.7618      0.00000
     15       9.9429      0.00000
     16       9.9868      0.00000
     17      10.4109      0.00000
     18      10.5982      0.00000
     19      10.8286      0.00000
     20      10.8808      0.00000
     21      11.4238      0.00000
     22      11.8203      0.00000
     23      12.0699      0.00000
     24      12.1361      0.00000

 k-point    67 :      -0.4583    0.4583    0.0000
  band No.  band energies     occupation 
      1     -17.9535      2.00000
      2     -15.8412      2.00000
      3      -9.5602      2.00000
      4      -5.7785      2.00000
      5      -1.1787      0.00000
      6       4.1845      0.00000
      7       6.7719      0.00000
      8       7.6255      0.00000
      9       7.9956      0.00000
     10       8.2705      0.00000
     11       8.4920      0.00000
     12       9.0846      0.00000
     13       9.3077      0.00000
     14       9.4081      0.00000
     15      10.0967      0.00000
     16      10.3612      0.00000
     17      10.6728      0.00000
     18      10.7353      0.00000
     19      10.9786      0.00000
     20      11.2096      0.00000
     21      11.6381      0.00000
     22      11.8917      0.00000
     23      12.0822      0.00000
     24      12.2987      0.00000

 k-point    68 :      -0.3750    0.4583    0.0000
  band No.  band energies     occupation 
      1     -18.6047      2.00000
      2     -14.8036      2.00000
      3      -9.9685      2.00000
      4      -6.2368      2.00000
      5      -0.4401      0.00000
      6       4.9632      0.00000
      7       5.7893      0.00000
      8       6.6022      0.00000
      9       6.9548      0.00000
     10       7.2333      0.00000
     11       7.4569      0.00000
     12       8.0546      0.00000
     13       8.3711      0.00000
     14       9.2274      0.00000
     15       9.6501      0.00000
     16      10.6187      0.00000
     17      10.7277      0.00000
     18      11.2887      0.00000
     19      11.5077      0.00000
     20      12.4613      0.00000
     21      12.5045      0.00000
     22      12.7722      0.00000
     23      12.8828      0.00000
     24      13.3156      0.00000

 k-point    69 :      -0.2917    0.4583    0.0000
  band No.  band energies     occupation 
      1     -18.9915      2.00000
      2     -13.5982      2.00000
      3     -11.0091      2.00000
      4      -6.5508      2.00000
      5       0.2789      0.00000
      6       5.2082      0.00000
      7       5.9919      0.00000
      8       6.3725      0.00000
      9       6.6443      0.00000
     10       6.8476      0.00000
     11       6.9472      0.00000
     12       7.4563      0.00000
     13       7.7989      0.00000
     14       8.6082      0.00000
     15       9.0784      0.00000
     16       9.9596      0.00000
     17      10.6178      0.00000
     18      10.7990      0.00000
     19      11.1913      0.00000
     20      12.6213      0.00000
     21      12.7091      0.00000
     22      13.9550      0.00000
     23      14.4037      0.00000
     24      14.7373      0.00000

 k-point    70 :      -0.2083    0.4583    0.0000
  band No.  band energies     occupation 
      1     -19.0748      2.00000
      2     -13.1486      2.00000
      3     -11.4370      2.00000
      4      -6.6237      2.00000
      5       0.4578      0.00000
      6       5.0928      0.00000
      7       5.8581      0.00000
      8       6.2508      0.00000
      9       6.5194      0.00000
     10       6.7534      0.00000
     11       7.3280      0.00000
     12       7.6603      0.00000
     13       8.2006      0.00000
     14       8.4718      0.00000
     15       8.9669      0.00000
     16       9.5449      0.00000
     17       9.8009      0.00000
     18      10.6090      0.00000
     19      11.0351      0.00000
     20      12.5287      0.00000
     21      12.5919      0.00000
     22      14.5814      0.00000
     23      14.7843      0.00000
     24      14.9350      0.00000

 k-point    71 :      -0.1250    0.4583    0.0000
  band No.  band energies     occupation 
      1     -18.8502      2.00000
      2     -14.2416      2.00000
      3     -10.3871      2.00000
      4      -6.4383      2.00000
      5      -0.0657      0.00000
      6       5.4016      0.00000
      7       6.0019      0.00000
      8       6.2280      0.00000
      9       6.5888      0.00000
     10       6.8647      0.00000
     11       7.0931      0.00000
     12       7.6833      0.00000
     13       8.0091      0.00000
     14       8.8500      0.00000
     15       9.2897      0.00000
     16      10.2428      0.00000
     17      10.8941      0.00000
     18      11.0771      0.00000
     19      11.4399      0.00000
     20      12.6532      0.00000
     21      12.9020      0.00000
     22      13.3397      0.00000
     23      13.5102      0.00000
     24      13.5202      0.00000

 k-point    72 :      -0.0417    0.4583    0.0000
  band No.  band energies     occupation 
      1     -18.3356      2.00000
      2     -15.3868      2.00000
      3      -9.5773      2.00000
      4      -6.0468      2.00000
      5      -0.8555      0.00000
      6       4.5378      0.00000
      7       6.1934      0.00000
      8       7.0371      0.00000
      9       7.3852      0.00000
     10       7.6653      0.00000
     11       7.8851      0.00000
     12       8.4882      0.00000
     13       8.7962      0.00000
     14       9.6620      0.00000
     15       9.9501      0.00000
     16      10.0834      0.00000
     17      10.7546      0.00000
     18      11.2629      0.00000
     19      11.4780      0.00000
     20      11.7050      0.00000
     21      11.7191      0.00000
     22      11.9398      0.00000
     23      12.4174      0.00000
     24      12.8332      0.00000


--------------------------------------------------------------------------------------------------------


 soft charge-density along one line, spin component           1
         0         1         2         3         4         5         6         7         8         9
 total charge-density along one line
 
 pseudopotential strength for first ion, spin component:           1
 12.715  21.397   0.000  -0.000  -0.000   0.000  -0.000  -0.000
 21.397  36.006   0.000  -0.000  -0.000   0.000  -0.000  -0.000
  0.000   0.000  -3.175  -0.000  -0.000  -5.691  -0.000  -0.000
 -0.000  -0.000  -0.000  -3.176   0.000  -0.000  -5.693   0.000
 -0.000  -0.000  -0.000   0.000  -3.175  -0.000   0.000  -5.691
  0.000   0.000  -5.691  -0.000  -0.000 -10.179  -0.000  -0.000
 -0.000  -0.000  -0.000  -5.693   0.000  -0.000 -10.182   0.000
 -0.000  -0.000  -0.000   0.000  -5.691  -0.000   0.000 -10.179
 total augmentation occupancy for first ion, spin component:           1
  7.801  -2.729  -0.002   0.000   0.042   0.001   0.000  -0.018
 -2.729   0.992   0.001   0.000  -0.018  -0.000   0.000   0.007
 -0.002   0.001   7.372   0.000  -0.005  -2.513   0.000   0.000
  0.000   0.000   0.000   3.307   0.000   0.000  -0.892   0.000
  0.042  -0.018  -0.005   0.000   7.376   0.000   0.000  -2.514
  0.001  -0.000  -2.513   0.000   0.000   0.870   0.000   0.000
  0.000   0.000   0.000  -0.892   0.000   0.000   0.247   0.000
 -0.018   0.007   0.000   0.000  -2.514   0.000   0.000   0.871


------------------------ aborting loop because EDIFF is reached ----------------------------------------


    CHARGE:  cpu time    0.2570: real time    0.2574
    FORLOC:  cpu time    0.0010: real time    0.0006
    FORNL :  cpu time    0.1440: real time    0.1442
    STRESS:  cpu time    2.0057: real time    2.0105
    FORCOR:  cpu time    0.0140: real time    0.0145
    FORHAR:  cpu time    0.0040: real time    0.0036
    MIXING:  cpu time    0.0010: real time    0.0007
    OFIELD:  cpu time    0.0000: real time    0.0001

  Number of pair interactions contributing to vdW energy:   10141
  Edisp (eV):   -0.10828
    FORVDW:  cpu time    0.0010: real time    0.0014

  FORCE on cell =-STRESS in cart. coord.  units (eV):
  Direction    XX          YY          ZZ          XY          YZ          ZX
  --------------------------------------------------------------------------------------
  Alpha Z     1.37231     1.37231     1.37231
  Ewald    2500.68599  2500.58973 -2769.24911    -0.11708     0.00000     0.00000
  Hartree  2462.31390  2462.29876 -2450.98983    -0.05123     0.00000    -0.00000
  E(xc)     -32.39920   -32.39945   -33.35841     0.00498     0.00000    -0.00000
  Local   -5078.55276 -5078.45159  5090.54551     0.17155    -0.00000     0.00000
  n-local     8.25989     8.25746     6.82986     0.04593     0.00000    -0.00000
  augment     0.14274     0.14272     0.11790    -0.00062    -0.00000     0.00000
  Kinetic   137.99681   138.04071   154.68510    -0.37683    -0.00000     0.00000
  Fock        0.00000     0.00000     0.00000     0.00000     0.00000     0.00000
  vdW        -0.00404    -0.00385    -0.00007     0.00164     0.00000     0.00000
  -------------------------------------------------------------------------------------
  Total      -0.18437    -0.15320    -0.04675    -0.32167     0.00000     0.00000
  in kB      -1.84857    -1.53607    -0.46872    -3.22524     0.00000     0.00000
  external pressure =       -1.28 kB  Pullay stress =        0.00 kB


 VOLUME and BASIS-vectors are now :
 -----------------------------------------------------------------------------
  energy-cutoff  :      875.00
  volume of cell :      159.79
      direct lattice vectors                 reciprocal lattice vectors
     1.227081197 -2.133600434  0.000000000     0.405902616 -0.235247671  0.000000000
     1.241332627  2.141828480  0.000000000     0.404343301  0.232546851  0.000000000
     0.000000000  0.000000000 30.282393743     0.000000000  0.000000000  0.033022489

  length of vectors
     2.461296219  2.475547602 30.282393743     0.469146459  0.466445648  0.033022489


 FORCES acting on ions
    electron-ion (+dipol)            ewald-force                    non-local-force                 convergence-correction
 -----------------------------------------------------------------------------------------------
   0.132E+01 -.468E-01 0.844E-07   -.119E+01 0.381E-01 0.000E+00   -.129E+00 0.763E-02 0.000E+00   -.256E-03 -.552E-04 0.464E-13
   -.132E+01 0.468E-01 -.252E-06   0.119E+01 -.381E-01 0.000E+00   0.129E+00 -.763E-02 0.000E+00   0.256E-03 0.552E-04 0.456E-13
 -----------------------------------------------------------------------------------------------
   0.123E-05 0.163E-04 -.168E-06   0.187E-13 0.248E-14 0.000E+00   0.278E-16 -.694E-17 0.000E+00   -.291E-09 0.117E-09 0.920E-13
 
 
 POSITION                                       TOTAL-FORCE (eV/Angst)
 -----------------------------------------------------------------------------------
      1.24058      2.14172     15.14120         0.000086     -0.001001      0.000000
      1.23259     -0.70836     15.14120        -0.000086      0.001001      0.000000
 -----------------------------------------------------------------------------------
    total drift:                                0.000001      0.000016     -0.000000


--------------------------------------------------------------------------------------------------------



  FREE ENERGIE OF THE ION-ELECTRON SYSTEM (eV)
  ---------------------------------------------------
  free  energy   TOTEN  =       -18.59433763 eV

  energy  without entropy=      -18.59433763  energy(sigma->0) =      -18.59433763
 
 d Force = 0.1166222E-02[-0.302E-06, 0.233E-02]  d Energy = 0.1165272E-02 0.949E-06
 d Force =-0.3882639E-02[-0.767E-02,-0.990E-04]  d Ewald  =-0.3887963E-02 0.532E-05


--------------------------------------------------------------------------------------------------------


    POTLOK:  cpu time    0.0230: real time    0.0225


--------------------------------------------------------------------------------------------------------


 stress matrix after NEB project (eV)
     -0.18437     -0.32167      0.00000
     -0.32167     -0.15320      0.00000
      0.00000      0.00000     -0.04675
  FORCES: max atom, RMS     0.001005    0.001005
  FORCE total and by dimension    0.001421    0.001001
  Stress total and by dimension    0.516317    0.321666


--------------------------------------------------------------------------------------------------------


  
 reached required accuracy - stopping structural energy minimisation
     LOOP+:  cpu time   28.4707: real time   28.6273
    4ORBIT:  cpu time    0.0000: real time    0.0000

 total amount of memory used by VASP MPI-rank0    94982. kBytes
=======================================================================

   base      :      30000. kBytes
   nonl-proj :      44098. kBytes
   fftplans  :       1663. kBytes
   grid      :       8239. kBytes
   one-center:          6. kBytes
   wavefun   :      10976. kBytes
 
  
  
 General timing and accounting informations for this job:
 ========================================================
  
                  Total CPU time used (sec):      192.786
                            User time (sec):      191.241
                          System time (sec):        1.545
                         Elapsed time (sec):      195.142
  
                   Maximum memory used (kb):      211040.
                   Average memory used (kb):           0.
  
                          Minor page faults:       156930
                          Major page faults:          247
                 Voluntary context switches:         9416
