unknown system                          
           1
     1.227081   -2.133600    0.000000
     1.241333    2.141828    0.000000
     0.000000    0.000000   30.282394
   C 
   2
Direct configuration=     1
   0.00000262  0.99999738  0.50000000
   0.66666738  0.33333262  0.50000000
Direct configuration=     2
  -0.00149005  0.99826301  0.50000000
   0.66816005  0.33506699  0.50000000
Direct configuration=     3
  -0.00028015  0.99966881  0.50000000
   0.66695015  0.33366119  0.50000000
