   8   8   0   0
  0.5591325E+01  0.3549781E-09  0.3549781E-09  0.3549781E-09  0.5000000E-15
  1.000000000000000E-004
  CAR 
 unknown system                          
     24.82847675    -12.14549661  301     11.40230267      1.00000000
    -12.145  0.0000E+00  0.0000E+00
    -12.022  0.0000E+00  0.0000E+00
    -11.899  0.0000E+00  0.0000E+00
    -11.776  0.0000E+00  0.0000E+00
    -11.653  0.0000E+00  0.0000E+00
    -11.529  0.0000E+00  0.0000E+00
    -11.406  0.0000E+00  0.0000E+00
    -11.283  0.0000E+00  0.0000E+00
    -11.160  0.0000E+00  0.0000E+00
    -11.036  0.0000E+00  0.0000E+00
    -10.913  0.0000E+00  0.0000E+00
    -10.790  0.0000E+00  0.0000E+00
    -10.667  0.2764E-11  0.3407E-12
    -10.543  0.6277E-05  0.7736E-06
    -10.420  0.5284E-03  0.6589E-04
    -10.297  0.1709E-02  0.2765E-03
    -10.174  0.2162E-02  0.5430E-03
    -10.050  0.3238E-02  0.9420E-03
     -9.927  0.2298E-02  0.1225E-02
     -9.804  0.4349E-02  0.1761E-02
     -9.681  0.3449E-02  0.2186E-02
     -9.557  0.3919E-02  0.2669E-02
     -9.434  0.4947E-02  0.3279E-02
     -9.311  0.4855E-02  0.3877E-02
     -9.188  0.5357E-02  0.4538E-02
     -9.064  0.3805E-02  0.5007E-02
     -8.941  0.6595E-02  0.5819E-02
     -8.818  0.6501E-02  0.6621E-02
     -8.695  0.5094E-02  0.7249E-02
     -8.571  0.5040E-02  0.7870E-02
     -8.448  0.7133E-02  0.8749E-02
     -8.325  0.8128E-02  0.9751E-02
     -8.202  0.5647E-02  0.1045E-01
     -8.078  0.7500E-02  0.1137E-01
     -7.955  0.6143E-02  0.1213E-01
     -7.832  0.8490E-02  0.1317E-01
     -7.709  0.5689E-02  0.1388E-01
     -7.585  0.8937E-02  0.1498E-01
     -7.462  0.1069E-01  0.1629E-01
     -7.339  0.5372E-02  0.1696E-01
     -7.216  0.8102E-02  0.1795E-01
     -7.092  0.6993E-02  0.1882E-01
     -6.969  0.1240E-01  0.2035E-01
     -6.846  0.8214E-02  0.2136E-01
     -6.723  0.9615E-02  0.2254E-01
     -6.599  0.7101E-02  0.2342E-01
     -6.476  0.1061E-01  0.2473E-01
     -6.353  0.8921E-02  0.2582E-01
     -6.230  0.1007E-01  0.2707E-01
     -6.106  0.1030E-01  0.2834E-01
     -5.983  0.1021E-01  0.2959E-01
     -5.860  0.1161E-01  0.3102E-01
     -5.737  0.9791E-02  0.3223E-01
     -5.613  0.1458E-01  0.3403E-01
     -5.490  0.5839E-02  0.3475E-01
     -5.367  0.9216E-02  0.3588E-01
     -5.244  0.1628E-01  0.3789E-01
     -5.120  0.1380E-01  0.3959E-01
     -4.997  0.1068E-01  0.4091E-01
     -4.874  0.1425E-01  0.4266E-01
     -4.751  0.1126E-01  0.4405E-01
     -4.627  0.1289E-01  0.4564E-01
     -4.504  0.1573E-01  0.4758E-01
     -4.381  0.1519E-01  0.4945E-01
     -4.258  0.1573E-01  0.5139E-01
     -4.134  0.1299E-01  0.5299E-01
     -4.011  0.1206E-01  0.5448E-01
     -3.888  0.1956E-01  0.5689E-01
     -3.765  0.1165E-01  0.5832E-01
     -3.641  0.1058E-01  0.5963E-01
     -3.518  0.1076E-01  0.6095E-01
     -3.395  0.8429E-02  0.6199E-01
     -3.272  0.1500E-01  0.6384E-01
     -3.148  0.1793E-01  0.6605E-01
     -3.025  0.5730E-02  0.6676E-01
     -2.902  0.8976E-02  0.6786E-01
     -2.779  0.1290E-01  0.6946E-01
     -2.656  0.1008E-01  0.7070E-01
     -2.532  0.1116E-01  0.7207E-01
     -2.409  0.5289E-02  0.7273E-01
     -2.286  0.7881E-02  0.7370E-01
     -2.163  0.9916E-02  0.7492E-01
     -2.039  0.1180E-01  0.7637E-01
     -1.916  0.1313E-01  0.7799E-01
     -1.793  0.1529E-01  0.7988E-01
     -1.670  0.1269E-01  0.8144E-01
     -1.546  0.6489E-02  0.8224E-01
     -1.423  0.9157E-02  0.8337E-01
     -1.300  0.1101E-01  0.8472E-01
     -1.177  0.7711E-02  0.8567E-01
     -1.053  0.8658E-02  0.8674E-01
     -0.930  0.1935E-01  0.8913E-01
     -0.807  0.1385E-01  0.9083E-01
     -0.684  0.1829E-01  0.9309E-01
     -0.560  0.2316E-01  0.9594E-01
     -0.437  0.2299E-01  0.9878E-01
     -0.314  0.2048E-01  0.1013E+00
     -0.191  0.1384E-01  0.1030E+00
     -0.067  0.2048E-01  0.1055E+00
      0.056  0.2005E-01  0.1080E+00
      0.179  0.2601E-01  0.1112E+00
      0.302  0.1758E-01  0.1134E+00
      0.426  0.1596E-01  0.1153E+00
      0.549  0.7324E-02  0.1162E+00
      0.672  0.1003E-01  0.1175E+00
      0.795  0.1620E-01  0.1195E+00
      0.919  0.7536E-02  0.1204E+00
      1.042  0.1399E-01  0.1221E+00
      1.165  0.1110E-01  0.1235E+00
      1.288  0.1680E-01  0.1256E+00
      1.412  0.1018E-01  0.1268E+00
      1.535  0.7787E-02  0.1278E+00
      1.658  0.1299E-01  0.1294E+00
      1.781  0.1449E-01  0.1312E+00
      1.905  0.1106E-01  0.1325E+00
      2.028  0.1160E-01  0.1340E+00
      2.151  0.2008E-01  0.1364E+00
      2.274  0.1734E-01  0.1386E+00
      2.398  0.2247E-01  0.1413E+00
      2.521  0.2362E-01  0.1443E+00
      2.644  0.2042E-01  0.1468E+00
      2.767  0.2107E-01  0.1494E+00
      2.891  0.1966E-01  0.1518E+00
      3.014  0.1684E-01  0.1539E+00
      3.137  0.1179E-01  0.1553E+00
      3.260  0.2426E-01  0.1583E+00
      3.384  0.2730E-01  0.1617E+00
      3.507  0.2823E-01  0.1652E+00
      3.630  0.1032E-01  0.1664E+00
      3.753  0.2214E-01  0.1692E+00
      3.877  0.1945E-01  0.1716E+00
      4.000  0.2452E-01  0.1746E+00
      4.123  0.2718E-01  0.1779E+00
      4.246  0.2596E-01  0.1811E+00
      4.370  0.2145E-01  0.1838E+00
      4.493  0.1725E-01  0.1859E+00
      4.616  0.3021E-01  0.1896E+00
      4.739  0.3146E-01  0.1935E+00
      4.863  0.3672E-01  0.1980E+00
      4.986  0.2741E-01  0.2014E+00
      5.109  0.2774E-01  0.2048E+00
      5.232  0.2625E-01  0.2081E+00
      5.356  0.2739E-01  0.2114E+00
      5.479  0.4285E-01  0.2167E+00
      5.602  0.3922E-01  0.2215E+00
      5.725  0.1948E-01  0.2239E+00
      5.849  0.1752E-01  0.2261E+00
      5.972  0.3435E-01  0.2303E+00
      6.095  0.3079E-01  0.2341E+00
      6.218  0.3911E-01  0.2390E+00
      6.341  0.2221E-01  0.2417E+00
      6.465  0.2375E-01  0.2446E+00
      6.588  0.3337E-01  0.2487E+00
      6.711  0.2428E-01  0.2517E+00
      6.834  0.2547E-01  0.2549E+00
      6.958  0.3147E-01  0.2587E+00
      7.081  0.2627E-01  0.2620E+00
      7.204  0.2037E-01  0.2645E+00
      7.327  0.3125E-01  0.2683E+00
      7.451  0.3399E-01  0.2725E+00
      7.574  0.2071E-01  0.2751E+00
      7.697  0.1903E-01  0.2774E+00
      7.820  0.2873E-01  0.2810E+00
      7.944  0.1823E-01  0.2832E+00
      8.067  0.3985E-01  0.2881E+00
      8.190  0.2618E-01  0.2914E+00
      8.313  0.1460E-01  0.2932E+00
      8.437  0.1537E-01  0.2950E+00
      8.560  0.2698E-01  0.2984E+00
      8.683  0.1955E-01  0.3008E+00
      8.806  0.1921E-01  0.3031E+00
      8.930  0.1033E-01  0.3044E+00
      9.053  0.7237E-02  0.3053E+00
      9.176  0.1329E-01  0.3070E+00
      9.299  0.1680E-01  0.3090E+00
      9.423  0.1230E-01  0.3105E+00
      9.546  0.7730E-02  0.3115E+00
      9.669  0.7738E-02  0.3124E+00
      9.792  0.5829E-02  0.3132E+00
      9.916  0.1213E-01  0.3147E+00
     10.039  0.8139E-02  0.3157E+00
     10.162  0.4593E-02  0.3162E+00
     10.285  0.5741E-02  0.3169E+00
     10.409  0.4367E-02  0.3175E+00
     10.532  0.6696E-02  0.3183E+00
     10.655  0.3283E-02  0.3187E+00
     10.778  0.4700E-02  0.3193E+00
     10.902  0.1802E-02  0.3195E+00
     11.025  0.2711E-02  0.3198E+00
     11.148  0.1237E-02  0.3200E+00
     11.271  0.8369E-04  0.3200E+00
     11.395  0.6257E-09  0.3200E+00
     11.518  0.0000E+00  0.3200E+00
     11.641  0.0000E+00  0.3200E+00
     11.764  0.0000E+00  0.3200E+00
     11.888  0.0000E+00  0.3200E+00
     12.011  0.0000E+00  0.3200E+00
     12.134  0.0000E+00  0.3200E+00
     12.257  0.0000E+00  0.3200E+00
     12.381  0.0000E+00  0.3200E+00
     12.504  0.0000E+00  0.3200E+00
     12.627  0.0000E+00  0.3200E+00
     12.750  0.0000E+00  0.3200E+00
     12.874  0.0000E+00  0.3200E+00
     12.997  0.0000E+00  0.3200E+00
     13.120  0.0000E+00  0.3200E+00
     13.243  0.0000E+00  0.3200E+00
     13.367  0.0000E+00  0.3200E+00
     13.490  0.0000E+00  0.3200E+00
     13.613  0.0000E+00  0.3200E+00
     13.736  0.0000E+00  0.3200E+00
     13.860  0.0000E+00  0.3200E+00
     13.983  0.0000E+00  0.3200E+00
     14.106  0.0000E+00  0.3200E+00
     14.229  0.0000E+00  0.3200E+00
     14.353  0.0000E+00  0.3200E+00
     14.476  0.0000E+00  0.3200E+00
     14.599  0.0000E+00  0.3200E+00
     14.722  0.0000E+00  0.3200E+00
     14.846  0.0000E+00  0.3200E+00
     14.969  0.0000E+00  0.3200E+00
     15.092  0.0000E+00  0.3200E+00
     15.215  0.1999E-12  0.3200E+00
     15.338  0.4105E-05  0.3200E+00
     15.462  0.2117E-02  0.3203E+00
     15.585  0.3501E-02  0.3207E+00
     15.708  0.2622E-02  0.3210E+00
     15.831  0.3957E-02  0.3215E+00
     15.955  0.1017E-01  0.3228E+00
     16.078  0.9418E-02  0.3239E+00
     16.201  0.8305E-02  0.3249E+00
     16.324  0.6649E-02  0.3258E+00
     16.448  0.7538E-02  0.3267E+00
     16.571  0.1920E-01  0.3291E+00
     16.694  0.1647E-01  0.3311E+00
     16.817  0.1734E-01  0.3332E+00
     16.941  0.1547E-01  0.3351E+00
     17.064  0.1283E-01  0.3367E+00
     17.187  0.2041E-01  0.3392E+00
     17.310  0.1134E-01  0.3406E+00
     17.434  0.1992E-01  0.3431E+00
     17.557  0.2830E-01  0.3466E+00
     17.680  0.2304E-01  0.3494E+00
     17.803  0.2225E-01  0.3522E+00
     17.927  0.1430E-01  0.3539E+00
     18.050  0.1912E-01  0.3563E+00
     18.173  0.3359E-01  0.3604E+00
     18.296  0.2142E-01  0.3630E+00
     18.420  0.2509E-01  0.3661E+00
     18.543  0.1520E-01  0.3680E+00
     18.666  0.2783E-01  0.3714E+00
     18.789  0.3384E-01  0.3756E+00
     18.913  0.3528E-01  0.3800E+00
     19.036  0.3397E-01  0.3842E+00
     19.159  0.3380E-01  0.3883E+00
     19.282  0.3546E-01  0.3927E+00
     19.406  0.2965E-01  0.3963E+00
     19.529  0.3847E-01  0.4011E+00
     19.652  0.3689E-01  0.4056E+00
     19.775  0.3208E-01  0.4096E+00
     19.899  0.4269E-01  0.4148E+00
     20.022  0.5775E-01  0.4220E+00
     20.145  0.3958E-01  0.4268E+00
     20.268  0.2547E-01  0.4300E+00
     20.392  0.3701E-01  0.4345E+00
     20.515  0.2287E-01  0.4374E+00
     20.638  0.2859E-01  0.4409E+00
     20.761  0.2177E-01  0.4436E+00
     20.885  0.1939E-01  0.4460E+00
     21.008  0.4293E-01  0.4512E+00
     21.131  0.3260E-01  0.4553E+00
     21.254  0.3560E-01  0.4597E+00
     21.378  0.1753E-01  0.4618E+00
     21.501  0.2104E-01  0.4644E+00
     21.624  0.3016E-01  0.4681E+00
     21.747  0.1407E-01  0.4699E+00
     21.871  0.9160E-02  0.4710E+00
     21.994  0.1564E-01  0.4729E+00
     22.117  0.1939E-01  0.4753E+00
     22.240  0.8809E-02  0.4764E+00
     22.364  0.1504E-01  0.4782E+00
     22.487  0.5089E-02  0.4789E+00
     22.610  0.5357E-02  0.4795E+00
     22.733  0.6907E-03  0.4796E+00
     22.857  0.2855E-03  0.4797E+00
     22.980  0.3233E-07  0.4797E+00
     23.103  0.2967E-03  0.4797E+00
     23.226  0.2505E-02  0.4800E+00
     23.350  0.3660E-04  0.4800E+00
     23.473  0.1556E-10  0.4800E+00
     23.596  0.0000E+00  0.4800E+00
     23.719  0.0000E+00  0.4800E+00
     23.843  0.0000E+00  0.4800E+00
     23.966  0.0000E+00  0.4800E+00
     24.089  0.0000E+00  0.4800E+00
     24.212  0.0000E+00  0.4800E+00
     24.335  0.0000E+00  0.4800E+00
     24.459  0.0000E+00  0.4800E+00
     24.582  0.0000E+00  0.4800E+00
     24.705  0.0000E+00  0.4800E+00
     24.828  0.0000E+00  0.4800E+00
