    8    8  100    1
  0.5591325E+01  0.3549781E-09  0.3549781E-09  0.3549781E-09  0.5000000E-15
  1.000000000000000E-004
  CAR 
 unknown system                          
     32     84     24
 
  0.3571429E-01  0.3571429E-01  0.3571429E-01  0.2915452E-02
    1      -10.464861   1.000000
    2       -2.253798   1.000000
    3       -2.253798   1.000000
    4       -2.253798   1.000000
    5       -1.101082   1.000000
    6       -1.101082   1.000000
    7       -1.101082   1.000000
    8        4.668234   1.000000
    9        4.668234   1.000000
   10        4.668234   1.000000
   11        4.814280   1.000000
   12        4.814280   1.000000
   13        4.814280   1.000000
   14       10.907990   1.000000
   15       11.100363   1.000000
   16       11.100363   1.000000
   17       15.880538   0.000000
   18       15.880538   0.000000
   19       15.880538   0.000000
   20       16.264911   0.000000
   21       16.264911   0.000000
   22       16.264911   0.000000
   23       16.891860   0.000000
   24       16.891873   0.000000
 
  0.1071429E+00  0.3571429E-01  0.3571429E-01  0.8746356E-02
    1      -10.369763   1.000000
    2       -3.356862   1.000000
    3       -2.187555   1.000000
    4       -2.187555   1.000000
    5       -1.047771   1.000000
    6       -1.047771   1.000000
    7        0.088497   1.000000
    8        4.336804   1.000000
    9        4.336804   1.000000
   10        4.748554   1.000000
   11        4.748554   1.000000
   12        4.764366   1.000000
   13        4.906912   1.000000
   14       10.448235   1.000000
   15       10.730857   1.000000
   16       10.984804   1.000000
   17       15.646817   0.000000
   18       16.170438   0.000000
   19       16.170438   0.000000
   20       16.719316   0.000000
   21       16.734965   0.000000
   22       16.734965   0.000000
   23       16.822910   0.000000
   24       17.342165   0.000000
 
  0.1785714E+00  0.3571429E-01  0.3571429E-01  0.8746356E-02
    1      -10.179813   1.000000
    2       -4.400039   1.000000
    3       -2.059629   1.000000
    4       -2.059629   1.000000
    5       -0.948017   1.000000
    6       -0.948017   1.000000
    7        1.299728   1.000000
    8        3.886720   1.000000
    9        3.886720   1.000000
   10        4.499932   1.000000
   11        4.499932   1.000000
   12        4.956972   1.000000
   13        5.091768   1.000000
   14        9.806422   1.000000
   15       10.125747   1.000000
   16       10.607587   1.000000
   17       15.500193   0.000000
   18       16.684237   0.000000
   19       16.787369   0.000000
   20       16.787369   0.000000
   21       17.307456   0.000000
   22       17.542931   0.000000
   23       17.542931   0.000000
   24       18.107777   0.000000
 
  0.2500000E+00  0.3571429E-01  0.3571429E-01  0.8746356E-02
    1       -9.895532   1.000000
    2       -5.375242   1.000000
    3       -1.880544   1.000000
    4       -1.880544   1.000000
    5       -0.817334   1.000000
    6       -0.817334   1.000000
    7        2.513705   1.000000
    8        3.397460   1.000000
    9        3.397460   1.000000
   10        4.136764   1.000000
   11        4.136764   1.000000
   12        5.246862   1.000000
   13        5.367229   1.000000
   14        9.075924   1.000000
   15        9.416765   1.000000
   16       10.025179   1.000000
   17       15.438608   0.000000
   18       16.497355   0.000000
   19       17.686344   0.000000
   20       17.686344   0.000000
   21       18.030079   0.000000
   22       18.586815   0.000000
   23       18.586815   0.000000
   24       19.055517   0.000000
 
  0.3214286E+00  0.3571429E-01  0.3571429E-01  0.8746356E-02
    1       -9.517624   1.000000
    2       -6.276000   1.000000
    3       -1.670468   1.000000
    4       -1.670468   1.000000
    5       -0.682008   1.000000
    6       -0.682008   1.000000
    7        2.946966   1.000000
    8        2.946966   1.000000
    9        3.707070   1.000000
   10        3.740836   1.000000
   11        3.740836   1.000000
   12        5.637558   1.000000
   13        5.731113   1.000000
   14        8.316467   1.000000
   15        8.684428   1.000000
   16        9.289539   1.000000
   17       15.453425   0.000000
   18       16.282922   0.000000
   19       18.790841   0.000000
   20       18.790841   0.000000
   21       18.890999   0.000000
   22       19.782426   0.000000
   23       19.782455   0.000000
   24       20.094380   0.000000
 
  0.3928571E+00  0.3571429E-01  0.3571429E-01  0.8746356E-02
    1       -9.047150   1.000000
    2       -7.097166   1.000000
    3       -1.466673   1.000000
    4       -1.466673   1.000000
    5       -0.577095   1.000000
    6       -0.577095   1.000000
    7        2.606511   1.000000
    8        2.606511   1.000000
    9        3.396022   1.000000
   10        3.396022   1.000000
   11        4.846111   1.000000
   12        6.139543   1.000000
   13        6.179616   1.000000
   14        7.552323   1.000000
   15        7.973441   1.000000
   16        8.450772   1.000000
   17       15.534716   0.000000
   18       16.061543   0.000000
   19       19.886894   0.000000
   20       20.011427   0.000000
   21       20.011427   0.000000
   22       21.028181   0.000000
   23       21.031826   0.000000
   24       21.185926   0.000000
 
  0.4642857E+00  0.3571429E-01  0.3571429E-01  0.8746356E-02
    1       -8.485555   1.000000
    2       -7.834746   1.000000
    3       -1.331379   1.000000
    4       -1.331379   1.000000
    5       -0.526995   1.000000
    6       -0.526995   1.000000
    7        2.427909   1.000000
    8        2.427909   1.000000
    9        3.188991   1.000000
   10        3.188991   1.000000
   11        5.880237   1.000000
   12        6.708047   1.000000
   13        6.765482   1.000000
   14        6.779954   1.000000
   15        7.309470   1.000000
   16        7.576911   1.000000
   17       15.671810   0.000000
   18       15.852125   0.000000
   19       20.999226   0.000000
   20       21.173564   0.000000
   21       21.173564   0.000000
   22       21.992988   0.000000
   23       21.993692   0.000000
   24       22.187865   0.000000
 
  0.1071429E+00  0.1071429E+00  0.3571429E-01  0.8746356E-02
    1      -10.274755   1.000000
    2       -3.281698   1.000000
    3       -3.281698   1.000000
    4       -2.127182   1.000000
    5       -0.998535   1.000000
    6        0.120216   1.000000
    7        0.120216   1.000000
    8        3.805476   1.000000
    9        4.441304   1.000000
   10        4.441304   1.000000
   11        4.845778   1.000000
   12        4.845778   1.000000
   13        4.972951   1.000000
   14        9.891976   1.000000
   15       10.448325   1.000000
   16       10.987593   1.000000
   17       15.997250   0.000000
   18       15.997250   0.000000
   19       16.126225   0.000000
   20       17.078252   0.000000
   21       17.124969   0.000000
   22       17.124969   0.000000
   23       17.456962   0.000000
   24       17.458730   0.000000
 
  0.1785714E+00  0.1071429E+00  0.3571429E-01  0.1749271E-01
    1      -10.085016   1.000000
    2       -4.318969   1.000000
    3       -3.134072   1.000000
    4       -2.014326   1.000000
    5       -0.907226   1.000000
    6        0.171591   1.000000
    7        1.296046   1.000000
    8        3.234709   1.000000
    9        4.001659   1.000000
   10        4.615145   1.000000
   11        4.652029   1.000000
   12        4.986237   1.000000
   13        5.041973   1.000000
   14        9.198686   1.000000
   15        9.874665   1.000000
   16       10.769613   1.000000
   17       15.871908   0.000000
   18       16.442421   0.000000
   19       16.668790   0.000000
   20       17.040671   0.000000
   21       17.684088   0.000000
   22       17.870221   0.000000
   23       18.110627   0.000000
   24       18.296565   0.000000
 
  0.2500000E+00  0.1071429E+00  0.3571429E-01  0.1749271E-01
    1       -9.801043   1.000000
    2       -5.290109   1.000000
    3       -2.920247   1.000000
    4       -1.869553   1.000000
    5       -0.787478   1.000000
    6        0.216162   1.000000
    7        2.449718   1.000000
    8        2.707511   1.000000
    9        3.520476   1.000000
   10        4.293427   1.000000
   11        4.817587   1.000000
   12        4.971557   1.000000
   13        5.343334   1.000000
   14        8.445635   1.000000
   15        9.186361   1.000000
   16       10.305196   1.000000
   17       15.821437   0.000000
   18       16.873511   0.000000
   19       17.106664   0.000000
   20       17.604718   0.000000
   21       18.383972   0.000000
   22       18.863081   0.000000
   23       19.032601   0.000000
   24       19.089522   0.000000
 
  0.3214286E+00  0.1071429E+00  0.3571429E-01  0.1749271E-01
    1       -9.423564   1.000000
    2       -6.188022   1.000000
    3       -2.651590   1.000000
    4       -1.737230   1.000000
    5       -0.651969   1.000000
    6        0.213076   1.000000
    7        2.307452   1.000000
    8        3.060940   1.000000
    9        3.539650   1.000000
   10        3.981584   1.000000
   11        4.534393   1.000000
   12        5.398413   1.000000
   13        5.768771   1.000000
   14        7.676486   1.000000
   15        8.467185   1.000000
   16        9.648348   1.000000
   17       15.842662   0.000000
   18       16.668034   0.000000
   19       18.046659   0.000000
   20       18.734443   0.000000
   21       19.222961   0.000000
   22       20.004896   0.000000
   23       20.010565   0.000000
   24       20.070884   0.000000
 
  0.3928571E+00  0.1071429E+00  0.3571429E-01  0.1749271E-01
    1       -8.953695   1.000000
    2       -7.007147   1.000000
    3       -2.348393   1.000000
    4       -1.694112   1.000000
    5       -0.492350   1.000000
    6        0.122041   1.000000
    7        2.107579   1.000000
    8        2.659586   1.000000
    9        3.784887   1.000000
   10        4.214936   1.000000
   11        4.519253   1.000000
   12        5.910533   1.000000
   13        6.359070   1.000000
   14        6.912717   1.000000
   15        7.762118   1.000000
   16        8.857180   1.000000
   17       15.927527   0.000000
   18       16.451787   0.000000
   19       19.170010   0.000000
   20       19.975319   0.000000
   21       20.196149   0.000000
   22       21.005862   0.000000
   23       21.134414   0.000000
   24       21.167262   0.000000
 
  0.4642857E+00  0.1071429E+00  0.3571429E-01  0.1749271E-01
    1       -8.392944   1.000000
    2       -7.743226   1.000000
    3       -2.046414   1.000000
    4       -1.804466   1.000000
    5       -0.287271   1.000000
    6       -0.060853   1.000000
    7        2.131281   1.000000
    8        2.336491   1.000000
    9        3.772349   1.000000
   10        3.936015   1.000000
   11        5.375419   1.000000
   12        6.154572   1.000000
   13        6.477913   1.000000
   14        7.095363   1.000000
   15        7.125896   1.000000
   16        7.991602   1.000000
   17       16.065852   0.000000
   18       16.245360   0.000000
   19       20.349444   0.000000
   20       21.028171   0.000000
   21       21.284101   0.000000
   22       21.712110   0.000000
   23       22.037886   0.000000
   24       22.284479   0.000000
 
  0.1785714E+00  0.1785714E+00  0.3571429E-01  0.8746356E-02
    1       -9.895679   1.000000
    2       -4.158634   1.000000
    3       -4.158634   1.000000
    4       -1.941550   1.000000
    5       -0.831350   1.000000
    6        1.269173   1.000000
    7        1.269173   1.000000
    8        2.624030   1.000000
    9        4.231048   1.000000
   10        4.231048   1.000000
   11        4.856876   1.000000
   12        4.856876   1.000000
   13        5.285096   1.000000
   14        8.478065   1.000000
   15        9.335122   1.000000
   16       10.750609   1.000000
   17       16.444380   0.000000
   18       16.571815   0.000000
   19       16.571815   0.000000
   20       17.449895   0.000000
   21       18.312108   0.000000
   22       18.384466   0.000000
   23       18.384466   0.000000
   24       18.655728   0.000000
 
  0.2500000E+00  0.1785714E+00  0.3571429E-01  0.1749271E-01
    1       -9.612325   1.000000
    2       -5.121095   1.000000
    3       -3.922923   1.000000
    4       -1.887194   1.000000
    5       -0.723240   1.000000
    6        1.182612   1.000000
    7        2.143359   1.000000
    8        2.299107   1.000000
    9        3.756308   1.000000
   10        4.568309   1.000000
   11        4.633756   1.000000
   12        5.252735   1.000000
   13        5.373384   1.000000
   14        7.716736   1.000000
   15        8.674543   1.000000
   16       10.464476   1.000000
   17       16.536110   0.000000
   18       16.822954   0.000000
   19       17.483070   0.000000
   20       17.532204   0.000000
   21       19.042860   0.000000
   22       19.044507   0.000000
   23       19.199873   0.000000
   24       19.323616   0.000000
 
  0.3214286E+00  0.1785714E+00  0.3571429E-01  0.1749271E-01
    1       -9.235743   1.000000
    2       -6.012949   1.000000
    3       -3.618918   1.000000
    4       -1.930755   1.000000
    5       -0.564358   1.000000
    6        0.998696   1.000000
    7        1.874901   1.000000
    8        3.218070   1.000000
    9        3.270603   1.000000
   10        4.482456   1.000000
   11        4.992862   1.000000
   12        5.280593   1.000000
   13        5.838374   1.000000
   14        6.951096   1.000000
   15        7.976545   1.000000
   16        9.936842   1.000000
   17       16.564478   0.000000
   18       17.336567   0.000000
   19       17.538709   0.000000
   20       18.680104   0.000000
   21       19.842063   0.000000
   22       19.897448   0.000000
   23       20.042023   0.000000
   24       20.382860   0.000000
 
  0.3928571E+00  0.1785714E+00  0.3571429E-01  0.1749271E-01
    1       -8.767134   1.000000
    2       -6.827740   1.000000
    3       -3.258643   1.000000
    4       -2.133152   1.000000
    5       -0.323506   1.000000
    6        0.711715   1.000000
    7        1.852855   1.000000
    8        2.800871   1.000000
    9        4.022229   1.000000
   10        4.472375   1.000000
   11        5.072389   1.000000
   12        5.482990   1.000000
   13        6.200927   1.000000
   14        6.608355   1.000000
   15        7.287833   1.000000
   16        9.223861   1.000000
   17       16.650921   0.000000
   18       17.147626   0.000000
   19       18.509961   0.000000
   20       19.934680   0.000000
   21       20.704120   0.000000
   22       20.768392   0.000000
   23       21.137715   0.000000
   24       21.232745   0.000000
 
  0.4642857E+00  0.1785714E+00  0.3571429E-01  0.1749271E-01
    1       -8.208092   1.000000
    2       -7.560686   1.000000
    3       -2.862989   1.000000
    4       -2.468085   1.000000
    5       -0.003300   1.000000
    6        0.359091   1.000000
    7        2.041825   1.000000
    8        2.377011   1.000000
    9        4.601782   1.000000
   10        4.756299   1.000000
   11        4.822884   1.000000
   12        5.472393   1.000000
   13        6.030779   1.000000
   14        6.634484   1.000000
   15        7.488733   1.000000
   16        8.386170   1.000000
   17       16.785787   0.000000
   18       16.956608   0.000000
   19       19.627295   0.000000
   20       20.643078   0.000000
   21       21.457080   0.000000
   22       21.575135   0.000000
   23       21.786809   0.000000
   24       22.268140   0.000000
 
  0.2500000E+00  0.2500000E+00  0.3571429E-01  0.8746356E-02
    1       -9.329955   1.000000
    2       -4.870820   1.000000
    3       -4.870820   1.000000
    4       -2.010852   1.000000
    5       -0.600556   1.000000
    6        1.794578   1.000000
    7        2.036930   1.000000
    8        2.036930   1.000000
    9        4.083138   1.000000
   10        4.083138   1.000000
   11        5.192031   1.000000
   12        5.192031   1.000000
   13        5.739750   1.000000
   14        6.958520   1.000000
   15        8.039184   1.000000
   16       10.375618   1.000000
   17       16.895680   0.000000
   18       17.507899   0.000000
   19       17.507899   0.000000
   20       18.004588   0.000000
   21       19.309202   0.000000
   22       19.439448   0.000000
   23       19.925104   0.000000
   24       19.925104   0.000000
 
  0.3214286E+00  0.2500000E+00  0.3571429E-01  0.1749271E-01
    1       -8.954829   1.000000
    2       -5.752635   1.000000
    3       -4.543900   1.000000
    4       -2.298809   1.000000
    5       -0.385625   1.000000
    6        1.666815   1.000000
    7        1.702852   1.000000
    8        2.776527   1.000000
    9        3.559939   1.000000
   10        4.481479   1.000000
   11        5.222463   1.000000
   12        5.895578   1.000000
   13        5.957386   1.000000
   14        6.203710   1.000000
   15        7.362762   1.000000
   16       10.021991   1.000000
   17       17.332946   0.000000
   18       17.538175   0.000000
   19       18.121507   0.000000
   20       18.661131   0.000000
   21       19.830346   0.000000
   22       20.082516   0.000000
   23       20.647877   0.000000
   24       20.852142   0.000000
 
  0.3928571E+00  0.2500000E+00  0.3571429E-01  0.1749271E-01
    1       -8.488222   1.000000
    2       -6.560364   1.000000
    3       -4.147937   1.000000
    4       -2.722444   1.000000
    5       -0.072535   1.000000
    6        1.226124   1.000000
    7        1.838216   1.000000
    8        3.037855   1.000000
    9        3.446729   1.000000
   10        4.944522   1.000000
   11        5.346954   1.000000
   12        5.471231   1.000000
   13        5.870404   1.000000
   14        6.692605   1.000000
   15        6.853432   1.000000
   16        9.434803   1.000000
   17       17.618236   0.000000
   18       18.027857   0.000000
   19       18.087319   0.000000
   20       19.913007   0.000000
   21       20.361250   0.000000
   22       21.116918   0.000000
   23       21.127709   0.000000
   24       21.435387   0.000000
 
  0.4642857E+00  0.2500000E+00  0.3571429E-01  0.1749271E-01
    1       -7.931886   1.000000
    2       -7.288203   1.000000
    3       -3.695533   1.000000
    4       -3.208039   1.000000
    5        0.319400   1.000000
    6        0.763121   1.000000
    7        2.139250   1.000000
    8        2.552561   1.000000
    9        4.100232   1.000000
   10        4.770340   1.000000
   11        5.470800   1.000000
   12        5.531617   1.000000
   13        5.726368   1.000000
   14        6.056532   1.000000
   15        7.784472   1.000000
   16        8.668133   1.000000
   17       17.738157   0.000000
   18       17.882673   0.000000
   19       19.068373   0.000000
   20       20.130536   0.000000
   21       20.994026   0.000000
   22       21.338815   0.000000
   23       21.627747   0.000000
   24       22.259494   0.000000
 
  0.3214286E+00  0.3214286E+00  0.3571429E-01  0.8746356E-02
    1       -8.581792   1.000000
    2       -5.410287   1.000000
    3       -5.410287   1.000000
    4       -2.807388   1.000000
    5       -0.107995   1.000000
    6        1.767390   1.000000
    7        2.262634   1.000000
    8        2.262634   1.000000
    9        3.923485   1.000000
   10        3.923485   1.000000
   11        5.463967   1.000000
   12        6.118738   1.000000
   13        6.118738   1.000000
   14        6.318789   1.000000
   15        6.705599   1.000000
   16        9.859396   1.000000
   17       17.471457   0.000000
   18       18.684797   0.000000
   19       18.684797   0.000000
   20       18.736761   0.000000
   21       19.873343   0.000000
   22       20.409307   0.000000
   23       21.273441   0.000000
   24       21.273441   0.000000
 
  0.3928571E+00  0.3214286E+00  0.3571429E-01  0.1749271E-01
    1       -8.118103   1.000000
    2       -6.207322   1.000000
    3       -4.990980   1.000000
    4       -3.381147   1.000000
    5        0.257464   1.000000
    6        1.721980   1.000000
    7        2.009752   1.000000
    8        2.841306   1.000000
    9        3.365121   1.000000
   10        4.359774   1.000000
   11        4.750450   1.000000
   12        6.052890   1.000000
   13        6.299204   1.000000
   14        6.530898   1.000000
   15        7.070765   1.000000
   16        9.443457   1.000000
   17       17.953668   0.000000
   18       18.746207   0.000000
   19       18.940813   0.000000
   20       19.915268   0.000000
   21       20.060940   0.000000
   22       20.758745   0.000000
   23       21.217511   0.000000
   24       21.243338   0.000000
 
  0.4642857E+00  0.3214286E+00  0.3571429E-01  0.1749271E-01
    1       -7.565755   1.000000
    2       -6.927583   1.000000
    3       -4.502800   1.000000
    4       -3.958832   1.000000
    5        0.695889   1.000000
    6        1.190805   1.000000
    7        2.379553   1.000000
    8        2.840902   1.000000
    9        3.439444   1.000000
   10        4.074309   1.000000
   11        4.865344   1.000000
   12        5.433488   1.000000
   13        6.462742   1.000000
   14        6.559876   1.000000
   15        7.990579   1.000000
   16        8.803205   1.000000
   17       18.725205   0.000000
   18       18.832022   0.000000
   19       18.916875   0.000000
   20       19.683830   0.000000
   21       20.390492   0.000000
   22       20.823722   0.000000
   23       21.270916   0.000000
   24       22.291786   0.000000
 
  0.3928571E+00  0.3928571E+00  0.3571429E-01  0.8746356E-02
    1       -7.658487   1.000000
    2       -5.772210   1.000000
    3       -5.772210   1.000000
    4       -4.046807   1.000000
    5        0.661862   1.000000
    6        2.238943   1.000000
    7        2.238943   1.000000
    8        2.318669   1.000000
    9        3.775520   1.000000
   10        3.775520   1.000000
   11        4.057001   1.000000
   12        5.416214   1.000000
   13        6.996355   1.000000
   14        7.236039   1.000000
   15        7.236039   1.000000
   16        9.219635   1.000000
   17       18.142070   0.000000
   18       19.636015   0.000000
   19       19.876183   0.000000
   20       19.930598   0.000000
   21       19.930598   0.000000
   22       20.362395   0.000000
   23       20.362395   0.000000
   24       21.608406   0.000000
 
  0.4642857E+00  0.3928571E+00  0.3571429E-01  0.1749271E-01
    1       -7.111818   1.000000
    2       -6.481468   1.000000
    3       -5.260534   1.000000
    4       -4.680854   1.000000
    5        1.133710   1.000000
    6        1.663728   1.000000
    7        2.731606   1.000000
    8        2.797038   1.000000
    9        3.224548   1.000000
   10        3.403428   1.000000
   11        4.261179   1.000000
   12        4.812482   1.000000
   13        7.248271   1.000000
   14        7.311733   1.000000
   15        8.077817   1.000000
   16        8.756229   1.000000
   17       18.643637   0.000000
   18       19.397464   0.000000
   19       19.839807   0.000000
   20       19.916608   0.000000
   21       19.942921   0.000000
   22       20.079645   0.000000
   23       21.200697   0.000000
   24       22.299311   0.000000
 
  0.4642857E+00  0.4642857E+00  0.3571429E-01  0.8746356E-02
    1       -6.573058   1.000000
    2       -5.953841   1.000000
    3       -5.953841   1.000000
    4       -5.350625   1.000000
    5        1.633405   1.000000
    6        2.190741   1.000000
    7        2.190741   1.000000
    8        2.772354   1.000000
    9        3.174172   1.000000
   10        3.690059   1.000000
   11        3.690059   1.000000
   12        4.224417   1.000000
   13        7.736847   1.000000
   14        8.006724   1.000000
   15        8.006724   1.000000
   16        8.495194   1.000000
   17       18.848349   0.000000
   18       19.323167   0.000000
   19       19.323167   0.000000
   20       19.481871   0.000000
   21       20.685255   0.000000
   22       21.057405   0.000000
   23       21.057405   0.000000
   24       21.859181   0.000000
 
  0.1071429E+00  0.1071429E+00  0.1071429E+00  0.2915452E-02
    1      -10.179848   1.000000
    2       -3.209011   1.000000
    3       -3.209011   1.000000
    4       -3.209011   1.000000
    5        0.138672   1.000000
    6        0.138672   1.000000
    7        0.138672   1.000000
    8        3.933826   1.000000
    9        3.933826   1.000000
   10        3.933826   1.000000
   11        5.064087   1.000000
   12        5.064087   1.000000
   13        5.064087   1.000000
   14        9.265880   1.000000
   15       10.655122   1.000000
   16       10.655122   1.000000
   17       16.081057   0.000000
   18       16.081057   0.000000
   19       16.081057   0.000000
   20       17.478070   0.000000
   21       17.478070   0.000000
   22       17.715870   0.000000
   23       17.715870   0.000000
   24       17.715871   0.000000
 
  0.1785714E+00  0.1071429E+00  0.1071429E+00  0.8746356E-02
    1       -9.990321   1.000000
    2       -4.239231   1.000000
    3       -3.067403   1.000000
    4       -3.067403   1.000000
    5        0.157411   1.000000
    6        0.157411   1.000000
    7        1.262511   1.000000
    8        3.402395   1.000000
    9        3.402395   1.000000
   10        4.202604   1.000000
   11        5.080425   1.000000
   12        5.080425   1.000000
   13        5.245682   1.000000
   14        8.529773   1.000000
   15       10.098543   1.000000
   16       10.582090   1.000000
   17       16.042407   0.000000
   18       16.448491   0.000000
   19       16.448491   0.000000
   20       17.371189   0.000000
   21       18.169024   0.000000
   22       18.182113   0.000000
   23       18.359446   0.000000
   24       18.644638   0.000000
 
  0.2500000E+00  0.1071429E+00  0.1071429E+00  0.8746356E-02
    1       -9.706656   1.000000
    2       -5.205769   1.000000
    3       -2.866139   1.000000
    4       -2.866139   1.000000
    5        0.138356   1.000000
    6        0.138356   1.000000
    7        2.322877   1.000000
    8        2.941436   1.000000
    9        2.941436   1.000000
   10        4.638947   1.000000
   11        4.925060   1.000000
   12        4.925060   1.000000
   13        5.515848   1.000000
   14        7.755374   1.000000
   15        9.433450   1.000000
   16       10.224333   1.000000
   17       16.045570   0.000000
   18       17.134370   0.000000
   19       17.134370   0.000000
   20       17.196979   0.000000
   21       18.818988   0.000000
   22       19.035081   0.000000
   23       19.081812   0.000000
   24       19.769985   0.000000
 
  0.3214286E+00  0.1071429E+00  0.1071429E+00  0.8746356E-02
    1       -9.329627   1.000000
    2       -6.100535   1.000000
    3       -2.624147   1.000000
    4       -2.624147   1.000000
    5        0.037874   1.000000
    6        0.037874   1.000000
    7        2.633517   1.000000
    8        2.633517   1.000000
    9        3.262746   1.000000
   10        4.671010   1.000000
   11        4.671010   1.000000
   12        5.276360   1.000000
   13        5.872304   1.000000
   14        6.980635   1.000000
   15        8.736567   1.000000
   16        9.632258   1.000000
   17       16.101899   0.000000
   18       16.988944   0.000000
   19       18.082568   0.000000
   20       18.082568   0.000000
   21       19.610475   0.000000
   22       19.967967   0.000000
   23       19.998557   0.000000
   24       20.994368   0.000000
 
  0.3928571E+00  0.1071429E+00  0.1071429E+00  0.8746356E-02
    1       -8.860390   1.000000
    2       -6.917441   1.000000
    3       -2.380585   1.000000
    4       -2.380585   1.000000
    5       -0.138649   1.000000
    6       -0.138649   1.000000
    7        2.501810   1.000000
    8        2.501810   1.000000
    9        4.067170   1.000000
   10        4.409558   1.000000
   11        4.409558   1.000000
   12        6.103917   1.000000
   13        6.226465   1.000000
   14        6.310918   1.000000
   15        8.053324   1.000000
   16        8.866292   1.000000
   17       16.210640   0.000000
   18       16.769016   0.000000
   19       19.202938   0.000000
   20       19.202938   0.000000
   21       20.544120   0.000000
   22       20.957522   0.000000
   23       21.013291   0.000000
   24       22.113148   0.000000
 
  0.4642857E+00  0.1071429E+00  0.1071429E+00  0.8746356E-02
    1       -8.300483   1.000000
    2       -7.651935   1.000000
    3       -2.211786   1.000000
    4       -2.211786   1.000000
    5       -0.291439   1.000000
    6       -0.291439   1.000000
    7        2.479564   1.000000
    8        2.479564   1.000000
    9        4.239161   1.000000
   10        4.239161   1.000000
   11        4.791329   1.000000
   12        5.499674   1.000000
   13        6.826335   1.000000
   14        7.038159   1.000000
   15        7.410962   1.000000
   16        7.982770   1.000000
   17       16.365367   0.000000
   18       16.555904   0.000000
   19       20.320537   0.000000
   20       20.320537   0.000000
   21       21.596540   0.000000
   22       22.003296   0.000000
   23       22.016296   0.000000
   24       22.043504   0.000000
 
  0.1785714E+00  0.1785714E+00  0.1071429E+00  0.8746356E-02
    1       -9.801194   1.000000
    2       -4.082002   1.000000
    3       -4.082002   1.000000
    4       -2.940930   1.000000
    5        0.098714   1.000000
    6        1.163344   1.000000
    7        1.163344   1.000000
    8        2.876197   1.000000
    9        3.761852   1.000000
   10        3.761852   1.000000
   11        5.270175   1.000000
   12        5.270175   1.000000
   13        5.372817   1.000000
   14        7.766066   1.000000
   15        9.779676   1.000000
   16       10.483822   1.000000
   17       16.473421   0.000000
   18       16.473421   0.000000
   19       16.488104   0.000000
   20       17.757736   0.000000