       N       E                     dE             d eps       ncg     rms          rms(c)
DAV:   1     0.102058859319E+03    0.10206E+03   -0.26127E+04  4032   0.200E+03
DAV:   2    -0.726505412126E+02   -0.17471E+03   -0.17215E+03  6528   0.226E+02
DAV:   3    -0.753965384287E+02   -0.27460E+01   -0.27460E+01  4632   0.402E+01
DAV:   4    -0.754154590187E+02   -0.18921E-01   -0.18921E-01  7464   0.254E+00
DAV:   5    -0.754154630401E+02   -0.40213E-05   -0.40213E-05  4608   0.378E-02    0.170E+01
DAV:   6    -0.734749975857E+02    0.19405E+01   -0.14577E+00  4824   0.648E+00    0.112E+01
DAV:   7    -0.728250382630E+02    0.64996E+00   -0.18847E+00  5760   0.743E+00    0.241E+00
DAV:   8    -0.728231973081E+02    0.18410E-02   -0.24985E-02  6552   0.121E+00    0.120E-01
DAV:   9    -0.728233626979E+02   -0.16539E-03   -0.46028E-04  5832   0.143E-01    0.615E-02
DAV:  10    -0.728234832379E+02   -0.12054E-03   -0.11149E-04  6120   0.843E-02    0.491E-03
DAV:  11    -0.728234844473E+02   -0.12094E-05   -0.17937E-06  6216   0.106E-02    0.301E-03
DAV:  12    -0.728234847912E+02   -0.34388E-06   -0.61634E-08  6096   0.228E-03    0.154E-04
DAV:  13    -0.728234848007E+02   -0.95279E-08   -0.11399E-10  6312   0.836E-05
   1 F= -.72823485E+02 E0= -.72823485E+02  d E =-.728235E+02
