 vasp.5.4.4.18Apr17-6-g9f103f2a35 (build Jan 14 2019 14:48:31) complex          
  
 executed on             LinuxIFC date 2019.08.26  21:13:34
 running on   24 total cores
 distrk:  each k-point on   24 cores,    1 groups
 distr:  one band on NCORES_PER_BAND=   1 cores,   24 groups


--------------------------------------------------------------------------------------------------------


 INCAR:
 POTCAR:    PAW_PBE C_h 06Feb2004                 

 ----------------------------------------------------------------------------- 
|                                                                             |
|           W    W    AA    RRRRR   N    N  II  N    N   GGGG   !!!           |
|           W    W   A  A   R    R  NN   N  II  NN   N  G    G  !!!           |
|           W    W  A    A  R    R  N N  N  II  N N  N  G       !!!           |
|           W WW W  AAAAAA  RRRRR   N  N N  II  N  N N  G  GGG   !            |
|           WW  WW  A    A  R   R   N   NN  II  N   NN  G    G                |
|           W    W  A    A  R    R  N    N  II  N    N   GGGG   !!!           |
|                                                                             |
|      For optimal performance we recommend to set                            |
|        NCORE= 4 - approx SQRT( number of cores)                             |
|      NCORE specifies how many cores store one orbital (NPAR=cpu/NCORE).     |
|      This setting can  greatly improve the performance of VASP for DFT.     |
|      The default,   NCORE=1            might be grossly inefficient         |
|      on modern multi-core architectures or massively parallel machines.     |
|      Do your own testing !!!!                                               |
|      Unfortunately you need to use the default for GW and RPA calculations. |
|      (for HF NCORE is supported but not extensively tested yet)             |
|                                                                             |
 ----------------------------------------------------------------------------- 

 POTCAR:    PAW_PBE C_h 06Feb2004                 
   VRHFIN =C: s2p2                                                              
   LEXCH  = PE                                                                  
   EATOM  =   147.1560 eV,   10.8157 Ry                                         
                                                                                
   TITEL  = PAW_PBE C_h 06Feb2004                                               
   LULTRA =        F    use ultrasoft PP ?                                      
   IUNSCR =        1    unscreen: 0-lin 1-nonlin 2-no                           
   RPACOR =    0.800    partial core radius                                     
   POMASS =   12.011; ZVAL   =    4.000    mass and valenz                      
   RCORE  =    1.100    outmost cutoff radius                                   
   RWIGS  =    1.630; RWIGS  =    0.863    wigner-seitz radius (au A)           
   ENMAX  =  700.000; ENMIN  =  500.000 eV                                      
   ICORE  =        2    local potential                                         
   LCOR   =        T    correct aug charges                                     
   LPAW   =        T    paw PP                                                  
   EAUG   =  946.768                                                            
   DEXC   =    0.000                                                            
   RMAX   =    1.128    core radius for proj-oper                               
   RAUG   =    1.300    factor for augmentation sphere                          
   RDEP   =    1.162    radius for radial grids                                 
   RDEPT  =    1.088    core radius for aug-charge                              
                                                                                
   Atomic configuration                                                         
    4 entries                                                                   
     n  l   j            E        occ.                                          
     1  0  0.50      -273.3789   2.0000                                         
     2  0  0.50       -13.7508   2.0000                                         
     2  1  0.50        -5.2854   2.0000                                         
     3  2  1.50        -5.4423   0.0000                                         
   Description                                                                  
     l       E           TYP  RCUT    TYP  RCUT                                 
     0    -13.7508458     23  1.100                                             
     0     -8.2022199     23  1.100                                             
     1     -5.2854383     23  1.100                                             
     1      1.1560700     23  1.100                                             
     2     -5.4423304      7  1.100                                             
  local pseudopotential read in
  partial core-charges read in
  partial kinetic energy density read in
  atomic valenz-charges read in
  non local Contribution for L=           0  read in
    real space projection operators read in
  non local Contribution for L=           0  read in
    real space projection operators read in
  non local Contribution for L=           1  read in
    real space projection operators read in
  non local Contribution for L=           1  read in
    real space projection operators read in
    PAW grid and wavefunctions read in
 
   number of l-projection  operators is LMAX  =           4
   number of lm-projection operators is LMMAX =           8
 
  PAW_PBE C_h 06Feb2004                 :
 energy of atom  1       EATOM= -147.1560
 kinetic energy error for atom=    0.0044 (will be added to EATOM!!)
 
 
 POSCAR: C8                                      
  positions in direct lattice
  velocities in cartesian coordinates
 exchange correlation table for  LEXCH =        8
   RHO(1)=    0.500       N(1)  =     2000
   RHO(2)=  100.500       N(2)  =     4000

 VTST: version 3.1, (03/28/14)

 CHAIN: initializing optimizer
 
 OPT: Using VASP Conjugate-Gradient optimizer
 CHAIN: Read ICHAIN            0
 
 POSCAR: C8                                      
  positions in direct lattice
  velocities in cartesian coordinates
 


--------------------------------------------------------------------------------------------------------


 ion  position               nearest neighbor table
   1  0.250  0.250  0.250-   2 1.54   4 1.54   6 1.54   8 1.54
   2  0.000  0.000  0.000-   1 1.54   3 1.54   5 1.54   7 1.54
   3  0.250  0.750  0.750-   2 1.54   4 1.54   6 1.54   8 1.54
   4  0.000  0.500  0.500-   1 1.54   3 1.54   5 1.54   7 1.54
   5  0.750  0.250  0.750-   2 1.54   4 1.54   6 1.54   8 1.54
   6  0.500  0.000  0.500-   1 1.54   3 1.54   5 1.54   7 1.54
   7  0.750  0.750  0.250-   2 1.54   4 1.54   6 1.54   8 1.54
   8  0.500  0.500  0.000-   1 1.54   3 1.54   5 1.54   7 1.54
 
  LATTYP: Found a simple cubic cell.
 ALAT       =     3.5497810372
  
  Lattice vectors:
  
 A1 = (   3.5497810372,   0.0000000000,   0.0000000000)
 A2 = (   0.0000000000,   3.5497810372,   0.0000000000)
 A3 = (   0.0000000000,   0.0000000000,   3.5497810372)


Analysis of symmetry for initial positions (statically):
=====================================================================
 Subroutine PRICEL returns following result:
 
  LATTYP: Found a face centered cubic cell.
 ALAT       =     3.5497810372
  
  Lattice vectors:
  
 A1 = (   1.7748905186,   1.7748905186,  -0.0000000000)
 A2 = (   1.7748905186,   0.0000000000,  -1.7748905186)
 A3 = (   0.0000000000,   1.7748905186,  -1.7748905186)
 
   4 primitive cells build up your supercell.
 

 Routine SETGRP: Setting up the symmetry group for a 
 simple cubic supercell.


 Subroutine GETGRP returns: Found 48 space group operations
 (whereof 24 operations were pure point group operations)
 out of a pool of 48 trial point group operations.


The static configuration has the point symmetry T_d .
 The point group associated with its full space group is O_h .


Analysis of symmetry for dynamics (positions and initial velocities):
=====================================================================
 Subroutine PRICEL returns following result:
 
  LATTYP: Found a face centered cubic cell.
 ALAT       =     3.5497810372
  
  Lattice vectors:
  
 A1 = (   1.7748905186,   1.7748905186,  -0.0000000000)
 A2 = (   1.7748905186,   0.0000000000,  -1.7748905186)
 A3 = (   0.0000000000,   1.7748905186,  -1.7748905186)
 
   4 primitive cells build up your supercell.
 

 Routine SETGRP: Setting up the symmetry group for a 
 simple cubic supercell.


 Subroutine GETGRP returns: Found 48 space group operations
 (whereof 24 operations were pure point group operations)
 out of a pool of 48 trial point group operations.


The dynamic configuration has the point symmetry T_d .
 The point group associated with its full space group is O_h .


 Subroutine INISYM returns: Found 48 space group operations
 (whereof 24 operations are pure point group operations),
 and found     4 'primitive' translations

 
 
 KPOINTS: K-Mesh Generated with KP-Resolved Value 

Automatic generation of k-mesh.
Space group operators:
 irot       det(A)        alpha          n_x          n_y          n_z        tau_x        tau_y        tau_z
    1     1.000000     0.000000     1.000000     0.000000     0.000000     0.000000     0.000000     0.000000
    2     1.000000   120.000000    -0.577350    -0.577350    -0.577350     0.000000     0.000000     0.000000
    3     1.000000   120.000000     0.577350     0.577350     0.577350     0.000000     0.000000     0.000000
    4    -1.000000    90.000000     0.000000     0.000000    -1.000000     0.000000     0.000000     0.000000
    5    -1.000000   180.000000     0.000000     0.707107     0.707107     0.000000     0.000000     0.000000
    6    -1.000000    90.000000     0.000000     1.000000     0.000000     0.000000     0.000000     0.000000
    7     1.000000   180.000000     0.000000     0.000000     1.000000     0.000000     0.000000     0.000000
    8     1.000000   120.000000    -0.577350     0.577350     0.577350     0.000000     0.000000     0.000000
    9     1.000000   120.000000    -0.577350     0.577350    -0.577350     0.000000     0.000000     0.000000
   10    -1.000000    90.000000     0.000000     0.000000     1.000000     0.000000     0.000000     0.000000
   11    -1.000000    90.000000    -1.000000     0.000000     0.000000     0.000000     0.000000     0.000000
   12    -1.000000   180.000000     0.707107     0.000000     0.707107     0.000000     0.000000     0.000000
   13     1.000000   120.000000     0.577350    -0.577350     0.577350     0.000000     0.000000     0.000000
   14     1.000000   120.000000    -0.577350    -0.577350     0.577350     0.000000     0.000000     0.000000
   15     1.000000   180.000000     1.000000     0.000000     0.000000     0.000000     0.000000     0.000000
   16    -1.000000    90.000000     0.000000    -1.000000     0.000000     0.000000     0.000000     0.000000
   17    -1.000000   180.000000     0.707107     0.707107     0.000000     0.000000     0.000000     0.000000
   18    -1.000000    90.000000     1.000000     0.000000     0.000000     0.000000     0.000000     0.000000
   19     1.000000   120.000000     0.577350    -0.577350    -0.577350     0.000000     0.000000     0.000000
   20     1.000000   180.000000     0.000000     1.000000     0.000000     0.000000     0.000000     0.000000
   21     1.000000   120.000000     0.577350     0.577350    -0.577350     0.000000     0.000000     0.000000
   22    -1.000000   180.000000     0.000000    -0.707107     0.707107     0.000000     0.000000     0.000000
   23    -1.000000   180.000000     0.707107    -0.707107     0.000000     0.000000     0.000000     0.000000
   24    -1.000000   180.000000     0.707107     0.000000    -0.707107     0.000000     0.000000     0.000000
   25    -1.000000     0.000000     1.000000     0.000000     0.000000     0.750000     0.750000    -0.750000
   26    -1.000000   120.000000    -0.577350    -0.577350    -0.577350     0.750000     0.750000    -0.750000
   27    -1.000000   120.000000     0.577350     0.577350     0.577350     0.750000     0.750000    -0.750000
   28     1.000000    90.000000     0.000000     0.000000    -1.000000     0.750000     0.750000    -0.750000
   29     1.000000   180.000000     0.000000     0.707107     0.707107     0.750000     0.750000    -0.750000
   30     1.000000    90.000000     0.000000     1.000000     0.000000     0.750000     0.750000    -0.750000
   31    -1.000000   180.000000     0.000000     0.000000     1.000000     0.750000     0.750000    -0.750000
   32    -1.000000   120.000000    -0.577350     0.577350     0.577350     0.750000     0.750000    -0.750000
   33    -1.000000   120.000000    -0.577350     0.577350    -0.577350     0.750000     0.750000    -0.750000
   34     1.000000    90.000000     0.000000     0.000000     1.000000     0.750000     0.750000    -0.750000
   35     1.000000    90.000000    -1.000000     0.000000     0.000000     0.750000     0.750000    -0.750000
   36     1.000000   180.000000     0.707107     0.000000     0.707107     0.750000     0.750000    -0.750000
   37    -1.000000   120.000000     0.577350    -0.577350     0.577350     0.750000     0.750000    -0.750000
   38    -1.000000   120.000000    -0.577350    -0.577350     0.577350     0.750000     0.750000    -0.750000
   39    -1.000000   180.000000     1.000000     0.000000     0.000000     0.750000     0.750000    -0.750000
   40     1.000000    90.000000     0.000000    -1.000000     0.000000     0.750000     0.750000    -0.750000
   41     1.000000   180.000000     0.707107     0.707107     0.000000     0.750000     0.750000    -0.750000
   42     1.000000    90.000000     1.000000     0.000000     0.000000     0.750000     0.750000    -0.750000
   43    -1.000000   120.000000     0.577350    -0.577350    -0.577350     0.750000     0.750000    -0.750000
   44    -1.000000   180.000000     0.000000     1.000000     0.000000     0.750000     0.750000    -0.750000
   45    -1.000000   120.000000     0.577350     0.577350    -0.577350     0.750000     0.750000    -0.750000
   46     1.000000   180.000000     0.000000    -0.707107     0.707107     0.750000     0.750000    -0.750000
   47     1.000000   180.000000     0.707107    -0.707107     0.000000     0.750000     0.750000    -0.750000
   48     1.000000   180.000000     0.707107     0.000000    -0.707107     0.750000     0.750000    -0.750000
 
 Subroutine IBZKPT returns following result:
 ===========================================
 
 Found     84 irreducible k-points:
 
 Following reciprocal coordinates:
            Coordinates               Weight
  0.035714  0.035714  0.035714      8.000000
  0.107143  0.035714  0.035714     24.000000
  0.178571  0.035714  0.035714     24.000000
  0.250000  0.035714  0.035714     24.000000
  0.321429  0.035714  0.035714     24.000000
  0.392857  0.035714  0.035714     24.000000
  0.464286  0.035714  0.035714     24.000000
  0.107143  0.107143  0.035714     24.000000
  0.178571  0.107143  0.035714     48.000000
  0.250000  0.107143  0.035714     48.000000
  0.321429  0.107143  0.035714     48.000000
  0.392857  0.107143  0.035714     48.000000
  0.464286  0.107143  0.035714     48.000000
  0.178571  0.178571  0.035714     24.000000
  0.250000  0.178571  0.035714     48.000000
  0.321429  0.178571  0.035714     48.000000
  0.392857  0.178571  0.035714     48.000000
  0.464286  0.178571  0.035714     48.000000
  0.250000  0.250000  0.035714     24.000000
  0.321429  0.250000  0.035714     48.000000
  0.392857  0.250000  0.035714     48.000000
  0.464286  0.250000  0.035714     48.000000
  0.321429  0.321429  0.035714     24.000000
  0.392857  0.321429  0.035714     48.000000
  0.464286  0.321429  0.035714     48.000000
  0.392857  0.392857  0.035714     24.000000
  0.464286  0.392857  0.035714     48.000000
  0.464286  0.464286  0.035714     24.000000
  0.107143  0.107143  0.107143      8.000000
  0.178571  0.107143  0.107143     24.000000
  0.250000  0.107143  0.107143     24.000000
  0.321429  0.107143  0.107143     24.000000
  0.392857  0.107143  0.107143     24.000000
  0.464286  0.107143  0.107143     24.000000
  0.178571  0.178571  0.107143     24.000000
  0.250000  0.178571  0.107143     48.000000
  0.321429  0.178571  0.107143     48.000000
  0.392857  0.178571  0.107143     48.000000
  0.464286  0.178571  0.107143     48.000000
  0.250000  0.250000  0.107143     24.000000
  0.321429  0.250000  0.107143     48.000000
  0.392857  0.250000  0.107143     48.000000
  0.464286  0.250000  0.107143     48.000000
  0.321429  0.321429  0.107143     24.000000
  0.392857  0.321429  0.107143     48.000000
  0.464286  0.321429  0.107143     48.000000
  0.392857  0.392857  0.107143     24.000000
  0.464286  0.392857  0.107143     48.000000
  0.464286  0.464286  0.107143     24.000000
  0.178571  0.178571  0.178571      8.000000
  0.250000  0.178571  0.178571     24.000000
  0.321429  0.178571  0.178571     24.000000
  0.392857  0.178571  0.178571     24.000000
  0.464286  0.178571  0.178571     24.000000
  0.250000  0.250000  0.178571     24.000000
  0.321429  0.250000  0.178571     48.000000
  0.392857  0.250000  0.178571     48.000000
  0.464286  0.250000  0.178571     48.000000
  0.321429  0.321429  0.178571     24.000000
  0.392857  0.321429  0.178571     48.000000
  0.464286  0.321429  0.178571     48.000000
  0.392857  0.392857  0.178571     24.000000
  0.464286  0.392857  0.178571     48.000000
  0.464286  0.464286  0.178571     24.000000
  0.250000  0.250000  0.250000      8.000000
  0.321429  0.250000  0.250000     24.000000
  0.392857  0.250000  0.250000     24.000000
  0.464286  0.250000  0.250000     24.000000
  0.321429  0.321429  0.250000     24.000000
  0.392857  0.321429  0.250000     48.000000
  0.464286  0.321429  0.250000     48.000000
  0.392857  0.392857  0.250000     24.000000
  0.464286  0.392857  0.250000     48.000000
  0.464286  0.464286  0.250000     24.000000
  0.321429  0.321429  0.321429      8.000000
  0.392857  0.321429  0.321429     24.000000
  0.464286  0.321429  0.321429     24.000000
  0.392857  0.392857  0.321429     24.000000
  0.464286  0.392857  0.321429     48.000000
  0.464286  0.464286  0.321429     24.000000
  0.392857  0.392857  0.392857      8.000000
  0.464286  0.392857  0.392857     24.000000
  0.464286  0.464286  0.392857     24.000000
  0.464286  0.464286  0.464286      8.000000
 
 Following cartesian coordinates:
            Coordinates               Weight
  0.010061  0.010061  0.010061      8.000000
  0.030183  0.010061  0.010061     24.000000
  0.050305  0.010061  0.010061     24.000000
  0.070427  0.010061  0.010061     24.000000
  0.090549  0.010061  0.010061     24.000000
  0.110671  0.010061  0.010061     24.000000
  0.130793  0.010061  0.010061     24.000000
  0.030183  0.030183  0.010061     24.000000
  0.050305  0.030183  0.010061     48.000000
  0.070427  0.030183  0.010061     48.000000
  0.090549  0.030183  0.010061     48.000000
  0.110671  0.030183  0.010061     48.000000
  0.130793  0.030183  0.010061     48.000000
  0.050305  0.050305  0.010061     24.000000
  0.070427  0.050305  0.010061     48.000000
  0.090549  0.050305  0.010061     48.000000
  0.110671  0.050305  0.010061     48.000000
  0.130793  0.050305  0.010061     48.000000
  0.070427  0.070427  0.010061     24.000000
  0.090549  0.070427  0.010061     48.000000
  0.110671  0.070427  0.010061     48.000000
  0.130793  0.070427  0.010061     48.000000
  0.090549  0.090549  0.010061     24.000000
  0.110671  0.090549  0.010061     48.000000
  0.130793  0.090549  0.010061     48.000000
  0.110671  0.110671  0.010061     24.000000
  0.130793  0.110671  0.010061     48.000000
  0.130793  0.130793  0.010061     24.000000
  0.030183  0.030183  0.030183      8.000000
  0.050305  0.030183  0.030183     24.000000
  0.070427  0.030183  0.030183     24.000000
  0.090549  0.030183  0.030183     24.000000
  0.110671  0.030183  0.030183     24.000000
  0.130793  0.030183  0.030183     24.000000
  0.050305  0.050305  0.030183     24.000000
  0.070427  0.050305  0.030183     48.000000
  0.090549  0.050305  0.030183     48.000000
  0.110671  0.050305  0.030183     48.000000
  0.130793  0.050305  0.030183     48.000000
  0.070427  0.070427  0.030183     24.000000
  0.090549  0.070427  0.030183     48.000000
  0.110671  0.070427  0.030183     48.000000
  0.130793  0.070427  0.030183     48.000000
  0.090549  0.090549  0.030183     24.000000
  0.110671  0.090549  0.030183     48.000000
  0.130793  0.090549  0.030183     48.000000
  0.110671  0.110671  0.030183     24.000000
  0.130793  0.110671  0.030183     48.000000
  0.130793  0.130793  0.030183     24.000000
  0.050305  0.050305  0.050305      8.000000
  0.070427  0.050305  0.050305     24.000000
  0.090549  0.050305  0.050305     24.000000
  0.110671  0.050305  0.050305     24.000000
  0.130793  0.050305  0.050305     24.000000
  0.070427  0.070427  0.050305     24.000000
  0.090549  0.070427  0.050305     48.000000
  0.110671  0.070427  0.050305     48.000000
  0.130793  0.070427  0.050305     48.000000
  0.090549  0.090549  0.050305     24.000000
  0.110671  0.090549  0.050305     48.000000
  0.130793  0.090549  0.050305     48.000000
  0.110671  0.110671  0.050305     24.000000
  0.130793  0.110671  0.050305     48.000000
  0.130793  0.130793  0.050305     24.000000
  0.070427  0.070427  0.070427      8.000000
  0.090549  0.070427  0.070427     24.000000
  0.110671  0.070427  0.070427     24.000000
  0.130793  0.070427  0.070427     24.000000
  0.090549  0.090549  0.070427     24.000000
  0.110671  0.090549  0.070427     48.000000
  0.130793  0.090549  0.070427     48.000000
  0.110671  0.110671  0.070427     24.000000
  0.130793  0.110671  0.070427     48.000000
  0.130793  0.130793  0.070427     24.000000
  0.090549  0.090549  0.090549      8.000000
  0.110671  0.090549  0.090549     24.000000
  0.130793  0.090549  0.090549     24.000000
  0.110671  0.110671  0.090549     24.000000
  0.130793  0.110671  0.090549     48.000000
  0.130793  0.130793  0.090549     24.000000
  0.110671  0.110671  0.110671      8.000000
  0.130793  0.110671  0.110671     24.000000
  0.130793  0.130793  0.110671     24.000000
  0.130793  0.130793  0.130793      8.000000
 


--------------------------------------------------------------------------------------------------------




 Dimension of arrays:
   k-points           NKPTS =     84   k-points in BZ     NKDIM =     84   number of bands    NBANDS=     24
   number of dos      NEDOS =    301   number of ions     NIONS =      8
   non local maximal  LDIM  =      4   non local SUM 2l+1 LMDIM =      8
   total plane-waves  NPLWV =  46656
   max r-space proj   IRMAX =      1   max aug-charges    IRDMAX=  16599
   dimension x,y,z NGX =    36 NGY =   36 NGZ =   36
   dimension x,y,z NGXF=    48 NGYF=   48 NGZF=   48
   support grid    NGXF=    96 NGYF=   96 NGZF=   96
   ions per type =               8
   NGX,Y,Z   is equivalent  to a cutoff of  16.86, 16.86, 16.86 a.u.
   NGXF,Y,Z  is equivalent  to a cutoff of  22.48, 22.48, 22.48 a.u.

 SYSTEM =  unknown system                          
 POSCAR =  C8                                      

 Startparameter for this run:
   NWRITE =      2    write-flag & timer
   PREC   = high      normal or accurate (medium, high low for compatibility)
   ISTART =      0    job   : 0-new  1-cont  2-samecut
   ICHARG =      2    charge: 1-file 2-atom 10-const
   ISPIN  =      1    spin polarized calculation?
   LNONCOLLINEAR =      F non collinear calculations
   LSORBIT =      F    spin-orbit coupling
   INIWAV =      1    electr: 0-lowe 1-rand  2-diag
   LASPH  =      F    aspherical Exc in radial PAW
   METAGGA=      F    non-selfconsistent MetaGGA calc.

 Electronic Relaxation 1
   ENCUT  =  875.0 eV  64.31 Ry    8.02 a.u.   8.56  8.56  8.56*2*pi/ulx,y,z
   ENINI  =  875.0     initial cutoff
   ENAUG  =  946.8 eV  augmentation charge cutoff
   NELM   =     40;   NELMIN=  4; NELMDL= -5     # of ELM steps 
   EDIFF  = 0.1E-07   stopping-criterion for ELM
   LREAL  =      F    real-space projection
   NLSPLINE    = F    spline interpolate recip. space projectors
   LCOMPAT=      F    compatible to vasp.4.4
   GGA_COMPAT  = T    GGA compatible to vasp.4.4-vasp.4.6
   LMAXPAW     = -100 max onsite density
   LMAXMIX     =    2 max onsite mixed and CHGCAR
   VOSKOWN=      0    Vosko Wilk Nusair interpolation
   ROPT   =    0.00000
 Ionic relaxation
   EDIFFG = -.1E-01   stopping-criterion for IOM
   NSW    =    100    number of steps for IOM
   NBLOCK =      1;   KBLOCK =    100    inner block; outer block 
   IBRION =      2    ionic relax: 0-MD 1-quasi-New 2-CG
   NFREE  =      1    steps in history (QN), initial steepest desc. (CG)
   ISIF   =      2    stress and relaxation
   IWAVPR =     11    prediction:  0-non 1-charg 2-wave 3-comb
   ISYM   =      2    0-nonsym 1-usesym 2-fastsym
   LCORR  =      T    Harris-Foulkes like correction to forces

   POTIM  = 0.5000    time-step for ionic-motion
   TEIN   =    0.0    initial temperature
   TEBEG  =    0.0;   TEEND  =   0.0 temperature during run
   SMASS  =  -3.00    Nose mass-parameter (am)
   estimated Nose-frequenzy (Omega)   =  0.10E-29 period in steps =****** mass=  -0.288E-27a.u.
   SCALEE = 1.0000    scale energy and forces
   NPACO  =    256;   APACO  = 16.0  distance and # of slots for P.C.
   PSTRESS=    0.0 pullay stress

  Mass of Ions in am
   POMASS =  12.01
  Ionic Valenz
   ZVAL   =   4.00
  Atomic Wigner-Seitz radii
   RWIGS  =  -1.00
  virtual crystal weights 
   VCA    =   1.00
   NELECT =      32.0000    total number of electrons
   NUPDOWN=      -1.0000    fix difference up-down

 DOS related values:
   EMIN   =  10.00;   EMAX   =-10.00  energy-range for DOS
   EFERMI =   0.00
   ISMEAR =     0;   SIGMA  =   0.05  broadening in eV -4-tet -1-fermi 0-gaus

 Electronic relaxation 2 (details)
   IALGO  =     38    algorithm
   LDIAG  =      T    sub-space diagonalisation (order eigenvalues)
   LSUBROT=      F    optimize rotation matrix (better conditioning)
   TURBO    =      0    0=normal 1=particle mesh
   IRESTART =      0    0=no restart 2=restart with 2 vectors
   NREBOOT  =      0    no. of reboots
   NMIN     =      0    reboot dimension
   EREF     =   0.00    reference energy to select bands
   IMIX   =      4    mixing-type and parameters
     AMIX     =   0.40;   BMIX     =  1.00
     AMIX_MAG =   1.60;   BMIX_MAG =  1.00
     AMIN     =   0.10
     WC   =   100.;   INIMIX=   1;  MIXPRE=   1;  MAXMIX= -45

 Intra band minimization:
   WEIMIN = 0.0010     energy-eigenvalue tresh-hold
   EBREAK =  0.10E-09  absolut break condition
   DEPER  =   0.30     relativ break condition  

   TIME   =   0.40     timestep for ELM

  volume/ion in A,a.u.               =       5.59        37.73
  Fermi-wavevector in a.u.,A,eV,Ry     =   1.464165  2.766870 29.167873  2.143778
  Thomas-Fermi vector in A             =   2.580173
 
 Write flags
   LWAVE        =      F    write WAVECAR
   LDOWNSAMPLE  =      F    k-point downsampling of WAVECAR
   LCHARG       =      F    write CHGCAR
   LVTOT        =      F    write LOCPOT, total local potential
   LVHAR        =      F    write LOCPOT, Hartree potential only
   LELF         =      F    write electronic localiz. function (ELF)
   LORBIT       =      0    0 simple, 1 ext, 2 COOP (PROOUT), +10 PAW based schemes


 Dipole corrections
   LMONO  =      F    monopole corrections only (constant potential shift)
   LDIPOL =      F    correct potential (dipole corrections)
   IDIPOL =      0    1-x, 2-y, 3-z, 4-all directions 
   EPSILON=  1.0000000 bulk dielectric constant

 Exchange correlation treatment:
   GGA     =    --    GGA type
   LEXCH   =     8    internal setting for exchange type
   VOSKOWN=      0    Vosko Wilk Nusair interpolation
   LHFCALC =     F    Hartree Fock is set to
   LHFONE  =     F    Hartree Fock one center treatment
   AEXX    =    0.0000 exact exchange contribution

 Linear response parameters
   LEPSILON=     F    determine dielectric tensor
   LRPA    =     F    only Hartree local field effects (RPA)
   LNABLA  =     F    use nabla operator in PAW spheres
   LVEL    =     F    velocity operator in full k-point grid
   LINTERFAST=   F  fast interpolation
   KINTER  =     0    interpolate to denser k-point grid
   CSHIFT  =0.1000    complex shift for real part using Kramers Kronig
   OMEGAMAX=  -1.0    maximum frequency
   DEG_THRESHOLD= 0.2000000E-02 threshold for treating states as degnerate
   RTIME   =   -0.100 relaxation time in fs
  (WPLASMAI=    0.000 imaginary part of plasma frequency in eV, 0.658/RTIME)
   DFIELD  = 0.0000000 0.0000000 0.0000000 field for delta impulse in time
 
 Orbital magnetization related:
   ORBITALMAG=     F  switch on orbital magnetization
   LCHIMAG   =     F  perturbation theory with respect to B field
   DQ        =  0.001000  dq finite difference perturbation B field
   LLRAUG    =     F  two centre corrections for induced B field



--------------------------------------------------------------------------------------------------------


 conjugate gradient relaxation of ions
 charge density and potential will be updated during run
 non-spin polarized calculation
 Variant of blocked Davidson
 Davidson routine will perform the subspace rotation
 perform sub-space diagonalisation
    after iterative eigenvector-optimisation
 modified Broyden-mixing scheme, WC =      100.0
 initial mixing is a Kerker type mixing with AMIX =  0.4000 and BMIX =      1.0000
 Hartree-type preconditioning will be used
 using additional bands            8
 reciprocal scheme for non local part
 use partial core corrections
 calculate Harris-corrections to forces 
   (improved forces if not selfconsistent)
 use gradient corrections 
 use of overlap-Matrix (Vanderbilt PP)
 Gauss-broadening in eV      SIGMA  =   0.05


--------------------------------------------------------------------------------------------------------


  energy-cutoff  :      875.00
  volume of cell :       44.73
      direct lattice vectors                 reciprocal lattice vectors
     3.549781037  0.000000000  0.000000000     0.281707516  0.000000000  0.000000000
     0.000000000  3.549781037  0.000000000     0.000000000  0.281707516  0.000000000
     0.000000000  0.000000000  3.549781037     0.000000000  0.000000000  0.281707516

  length of vectors
     3.549781037  3.549781037  3.549781037     0.281707516  0.281707516  0.281707516


 
 k-points in units of 2pi/SCALE and weight: K-Mesh Generated with KP-Resolved Value 
   0.01006098  0.01006098  0.01006098       0.003
   0.03018295  0.01006098  0.01006098       0.009
   0.05030491  0.01006098  0.01006098       0.009
   0.07042688  0.01006098  0.01006098       0.009
   0.09054884  0.01006098  0.01006098       0.009
   0.11067081  0.01006098  0.01006098       0.009
   0.13079278  0.01006098  0.01006098       0.009
   0.03018295  0.03018295  0.01006098       0.009
   0.05030491  0.03018295  0.01006098       0.017
   0.07042688  0.03018295  0.01006098       0.017
   0.09054884  0.03018295  0.01006098       0.017
   0.11067081  0.03018295  0.01006098       0.017
   0.13079278  0.03018295  0.01006098       0.017
   0.05030491  0.05030491  0.01006098       0.009
   0.07042688  0.05030491  0.01006098       0.017
   0.09054884  0.05030491  0.01006098       0.017
   0.11067081  0.05030491  0.01006098       0.017
   0.13079278  0.05030491  0.01006098       0.017
   0.07042688  0.07042688  0.01006098       0.009
   0.09054884  0.07042688  0.01006098       0.017
   0.11067081  0.07042688  0.01006098       0.017
   0.13079278  0.07042688  0.01006098       0.017
   0.09054884  0.09054884  0.01006098       0.009
   0.11067081  0.09054884  0.01006098       0.017
   0.13079278  0.09054884  0.01006098       0.017
   0.11067081  0.11067081  0.01006098       0.009
   0.13079278  0.11067081  0.01006098       0.017
   0.13079278  0.13079278  0.01006098       0.009
   0.03018295  0.03018295  0.03018295       0.003
   0.05030491  0.03018295  0.03018295       0.009
   0.07042688  0.03018295  0.03018295       0.009
   0.09054884  0.03018295  0.03018295       0.009
   0.11067081  0.03018295  0.03018295       0.009
   0.13079278  0.03018295  0.03018295       0.009
   0.05030491  0.05030491  0.03018295       0.009
   0.07042688  0.05030491  0.03018295       0.017
   0.09054884  0.05030491  0.03018295       0.017
   0.11067081  0.05030491  0.03018295       0.017
   0.13079278  0.05030491  0.03018295       0.017
   0.07042688  0.07042688  0.03018295       0.009
   0.09054884  0.07042688  0.03018295       0.017
   0.11067081  0.07042688  0.03018295       0.017
   0.13079278  0.07042688  0.03018295       0.017
   0.09054884  0.09054884  0.03018295       0.009
   0.11067081  0.09054884  0.03018295       0.017
   0.13079278  0.09054884  0.03018295       0.017
   0.11067081  0.11067081  0.03018295       0.009
   0.13079278  0.11067081  0.03018295       0.017
   0.13079278  0.13079278  0.03018295       0.009
   0.05030491  0.05030491  0.05030491       0.003
   0.07042688  0.05030491  0.05030491       0.009
   0.09054884  0.05030491  0.05030491       0.009
   0.11067081  0.05030491  0.05030491       0.009
   0.13079278  0.05030491  0.05030491       0.009
   0.07042688  0.07042688  0.05030491       0.009
   0.09054884  0.07042688  0.05030491       0.017
   0.11067081  0.07042688  0.05030491       0.017
   0.13079278  0.07042688  0.05030491       0.017
   0.09054884  0.09054884  0.05030491       0.009
   0.11067081  0.09054884  0.05030491       0.017
   0.13079278  0.09054884  0.05030491       0.017
   0.11067081  0.11067081  0.05030491       0.009
   0.13079278  0.11067081  0.05030491       0.017
   0.13079278  0.13079278  0.05030491       0.009
   0.07042688  0.07042688  0.07042688       0.003
   0.09054884  0.07042688  0.07042688       0.009
   0.11067081  0.07042688  0.07042688       0.009
   0.13079278  0.07042688  0.07042688       0.009
   0.09054884  0.09054884  0.07042688       0.009
   0.11067081  0.09054884  0.07042688       0.017
   0.13079278  0.09054884  0.07042688       0.017
   0.11067081  0.11067081  0.07042688       0.009
   0.13079278  0.11067081  0.07042688       0.017
   0.13079278  0.13079278  0.07042688       0.009
   0.09054884  0.09054884  0.09054884       0.003
   0.11067081  0.09054884  0.09054884       0.009
   0.13079278  0.09054884  0.09054884       0.009
   0.11067081  0.11067081  0.09054884       0.009
   0.13079278  0.11067081  0.09054884       0.017
   0.13079278  0.13079278  0.09054884       0.009
   0.11067081  0.11067081  0.11067081       0.003
   0.13079278  0.11067081  0.11067081       0.009
   0.13079278  0.13079278  0.11067081       0.009
   0.13079278  0.13079278  0.13079278       0.003
 
 k-points in reciprocal lattice and weights: K-Mesh Generated with KP-Resolved Value 
   0.03571429  0.03571429  0.03571429       0.003
   0.10714286  0.03571429  0.03571429       0.009
   0.17857143  0.03571429  0.03571429       0.009
   0.25000000  0.03571429  0.03571429       0.009
   0.32142857  0.03571429  0.03571429       0.009
   0.39285714  0.03571429  0.03571429       0.009
   0.46428571  0.03571429  0.03571429       0.009
   0.10714286  0.10714286  0.03571429       0.009
   0.17857143  0.10714286  0.03571429       0.017
   0.25000000  0.10714286  0.03571429       0.017
   0.32142857  0.10714286  0.03571429       0.017
   0.39285714  0.10714286  0.03571429       0.017
   0.46428571  0.10714286  0.03571429       0.017
   0.17857143  0.17857143  0.03571429       0.009
   0.25000000  0.17857143  0.03571429       0.017
   0.32142857  0.17857143  0.03571429       0.017
   0.39285714  0.17857143  0.03571429       0.017
   0.46428571  0.17857143  0.03571429       0.017
   0.25000000  0.25000000  0.03571429       0.009
   0.32142857  0.25000000  0.03571429       0.017
   0.39285714  0.25000000  0.03571429       0.017
   0.46428571  0.25000000  0.03571429       0.017
   0.32142857  0.32142857  0.03571429       0.009
   0.39285714  0.32142857  0.03571429       0.017
   0.46428571  0.32142857  0.03571429       0.017
   0.39285714  0.39285714  0.03571429       0.009
   0.46428571  0.39285714  0.03571429       0.017
   0.46428571  0.46428571  0.03571429       0.009
   0.10714286  0.10714286  0.10714286       0.003
   0.17857143  0.10714286  0.10714286       0.009
   0.25000000  0.10714286  0.10714286       0.009
   0.32142857  0.10714286  0.10714286       0.009
   0.39285714  0.10714286  0.10714286       0.009
   0.46428571  0.10714286  0.10714286       0.009
   0.17857143  0.17857143  0.10714286       0.009
   0.25000000  0.17857143  0.10714286       0.017
   0.32142857  0.17857143  0.10714286       0.017
   0.39285714  0.17857143  0.10714286       0.017
   0.46428571  0.17857143  0.10714286       0.017
   0.25000000  0.25000000  0.10714286       0.009
   0.32142857  0.25000000  0.10714286       0.017
   0.39285714  0.25000000  0.10714286       0.017
   0.46428571  0.25000000  0.10714286       0.017
   0.32142857  0.32142857  0.10714286       0.009
   0.39285714  0.32142857  0.10714286       0.017
   0.46428571  0.32142857  0.10714286       0.017
   0.39285714  0.39285714  0.10714286       0.009
   0.46428571  0.39285714  0.10714286       0.017
   0.46428571  0.46428571  0.10714286       0.009
   0.17857143  0.17857143  0.17857143       0.003
   0.25000000  0.17857143  0.17857143       0.009
   0.32142857  0.17857143  0.17857143       0.009
   0.39285714  0.17857143  0.17857143       0.009
   0.46428571  0.17857143  0.17857143       0.009
   0.25000000  0.25000000  0.17857143       0.009
   0.32142857  0.25000000  0.17857143       0.017
   0.39285714  0.25000000  0.17857143       0.017
   0.46428571  0.25000000  0.17857143       0.017
   0.32142857  0.32142857  0.17857143       0.009
   0.39285714  0.32142857  0.17857143       0.017
   0.46428571  0.32142857  0.17857143       0.017
   0.39285714  0.39285714  0.17857143       0.009
   0.46428571  0.39285714  0.17857143       0.017
   0.46428571  0.46428571  0.17857143       0.009
   0.25000000  0.25000000  0.25000000       0.003
   0.32142857  0.25000000  0.25000000       0.009
   0.39285714  0.25000000  0.25000000       0.009
   0.46428571  0.25000000  0.25000000       0.009
   0.32142857  0.32142857  0.25000000       0.009
   0.39285714  0.32142857  0.25000000       0.017
   0.46428571  0.32142857  0.25000000       0.017
   0.39285714  0.39285714  0.25000000       0.009
   0.46428571  0.39285714  0.25000000       0.017
   0.46428571  0.46428571  0.25000000       0.009
   0.32142857  0.32142857  0.32142857       0.003
   0.39285714  0.32142857  0.32142857       0.009
   0.46428571  0.32142857  0.32142857       0.009
   0.39285714  0.39285714  0.32142857       0.009
   0.46428571  0.39285714  0.32142857       0.017
   0.46428571  0.46428571  0.32142857       0.009
   0.39285714  0.39285714  0.39285714       0.003
   0.46428571  0.39285714  0.39285714       0.009
   0.46428571  0.46428571  0.39285714       0.009
   0.46428571  0.46428571  0.46428571       0.003
 
 position of ions in fractional coordinates (direct lattice) 
   0.25000000  0.25000000  0.25000000
   0.00000000  0.00000000  0.00000000
   0.25000000  0.75000000  0.75000000
   0.00000000  0.50000000  0.50000000
   0.75000000  0.25000000  0.75000000
   0.50000000  0.00000000  0.50000000
   0.75000000  0.75000000  0.25000000
   0.50000000  0.50000000  0.00000000
 
 position of ions in cartesian coordinates  (Angst):
   0.88744526  0.88744526  0.88744526
   0.00000000  0.00000000  0.00000000
   0.88744526  2.66233578  2.66233578
   0.00000000  1.77489052  1.77489052
   2.66233578  0.88744526  2.66233578
   1.77489052  0.00000000  1.77489052
   2.66233578  2.66233578  0.88744526
   1.77489052  1.77489052  0.00000000
 


--------------------------------------------------------------------------------------------------------


 k-point  1 :   0.0357 0.0357 0.0357  plane waves:    2607
 k-point  2 :   0.1071 0.0357 0.0357  plane waves:    2618
 k-point  3 :   0.1786 0.0357 0.0357  plane waves:    2626
 k-point  4 :   0.2500 0.0357 0.0357  plane waves:    2645
 k-point  5 :   0.3214 0.0357 0.0357  plane waves:    2635
 k-point  6 :   0.3929 0.0357 0.0357  plane waves:    2641
 k-point  7 :   0.4643 0.0357 0.0357  plane waves:    2635
 k-point  8 :   0.1071 0.1071 0.0357  plane waves:    2625
 k-point  9 :   0.1786 0.1071 0.0357  plane waves:    2627
 k-point 10 :   0.2500 0.1071 0.0357  plane waves:    2638
 k-point 11 :   0.3214 0.1071 0.0357  plane waves:    2636
 k-point 12 :   0.3929 0.1071 0.0357  plane waves:    2639
 k-point 13 :   0.4643 0.1071 0.0357  plane waves:    2644
 k-point 14 :   0.1786 0.1786 0.0357  plane waves:    2643
 k-point 15 :   0.2500 0.1786 0.0357  plane waves:    2637
 k-point 16 :   0.3214 0.1786 0.0357  plane waves:    2643
 k-point 17 :   0.3929 0.1786 0.0357  plane waves:    2628
 k-point 18 :   0.4643 0.1786 0.0357  plane waves:    2634
 k-point 19 :   0.2500 0.2500 0.0357  plane waves:    2642
 k-point 20 :   0.3214 0.2500 0.0357  plane waves:    2636
 k-point 21 :   0.3929 0.2500 0.0357  plane waves:    2632
 k-point 22 :   0.4643 0.2500 0.0357  plane waves:    2629
 k-point 23 :   0.3214 0.3214 0.0357  plane waves:    2636
 k-point 24 :   0.3929 0.3214 0.0357  plane waves:    2633
 k-point 25 :   0.4643 0.3214 0.0357  plane waves:    2622
 k-point 26 :   0.3929 0.3929 0.0357  plane waves:    2622
 k-point 27 :   0.4643 0.3929 0.0357  plane waves:    2632
 k-point 28 :   0.4643 0.4643 0.0357  plane waves:    2635
 k-point 29 :   0.1071 0.1071 0.1071  plane waves:    2635
 k-point 30 :   0.1786 0.1071 0.1071  plane waves:    2632
 k-point 31 :   0.2500 0.1071 0.1071  plane waves:    2642
 k-point 32 :   0.3214 0.1071 0.1071  plane waves:    2635
 k-point 33 :   0.3929 0.1071 0.1071  plane waves:    2636
 k-point 34 :   0.4643 0.1071 0.1071  plane waves:    2638
 k-point 35 :   0.1786 0.1786 0.1071  plane waves:    2635
 k-point 36 :   0.2500 0.1786 0.1071  plane waves:    2639
 k-point 37 :   0.3214 0.1786 0.1071  plane waves:    2632
 k-point 38 :   0.3929 0.1786 0.1071  plane waves:    2636
 k-point 39 :   0.4643 0.1786 0.1071  plane waves:    2635
 k-point 40 :   0.2500 0.2500 0.1071  plane waves:    2642
 k-point 41 :   0.3214 0.2500 0.1071  plane waves:    2631
 k-point 42 :   0.3929 0.2500 0.1071  plane waves:    2633
 k-point 43 :   0.4643 0.2500 0.1071  plane waves:    2625
 k-point 44 :   0.3214 0.3214 0.1071  plane waves:    2636
 k-point 45 :   0.3929 0.3214 0.1071  plane waves:    2629
 k-point 46 :   0.4643 0.3214 0.1071  plane waves:    2622
 k-point 47 :   0.3929 0.3929 0.1071  plane waves:    2621
 k-point 48 :   0.4643 0.3929 0.1071  plane waves:    2624
 k-point 49 :   0.4643 0.4643 0.1071  plane waves:    2630
 k-point 50 :   0.1786 0.1786 0.1786  plane waves:    2635
 k-point 51 :   0.2500 0.1786 0.1786  plane waves:    2632
 k-point 52 :   0.3214 0.1786 0.1786  plane waves:    2633
 k-point 53 :   0.3929 0.1786 0.1786  plane waves:    2635
 k-point 54 :   0.4643 0.1786 0.1786  plane waves:    2621
 k-point 55 :   0.2500 0.2500 0.1786  plane waves:    2636
 k-point 56 :   0.3214 0.2500 0.1786  plane waves:    2632
 k-point 57 :   0.3929 0.2500 0.1786  plane waves:    2628
 k-point 58 :   0.4643 0.2500 0.1786  plane waves:    2625
 k-point 59 :   0.3214 0.3214 0.1786  plane waves:    2625
 k-point 60 :   0.3929 0.3214 0.1786  plane waves:    2624
 k-point 61 :   0.4643 0.3214 0.1786  plane waves:    2622
 k-point 62 :   0.3929 0.3929 0.1786  plane waves:    2625
 k-point 63 :   0.4643 0.3929 0.1786  plane waves:    2620
 k-point 64 :   0.4643 0.4643 0.1786  plane waves:    2616
 k-point 65 :   0.2500 0.2500 0.2500  plane waves:    2626
 k-point 66 :   0.3214 0.2500 0.2500  plane waves:    2630
 k-point 67 :   0.3929 0.2500 0.2500  plane waves:    2626
 k-point 68 :   0.4643 0.2500 0.2500  plane waves:    2623
 k-point 69 :   0.3214 0.3214 0.2500  plane waves:    2625
 k-point 70 :   0.3929 0.3214 0.2500  plane waves:    2617
 k-point 71 :   0.4643 0.3214 0.2500  plane waves:    2614
 k-point 72 :   0.3929 0.3929 0.2500  plane waves:    2622
 k-point 73 :   0.4643 0.3929 0.2500  plane waves:    2619
 k-point 74 :   0.4643 0.4643 0.2500  plane waves:    2627
 k-point 75 :   0.3214 0.3214 0.3214  plane waves:    2629
 k-point 76 :   0.3929 0.3214 0.3214  plane waves:    2625
 k-point 77 :   0.4643 0.3214 0.3214  plane waves:    2623
 k-point 78 :   0.3929 0.3929 0.3214  plane waves:    2618
 k-point 79 :   0.4643 0.3929 0.3214  plane waves:    2610
 k-point 80 :   0.4643 0.4643 0.3214  plane waves:    2612
 k-point 81 :   0.3929 0.3929 0.3929  plane waves:    2617
 k-point 82 :   0.4643 0.3929 0.3929  plane waves:    2611
 k-point 83 :   0.4643 0.4643 0.3929  plane waves:    2603
 k-point 84 :   0.4643 0.4643 0.4643  plane waves:    2584

 maximum and minimum number of plane-waves per node :      2645     2584

 maximum number of plane-waves:      2645
 maximum index in each direction: 
   IXMAX=    8   IYMAX=    8   IZMAX=    8
   IXMIN=   -9   IYMIN=   -9   IZMIN=   -9


 serial   3D FFT for wavefunctions
 parallel 3D FFT for charge:
    minimum data exchange during FFTs selected (reduces bandwidth)


 total amount of memory used by VASP MPI-rank0    51382. kBytes
=======================================================================

   base      :      30000. kBytes
   nonl-proj :      14662. kBytes
   fftplans  :        905. kBytes
   grid      :       2114. kBytes
   one-center:         24. kBytes
   wavefun   :       3677. kBytes
 
     INWAV:  cpu time    0.0000: real time    0.0000
 Broyden mixing: mesh for mixing (old mesh)
   NGX = 17   NGY = 17   NGZ = 17
  (NGX  = 48   NGY  = 48   NGZ  = 48)
  gives a total of   4913 points

 initial charge density was supplied:
 charge density of overlapping atoms calculated
 number of electron      32.0000000 magnetization 
 keeping initial charge density in first step


--------------------------------------------------------------------------------------------------------


 Maximum index for augmentation-charges          761 (set IRDMAX)


--------------------------------------------------------------------------------------------------------


 First call to EWALD:  gamma=   0.499
 Maximum number of real-space cells 3x 3x 3
 Maximum number of reciprocal cells 3x 3x 3

    FEWALD:  cpu time    0.0030: real time    0.0052


--------------------------------------- Iteration      1(   1)  ---------------------------------------


    POTLOK:  cpu time    0.0180: real time    0.0394
    SETDIJ:  cpu time    0.0160: real time    0.0233
     EDDAV:  cpu time    1.3398: real time    1.4470
       DOS:  cpu time    0.0040: real time    0.0141
    --------------------------------------------
      LOOP:  cpu time    1.3778: real time    1.5243

 eigenvalue-minimisations  :  4032
 total energy-change (2. order) : 0.1020589E+03  (-0.2612682E+04)
 number of electron      32.0000000 magnetization 
 augmentation part       32.0000000 magnetization 

 Free energy of the ion-electron system (eV)
  ---------------------------------------------------
  alpha Z        PSCENC =        78.43686080
  Ewald energy   TEWEN  =     -1398.50877779
  -Hartree energ DENC   =       -68.73013540
  -exchange      EXHF   =         0.00000000
  -V(xc)+E(xc)   XCENC  =        62.54953031
  PAW double counting   =       914.77613359     -872.73161751
  entropy T*S    EENTRO =        -0.00233074
  eigenvalues    EBANDS =       209.05642340
  atomic energy  EATOM  =      1177.21277265
  Solvation  Ediel_sol  =         0.00000000
  ---------------------------------------------------
  free energy    TOTEN  =       102.05885932 eV

  energy without entropy =      102.06119006  energy(sigma->0) =      102.06002469


--------------------------------------------------------------------------------------------------------




--------------------------------------- Iteration      1(   2)  ---------------------------------------


     EDDAV:  cpu time    2.2877: real time    2.3168
       DOS:  cpu time    0.0010: real time    0.0006
    --------------------------------------------
      LOOP:  cpu time    2.2887: real time    2.3171

 eigenvalue-minimisations  :  6528
 total energy-change (2. order) :-0.1747094E+03  (-0.1721468E+03)
 number of electron      32.0000000 magnetization 
 augmentation part       32.0000000 magnetization 

 Free energy of the ion-electron system (eV)
  ---------------------------------------------------
  alpha Z        PSCENC =        78.43686080
  Ewald energy   TEWEN  =     -1398.50877779
  -Hartree energ DENC   =       -68.73013540
  -exchange      EXHF   =         0.00000000
  -V(xc)+E(xc)   XCENC  =        62.54953031
  PAW double counting   =       914.77613359     -872.73161751
  entropy T*S    EENTRO =        -0.00000000
  eigenvalues    EBANDS =        34.34469213
  atomic energy  EATOM  =      1177.21277265
  Solvation  Ediel_sol  =         0.00000000
  ---------------------------------------------------
  free energy    TOTEN  =       -72.65054121 eV

  energy without entropy =      -72.65054121  energy(sigma->0) =      -72.65054121


--------------------------------------------------------------------------------------------------------




--------------------------------------- Iteration      1(   3)  ---------------------------------------


     EDDAV:  cpu time    1.5718: real time    1.5853
       DOS:  cpu time    0.0010: real time    0.0006
    --------------------------------------------
      LOOP:  cpu time    1.5728: real time    1.5859

 eigenvalue-minimisations  :  4632
 total energy-change (2. order) :-0.2745997E+01  (-0.2745997E+01)
 number of electron      32.0000000 magnetization 
 augmentation part       32.0000000 magnetization 

 Free energy of the ion-electron system (eV)
  ---------------------------------------------------
  alpha Z        PSCENC =        78.43686080
  Ewald energy   TEWEN  =     -1398.50877779
  -Hartree energ DENC   =       -68.73013540
  -exchange      EXHF   =         0.00000000
  -V(xc)+E(xc)   XCENC  =        62.54953031
  PAW double counting   =       914.77613359     -872.73161751
  entropy T*S    EENTRO =        -0.00000000
  eigenvalues    EBANDS =        31.59869492
  atomic energy  EATOM  =      1177.21277265
  Solvation  Ediel_sol  =         0.00000000
  ---------------------------------------------------
  free energy    TOTEN  =       -75.39653843 eV

  energy without entropy =      -75.39653843  energy(sigma->0) =      -75.39653843


--------------------------------------------------------------------------------------------------------




--------------------------------------- Iteration      1(   4)  ---------------------------------------


     EDDAV:  cpu time    2.7896: real time    2.8083
       DOS:  cpu time    0.0010: real time    0.0006
    --------------------------------------------
      LOOP:  cpu time    2.7906: real time    2.8089

 eigenvalue-minimisations  :  7464
 total energy-change (2. order) :-0.1892059E-01  (-0.1892059E-01)
 number of electron      32.0000000 magnetization 
 augmentation part       32.0000000 magnetization 

 Free energy of the ion-electron system (eV)
  ---------------------------------------------------
  alpha Z        PSCENC =        78.43686080
  Ewald energy   TEWEN  =     -1398.50877779
  -Hartree energ DENC   =       -68.73013540
  -exchange      EXHF   =         0.00000000
  -V(xc)+E(xc)   XCENC  =        62.54953031
  PAW double counting   =       914.77613359     -872.73161751
  entropy T*S    EENTRO =        -0.00000000
  eigenvalues    EBANDS =        31.57977433
  atomic energy  EATOM  =      1177.21277265
  Solvation  Ediel_sol  =         0.00000000
  ---------------------------------------------------
  free energy    TOTEN  =       -75.41545902 eV

  energy without entropy =      -75.41545902  energy(sigma->0) =      -75.41545902


--------------------------------------------------------------------------------------------------------




--------------------------------------- Iteration      1(   5)  ---------------------------------------


     EDDAV:  cpu time    1.6108: real time    1.6421
       DOS:  cpu time    0.0010: real time    0.0012
    CHARGE:  cpu time    0.0810: real time    0.1146
    MIXING:  cpu time    0.0040: real time    0.0145
    --------------------------------------------
      LOOP:  cpu time    1.6967: real time    1.7725

 eigenvalue-minimisations  :  4608
 total energy-change (2. order) :-0.4021346E-05  (-0.4021324E-05)
 number of electron      32.0000000 magnetization 
 augmentation part       -0.0664989 magnetization 

 Broyden mixing:
  rms(total) = 0.16957E+01    rms(broyden)= 0.16956E+01
  rms(prec ) = 0.26936E+01
  weight for this iteration     100.00

 Free energy of the ion-electron system (eV)
  ---------------------------------------------------
  alpha Z        PSCENC =        78.43686080
  Ewald energy   TEWEN  =     -1398.50877779
  -Hartree energ DENC   =       -68.73013540
  -exchange      EXHF   =         0.00000000
  -V(xc)+E(xc)   XCENC  =        62.54953031
  PAW double counting   =       914.77613359     -872.73161751
  entropy T*S    EENTRO =        -0.00000000
  eigenvalues    EBANDS =        31.57977031
  atomic energy  EATOM  =      1177.21277265
  Solvation  Ediel_sol  =         0.00000000
  ---------------------------------------------------
  free energy    TOTEN  =       -75.41546304 eV

  energy without entropy =      -75.41546304  energy(sigma->0) =      -75.41546304


--------------------------------------------------------------------------------------------------------




--------------------------------------- Iteration      1(   6)  ---------------------------------------


    POTLOK:  cpu time    0.0060: real time    0.0122
    SETDIJ:  cpu time    0.0030: real time    0.0036
     EDDAV:  cpu time    1.7647: real time    1.8759
       DOS:  cpu time    0.0010: real time    0.0006
    CHARGE:  cpu time    0.0730: real time    0.0738
    MIXING:  cpu time    0.0030: real time    0.0152
    --------------------------------------------
      LOOP:  cpu time    1.8507: real time    1.9813

 eigenvalue-minimisations  :  4824
 total energy-change (2. order) : 0.1940465E+01  (-0.1457675E+00)
 number of electron      32.0000000 magnetization 
 augmentation part       -0.0694627 magnetization 

 Broyden mixing:
  rms(total) = 0.11168E+01    rms(broyden)= 0.11168E+01
  rms(prec ) = 0.15878E+01
  weight for this iteration     100.00

 eigenvalues of (default mixing * dielectric matrix)
  average eigenvalue GAMMA=   2.7493
  2.7493

 Free energy of the ion-electron system (eV)
  ---------------------------------------------------
  alpha Z        PSCENC =        78.43686080
  Ewald energy   TEWEN  =     -1398.50877779
  -Hartree energ DENC   =       -84.14845971
  -exchange      EXHF   =         0.00000000
  -V(xc)+E(xc)   XCENC  =        63.82595957
  PAW double counting   =      3806.80704172    -3765.14339851
  entropy T*S    EENTRO =        -0.00000000
  eigenvalues    EBANDS =        48.04300368
  atomic energy  EATOM  =      1177.21277265
  Solvation  Ediel_sol  =         0.00000000
  ---------------------------------------------------
  free energy    TOTEN  =       -73.47499759 eV

  energy without entropy =      -73.47499759  energy(sigma->0) =      -73.47499759


--------------------------------------------------------------------------------------------------------




--------------------------------------- Iteration      1(   7)  ---------------------------------------


    POTLOK:  cpu time    0.0060: real time    0.0120
    SETDIJ:  cpu time    0.0030: real time    0.0035
     EDDAV:  cpu time    2.0047: real time    2.0090
       DOS:  cpu time    0.0010: real time    0.0007
    CHARGE:  cpu time    0.0740: real time    0.0738
    MIXING:  cpu time    0.0010: real time    0.0095
    --------------------------------------------
      LOOP:  cpu time    2.0897: real time    2.1084

 eigenvalue-minimisations  :  5760
 total energy-change (2. order) : 0.6499593E+00  (-0.1884655E+00)
 number of electron      32.0000000 magnetization 
 augmentation part       -0.0733726 magnetization 

 Broyden mixing:
  rms(total) = 0.24145E+00    rms(broyden)= 0.24145E+00
  rms(prec ) = 0.26606E+00
  weight for this iteration     100.00

 eigenvalues of (default mixing * dielectric matrix)
  average eigenvalue GAMMA=   2.1782
  1.9363  2.4201

 Free energy of the ion-electron system (eV)
  ---------------------------------------------------
  alpha Z        PSCENC =        78.43686080
  Ewald energy   TEWEN  =     -1398.50877779
  -Hartree energ DENC   =      -105.54376763
  -exchange      EXHF   =         0.00000000
  -V(xc)+E(xc)   XCENC  =        65.68387741
  PAW double counting   =     12883.62980594   -12842.27429332
  entropy T*S    EENTRO =        -0.00000000
  eigenvalues    EBANDS =        68.53848368
  atomic energy  EATOM  =      1177.21277265
  Solvation  Ediel_sol  =         0.00000000
  ---------------------------------------------------
  free energy    TOTEN  =       -72.82503826 eV

  energy without entropy =      -72.82503826  energy(sigma->0) =      -72.82503826


--------------------------------------------------------------------------------------------------------




--------------------------------------- Iteration      1(   8)  ---------------------------------------


    POTLOK:  cpu time    0.0060: real time    0.0132
    SETDIJ:  cpu time    0.0040: real time    0.0035
     EDDAV:  cpu time    2.3776: real time    2.3846
       DOS:  cpu time    0.0010: real time    0.0007
    CHARGE:  cpu time    0.0730: real time    0.0738
    MIXING:  cpu time    0.0020: real time    0.0039
    --------------------------------------------
      LOOP:  cpu time    2.4636: real time    2.4797

 eigenvalue-minimisations  :  6552
 total energy-change (2. order) : 0.1840955E-02  (-0.2498537E-02)
 number of electron      32.0000000 magnetization 
 augmentation part       -0.0732299 magnetization 

 Broyden mixing:
  rms(total) = 0.12036E-01    rms(broyden)= 0.12036E-01
  rms(prec ) = 0.19537E-01
  weight for this iteration     100.00

 eigenvalues of (default mixing * dielectric matrix)
  average eigenvalue GAMMA=   2.0133
  1.5123  2.2637  2.2637

 Free energy of the ion-electron system (eV)
  ---------------------------------------------------
  alpha Z        PSCENC =        78.43686080
  Ewald energy   TEWEN  =     -1398.50877779
  -Hartree energ DENC   =      -104.55193522
  -exchange      EXHF   =         0.00000000
  -V(xc)+E(xc)   XCENC  =        65.63951845
  PAW double counting   =     15344.74288477   -15303.27033257
  entropy T*S    EENTRO =        -0.00000000
  eigenvalues    EBANDS =        67.47581160
  atomic energy  EATOM  =      1177.21277265
  Solvation  Ediel_sol  =         0.00000000
  ---------------------------------------------------
  free energy    TOTEN  =       -72.82319731 eV

  energy without entropy =      -72.82319731  energy(sigma->0) =      -72.82319731


--------------------------------------------------------------------------------------------------------




--------------------------------------- Iteration      1(   9)  ---------------------------------------


    POTLOK:  cpu time    0.0050: real time    0.0133
    SETDIJ:  cpu time    0.0040: real time    0.0036
     EDDAV:  cpu time    2.0857: real time    2.0908
       DOS:  cpu time    0.0010: real time    0.0006
    CHARGE:  cpu time    0.0740: real time    0.0738
    MIXING:  cpu time    0.0000: real time    0.0005
    --------------------------------------------
      LOOP:  cpu time    2.1697: real time    2.1826

 eigenvalue-minimisations  :  5832
 total energy-change (2. order) :-0.1653898E-03  (-0.4602819E-04)
 number of electron      32.0000000 magnetization 
 augmentation part       -0.0731240 magnetization 

 Broyden mixing:
  rms(total) = 0.61488E-02    rms(broyden)= 0.61487E-02
  rms(prec ) = 0.93822E-02
  weight for this iteration     100.00

 eigenvalues of (default mixing * dielectric matrix)
  average eigenvalue GAMMA=   1.9665
  0.9825  2.0246  2.4295  2.4295

 Free energy of the ion-electron system (eV)
  ---------------------------------------------------
  alpha Z        PSCENC =        78.43686080
  Ewald energy   TEWEN  =     -1398.50877779
  -Hartree energ DENC   =      -104.35787776
  -exchange      EXHF   =         0.00000000
  -V(xc)+E(xc)   XCENC  =        65.62399618
  PAW double counting   =     15282.16681131   -15240.68430164
  entropy T*S    EENTRO =        -0.00000000
  eigenvalues    EBANDS =        67.28715355
  atomic energy  EATOM  =      1177.21277265
  Solvation  Ediel_sol  =         0.00000000
  ---------------------------------------------------
  free energy    TOTEN  =       -72.82336270 eV

  energy without entropy =      -72.82336270  energy(sigma->0) =      -72.82336270


--------------------------------------------------------------------------------------------------------




--------------------------------------- Iteration      1(  10)  ---------------------------------------


    POTLOK:  cpu time    0.0070: real time    0.0169
    SETDIJ:  cpu time    0.0040: real time    0.0037
     EDDAV:  cpu time    2.2177: real time    2.2227
       DOS:  cpu time    0.0000: real time    0.0006
    CHARGE:  cpu time    0.0740: real time    0.0737
    MIXING:  cpu time    0.0000: real time    0.0005
    --------------------------------------------
      LOOP:  cpu time    2.3036: real time    2.3181

 eigenvalue-minimisations  :  6120
 total energy-change (2. order) :-0.1205400E-03  (-0.1114943E-04)
 number of electron      32.0000000 magnetization 
 augmentation part       -0.0730934 magnetization 

 Broyden mixing:
  rms(total) = 0.49106E-03    rms(broyden)= 0.49099E-03
  rms(prec ) = 0.84065E-03
  weight for this iteration     100.00

 eigenvalues of (default mixing * dielectric matrix)
  average eigenvalue GAMMA=   1.9211
  2.8198  2.4161  2.0154  1.0282  1.3261

 Free energy of the ion-electron system (eV)
  ---------------------------------------------------
  alpha Z        PSCENC =        78.43686080
  Ewald energy   TEWEN  =     -1398.50877779
  -Hartree energ DENC   =      -104.44406486
  -exchange      EXHF   =         0.00000000
  -V(xc)+E(xc)   XCENC  =        65.63105273
  PAW double counting   =     15214.78928501   -15173.30447769
  entropy T*S    EENTRO =        -0.00000000
  eigenvalues    EBANDS =        67.36386592
  atomic energy  EATOM  =      1177.21277265
  Solvation  Ediel_sol  =         0.00000000
  ---------------------------------------------------
  free energy    TOTEN  =       -72.82348324 eV

  energy without entropy =      -72.82348324  energy(sigma->0) =      -72.82348324


--------------------------------------------------------------------------------------------------------




--------------------------------------- Iteration      1(  11)  ---------------------------------------


    POTLOK:  cpu time    0.0070: real time    0.0155
    SETDIJ:  cpu time    0.0030: real time    0.0035
     EDDAV:  cpu time    2.2547: real time    2.2594
       DOS:  cpu time    0.0000: real time    0.0006
    CHARGE:  cpu time    0.0740: real time    0.0738
    MIXING:  cpu time    0.0010: real time    0.0006
    --------------------------------------------
      LOOP:  cpu time    2.3386: real time    2.3535

 eigenvalue-minimisations  :  6216
 total energy-change (2. order) :-0.1209390E-05  (-0.1793728E-06)
 number of electron      32.0000000 magnetization 
 augmentation part       -0.0730912 magnetization 

 Broyden mixing:
  rms(total) = 0.30073E-03    rms(broyden)= 0.30073E-03
  rms(prec ) = 0.33800E-03
  weight for this iteration     100.00

 eigenvalues of (default mixing * dielectric matrix)
  average eigenvalue GAMMA=   2.0016
  2.8968  2.6192  2.4167  2.0607  1.0082  1.0082

 Free energy of the ion-electron system (eV)
  ---------------------------------------------------
  alpha Z        PSCENC =        78.43686080
  Ewald energy   TEWEN  =     -1398.50877779
  -Hartree energ DENC   =      -104.45251209
  -exchange      EXHF   =         0.00000000
  -V(xc)+E(xc)   XCENC  =        65.63179280
  PAW double counting   =     15213.47239566   -15171.98736656
  entropy T*S    EENTRO =        -0.00000000
  eigenvalues    EBANDS =        67.37135008
  atomic energy  EATOM  =      1177.21277265
  Solvation  Ediel_sol  =         0.00000000
  ---------------------------------------------------
  free energy    TOTEN  =       -72.82348445 eV

  energy without entropy =      -72.82348445  energy(sigma->0) =      -72.82348445


--------------------------------------------------------------------------------------------------------




--------------------------------------- Iteration      1(  12)  ---------------------------------------


    POTLOK:  cpu time    0.0060: real time    0.0154
    SETDIJ:  cpu time    0.0040: real time    0.0035
     EDDAV:  cpu time    2.2117: real time    2.2161
       DOS:  cpu time    0.0010: real time    0.0006
    CHARGE:  cpu time    0.0730: real time    0.0738
    MIXING:  cpu time    0.0010: real time    0.0006
    --------------------------------------------
      LOOP:  cpu time    2.2967: real time    2.3100

 eigenvalue-minimisations  :  6096
 total energy-change (2. order) :-0.3438763E-06  (-0.6163397E-08)
 number of electron      32.0000000 magnetization 
 augmentation part       -0.0730919 magnetization 

 Broyden mixing:
  rms(total) = 0.15407E-04    rms(broyden)= 0.15407E-04
  rms(prec ) = 0.15936E-04
  weight for this iteration     100.00

 eigenvalues of (default mixing * dielectric matrix)
  average eigenvalue GAMMA=   1.9309
  2.8659  2.6688  2.4145  2.0516  1.5301  1.0099  0.9757

 Free energy of the ion-electron system (eV)
  ---------------------------------------------------
  alpha Z        PSCENC =        78.43686080
  Ewald energy   TEWEN  =     -1398.50877779
  -Hartree energ DENC   =      -104.45354561
  -exchange      EXHF   =         0.00000000
  -V(xc)+E(xc)   XCENC  =        65.63189330
  PAW double counting   =     15215.74101236   -15174.25608391
  entropy T*S    EENTRO =        -0.00000000
  eigenvalues    EBANDS =        67.37238340
  atomic energy  EATOM  =      1177.21277265
  Solvation  Ediel_sol  =         0.00000000
  ---------------------------------------------------
  free energy    TOTEN  =       -72.82348479 eV

  energy without entropy =      -72.82348479  energy(sigma->0) =      -72.82348479


--------------------------------------------------------------------------------------------------------




--------------------------------------- Iteration      1(  13)  ---------------------------------------


    POTLOK:  cpu time    0.0050: real time    0.0133
    SETDIJ:  cpu time    0.0040: real time    0.0035
     EDDAV:  cpu time    2.3056: real time    2.3127
       DOS:  cpu time    0.0010: real time    0.0006
    --------------------------------------------
      LOOP:  cpu time    2.3156: real time    2.3301

 eigenvalue-minimisations  :  6312
 total energy-change (2. order) :-0.9527866E-08  (-0.1139857E-10)
 number of electron      32.0000000 magnetization 
 augmentation part       -0.0730919 magnetization 

 Free energy of the ion-electron system (eV)
  ---------------------------------------------------
  alpha Z        PSCENC =        78.43686080
  Ewald energy   TEWEN  =     -1398.50877779
  -Hartree energ DENC   =      -104.45355711
  -exchange      EXHF   =         0.00000000
  -V(xc)+E(xc)   XCENC  =        65.63189465
  PAW double counting   =     15215.64981670   -15174.16489200
  entropy T*S    EENTRO =        -0.00000000
  eigenvalues    EBANDS =        67.37239731
  atomic energy  EATOM  =      1177.21277265
  Solvation  Ediel_sol  =         0.00000000
  ---------------------------------------------------
  free energy    TOTEN  =       -72.82348480 eV

  energy without entropy =      -72.82348480  energy(sigma->0) =      -72.82348480


--------------------------------------------------------------------------------------------------------




 average (electrostatic) potential at core
  the test charge radii are     0.5770
  (the norm of the test charge is              1.0000)
       1 -71.3404       2 -71.3404       3 -71.3404       4 -71.3404       5 -71.3404
       6 -71.3404       7 -71.3404       8 -71.3404
 
 
 
 E-fermi :  11.4023     XC(G=0): -13.4526     alpha+bet :-18.9056


 k-point     1 :       0.0357    0.0357    0.0357
  band No.  band energies     occupation 
      1     -10.4649      2.00000
      2      -2.2538      2.00000
      3      -2.2538      2.00000
      4      -2.2538      2.00000
      5      -1.1011      2.00000
      6      -1.1011      2.00000
      7      -1.1011      2.00000
      8       4.6682      2.00000
      9       4.6682      2.00000
     10       4.6682      2.00000
     11       4.8143      2.00000
     12       4.8143      2.00000
     13       4.8143      2.00000
     14      10.9080      2.00000
     15      11.1004      2.00000
     16      11.1004      2.00000
     17      15.8805      0.00000
     18      15.8805      0.00000
     19      15.8805      0.00000
     20      16.2649      0.00000
     21      16.2649      0.00000
     22      16.2649      0.00000
     23      16.8919      0.00000
     24      16.8919      0.00000

 k-point     2 :       0.1071    0.0357    0.0357
  band No.  band energies     occupation 
      1     -10.3698      2.00000
      2      -3.3569      2.00000
      3      -2.1876      2.00000
      4      -2.1876      2.00000
      5      -1.0478      2.00000
      6      -1.0478      2.00000
      7       0.0885      2.00000
      8       4.3368      2.00000
      9       4.3368      2.00000
     10       4.7486      2.00000
     11       4.7486      2.00000
     12       4.7644      2.00000
     13       4.9069      2.00000
     14      10.4482      2.00000
     15      10.7309      2.00000
     16      10.9848      2.00000
     17      15.6468      0.00000
     18      16.1704      0.00000
     19      16.1704      0.00000
     20      16.7193      0.00000
     21      16.7350      0.00000
     22      16.7350      0.00000
     23      16.8229      0.00000
     24      17.3422      0.00000

 k-point     3 :       0.1786    0.0357    0.0357
  band No.  band energies     occupation 
      1     -10.1798      2.00000
      2      -4.4000      2.00000
      3      -2.0596      2.00000
      4      -2.0596      2.00000
      5      -0.9480      2.00000
      6      -0.9480      2.00000
      7       1.2997      2.00000
      8       3.8867      2.00000
      9       3.8867      2.00000
     10       4.4999      2.00000
     11       4.4999      2.00000
     12       4.9570      2.00000
     13       5.0918      2.00000
     14       9.8064      2.00000
     15      10.1257      2.00000
     16      10.6076      2.00000
     17      15.5002      0.00000
     18      16.6842      0.00000
     19      16.7874      0.00000
     20      16.7874      0.00000
     21      17.3075      0.00000
     22      17.5429      0.00000
     23      17.5429      0.00000
     24      18.1078      0.00000

 k-point     4 :       0.2500    0.0357    0.0357
  band No.  band energies     occupation 
      1      -9.8955      2.00000
      2      -5.3752      2.00000
      3      -1.8805      2.00000
      4      -1.8805      2.00000
      5      -0.8173      2.00000
      6      -0.8173      2.00000
      7       2.5137      2.00000
      8       3.3975      2.00000
      9       3.3975      2.00000
     10       4.1368      2.00000
     11       4.1368      2.00000
     12       5.2469      2.00000
     13       5.3672      2.00000
     14       9.0759      2.00000
     15       9.4168      2.00000
     16      10.0252      2.00000
     17      15.4386      0.00000
     18      16.4974      0.00000
     19      17.6863      0.00000
     20      17.6863      0.00000
     21      18.0301      0.00000
     22      18.5868      0.00000
     23      18.5868      0.00000
     24      19.0555      0.00000

 k-point     5 :       0.3214    0.0357    0.0357
  band No.  band energies     occupation 
      1      -9.5176      2.00000
      2      -6.2760      2.00000
      3      -1.6705      2.00000
      4      -1.6705      2.00000
      5      -0.6820      2.00000
      6      -0.6820      2.00000
      7       2.9470      2.00000
      8       2.9470      2.00000
      9       3.7071      2.00000
     10       3.7408      2.00000
     11       3.7408      2.00000
     12       5.6376      2.00000
     13       5.7311      2.00000
     14       8.3165      2.00000
     15       8.6844      2.00000
     16       9.2895      2.00000
     17      15.4534      0.00000
     18      16.2829      0.00000
     19      18.7908      0.00000
     20      18.7908      0.00000
     21      18.8910      0.00000
     22      19.7824      0.00000
     23      19.7825      0.00000
     24      20.0944      0.00000

 k-point     6 :       0.3929    0.0357    0.0357
  band No.  band energies     occupation 
      1      -9.0472      2.00000
      2      -7.0972      2.00000
      3      -1.4667      2.00000
      4      -1.4667      2.00000
      5      -0.5771      2.00000
      6      -0.5771      2.00000
      7       2.6065      2.00000
      8       2.6065      2.00000
      9       3.3960      2.00000
     10       3.3960      2.00000
     11       4.8461      2.00000
     12       6.1395      2.00000
     13       6.1796      2.00000
     14       7.5523      2.00000
     15       7.9734      2.00000
     16       8.4508      2.00000
     17      15.5347      0.00000
     18      16.0615      0.00000
     19      19.8869      0.00000
     20      20.0114      0.00000
     21      20.0114      0.00000
     22      21.0282      0.00000
     23      21.0318      0.00000
     24      21.1859      0.00000

 k-point     7 :       0.4643    0.0357    0.0357
  band No.  band energies     occupation 
      1      -8.4856      2.00000
      2      -7.8347      2.00000
      3      -1.3314      2.00000
      4      -1.3314      2.00000
      5      -0.5270      2.00000
      6      -0.5270      2.00000
      7       2.4279      2.00000
      8       2.4279      2.00000
      9       3.1890      2.00000
     10       3.1890      2.00000
     11       5.8802      2.00000
     12       6.7080      2.00000
     13       6.7655      2.00000
     14       6.7800      2.00000
     15       7.3095      2.00000
     16       7.5769      2.00000
     17      15.6718      0.00000
     18      15.8521      0.00000
     19      20.9992      0.00000
     20      21.1736      0.00000
     21      21.1736      0.00000
     22      21.9930      0.00000
     23      21.9937      0.00000
     24      22.1879      0.00000

 k-point     8 :       0.1071    0.1071    0.0357
  band No.  band energies     occupation 
      1     -10.2748      2.00000
      2      -3.2817      2.00000
      3      -3.2817      2.00000
      4      -2.1272      2.00000
      5      -0.9985      2.00000
      6       0.1202      2.00000
      7       0.1202      2.00000
      8       3.8055      2.00000
      9       4.4413      2.00000
     10       4.4413      2.00000
     11       4.8458      2.00000
     12       4.8458      2.00000
     13       4.9730      2.00000
     14       9.8920      2.00000
     15      10.4483      2.00000
     16      10.9876      2.00000
     17      15.9972      0.00000
     18      15.9972      0.00000
     19      16.1262      0.00000
     20      17.0783      0.00000
     21      17.1250      0.00000
     22      17.1250      0.00000
     23      17.4570      0.00000
     24      17.4587      0.00000

 k-point     9 :       0.1786    0.1071    0.0357
  band No.  band energies     occupation 
      1     -10.0850      2.00000
      2      -4.3190      2.00000
      3      -3.1341      2.00000
      4      -2.0143      2.00000
      5      -0.9072      2.00000
      6       0.1716      2.00000
      7       1.2960      2.00000
      8       3.2347      2.00000
      9       4.0017      2.00000
     10       4.6151      2.00000
     11       4.6520      2.00000
     12       4.9862      2.00000
     13       5.0420      2.00000
     14       9.1987      2.00000
     15       9.8747      2.00000
     16      10.7696      2.00000
     17      15.8719      0.00000
     18      16.4424      0.00000
     19      16.6688      0.00000
     20      17.0407      0.00000
     21      17.6841      0.00000
     22      17.8702      0.00000
     23      18.1106      0.00000
     24      18.2966      0.00000

 k-point    10 :       0.2500    0.1071    0.0357
  band No.  band energies     occupation 
      1      -9.8010      2.00000
      2      -5.2901      2.00000
      3      -2.9202      2.00000
      4      -1.8696      2.00000
      5      -0.7875      2.00000
      6       0.2162      2.00000
      7       2.4497      2.00000
      8       2.7075      2.00000
      9       3.5205      2.00000
     10       4.2934      2.00000
     11       4.8176      2.00000
     12       4.9716      2.00000
     13       5.3433      2.00000
     14       8.4456      2.00000
     15       9.1864      2.00000
     16      10.3052      2.00000
     17      15.8214      0.00000
     18      16.8735      0.00000
     19      17.1067      0.00000
     20      17.6047      0.00000
     21      18.3840      0.00000
     22      18.8631      0.00000
     23      19.0326      0.00000
     24      19.0895      0.00000

 k-point    11 :       0.3214    0.1071    0.0357
  band No.  band energies     occupation 
      1      -9.4236      2.00000
      2      -6.1880      2.00000
      3      -2.6516      2.00000
      4      -1.7372      2.00000
      5      -0.6520      2.00000
      6       0.2131      2.00000
      7       2.3075      2.00000
      8       3.0609      2.00000
      9       3.5397      2.00000
     10       3.9816      2.00000
     11       4.5344      2.00000
     12       5.3984      2.00000
     13       5.7688      2.00000
     14       7.6765      2.00000
     15       8.4672      2.00000
     16       9.6483      2.00000
     17      15.8427      0.00000
     18      16.6680      0.00000
     19      18.0467      0.00000
     20      18.7344      0.00000
     21      19.2230      0.00000
     22      20.0049      0.00000
     23      20.0106      0.00000
     24      20.0709      0.00000

 k-point    12 :       0.3929    0.1071    0.0357
  band No.  band energies     occupation 
      1      -8.9537      2.00000
      2      -7.0071      2.00000
      3      -2.3484      2.00000
      4      -1.6941      2.00000
      5      -0.4923      2.00000
      6       0.1220      2.00000
      7       2.1076      2.00000
      8       2.6596      2.00000
      9       3.7849      2.00000
     10       4.2149      2.00000
     11       4.5193      2.00000
     12       5.9105      2.00000
     13       6.3591      2.00000
     14       6.9127      2.00000
     15       7.7621      2.00000
     16       8.8572      2.00000
     17      15.9275      0.00000
     18      16.4518      0.00000
     19      19.1700      0.00000
     20      19.9753      0.00000
     21      20.1961      0.00000
     22      21.0059      0.00000
     23      21.1344      0.00000
     24      21.1673      0.00000

 k-point    13 :       0.4643    0.1071    0.0357
  band No.  band energies     occupation 
      1      -8.3929      2.00000
      2      -7.7432      2.00000
      3      -2.0464      2.00000
      4      -1.8045      2.00000
[...]
     11       6.3082      2.00000
     12       7.3286      2.00000
     13       7.4401      2.00000
     14       7.4401      2.00000
     15       7.8051      2.00000
     16       8.9397      2.00000
     17      18.5556      0.00000
     18      18.9672      0.00000
     19      18.9672      0.00000
     20      19.4831      0.00000
     21      19.8769      0.00000
     22      20.3838      0.00000
     23      20.7943      0.00000
     24      20.7943      0.00000

 k-point    73 :       0.4643    0.3929    0.2500
  band No.  band energies     occupation 
      1      -6.5835      2.00000
      2      -5.9724      2.00000
      3      -4.8387      2.00000
      4      -4.3727      2.00000
      5      -1.3903      2.00000
      6      -0.9388      2.00000
      7       0.1520      2.00000
      8       0.7405      2.00000
      9       5.7333      2.00000
     10       6.0431      2.00000
     11       6.8669      2.00000
     12       7.3546      2.00000
     13       7.5367      2.00000
     14       7.5649      2.00000
     15       8.0863      2.00000
     16       8.6223      2.00000
     17      19.0018      0.00000
     18      19.2282      0.00000
     19      19.4525      0.00000
     20      19.4722      0.00000
     21      20.0275      0.00000
     22      20.3189      0.00000
     23      20.3426      0.00000
     24      20.9395      0.00000

 k-point    74 :       0.4643    0.4643    0.2500
  band No.  band energies     occupation 
      1      -6.0625      2.00000
      2      -5.4741      2.00000
      3      -5.4741      2.00000
      4      -4.9266      2.00000
      5      -1.0143      2.00000
      6      -0.4856      2.00000
      7      -0.4856      2.00000
      8       0.0813      2.00000
      9       6.1339      2.00000
     10       6.5143      2.00000
     11       6.5143      2.00000
     12       6.9497      2.00000
     13       7.9312      2.00000
     14       8.1178      2.00000
     15       8.1178      2.00000
     16       8.4889      2.00000
     17      19.1801      0.00000
     18      19.5278      0.00000
     19      19.5278      0.00000
     20      19.6714      0.00000
     21      20.0453      0.00000
     22      20.2348      0.00000
     23      20.2348      0.00000
     24      20.8490      0.00000

 k-point    75 :       0.3214    0.3214    0.3214
  band No.  band energies     occupation 
      1      -7.6623      2.00000
      2      -4.6597      2.00000
      3      -4.6597      2.00000
      4      -4.6597      2.00000
      5      -0.8024      2.00000
      6      -0.8024      2.00000
      7      -0.8024      2.00000
      8       2.0910      2.00000
      9       5.8720      2.00000
     10       5.8720      2.00000
     11       5.8720      2.00000
     12       7.0129      2.00000
     13       7.0129      2.00000
     14       7.0129      2.00000
     15       8.8868      2.00000
     16       8.8868      2.00000
     17      18.1741      0.00000
     18      18.1741      0.00000
     19      18.1741      0.00000
     20      19.4745      0.00000
     21      19.4745      0.00000
     22      19.8594      0.00000
     23      22.2829      0.00000
     24      22.2829      0.00000

 k-point    76 :       0.3929    0.3214    0.3214
  band No.  band energies     occupation 
      1      -7.2094      2.00000
      2      -5.3823      2.00000
      3      -4.3663      2.00000
      4      -4.3663      2.00000
      5      -1.4046      2.00000
      6      -1.4046      2.00000
      7      -0.4231      2.00000
      8       1.3401      2.00000
      9       6.0701      2.00000
     10       6.0701      2.00000
     11       6.8779      2.00000
     12       7.2127      2.00000
     13       7.2127      2.00000
     14       7.3360      2.00000
     15       8.4958      2.00000
     16       8.8092      2.00000
     17      18.4701      0.00000
     18      18.6236      0.00000
     19      18.6236      0.00000
     20      19.2909      0.00000
     21      19.8798      0.00000
     22      20.0796      0.00000
     23      21.4428      0.00000
     24      21.4432      0.00000

 k-point    77 :       0.4643    0.3214    0.3214
  band No.  band energies     occupation 
      1      -6.6734      2.00000
      2      -6.0607      2.00000
      3      -4.1536      2.00000
      4      -4.1536      2.00000
      5      -1.7736      2.00000
      6      -1.7736      2.00000
      7       0.0721      2.00000
      8       0.6638      2.00000
      9       6.1748      2.00000
     10       6.1748      2.00000
     11       7.3047      2.00000
     12       7.3047      2.00000
     13       7.7008      2.00000
     14       7.7473      2.00000
     15       8.0935      2.00000
     16       8.4135      2.00000
     17      18.7725      0.00000
     18      19.0541      0.00000
     19      19.2404      0.00000
     20      19.2404      0.00000
     21      20.3760      0.00000
     22      20.5407      0.00000
     23      20.5520      0.00000
     24      20.5520      0.00000

 k-point    78 :       0.3929    0.3929    0.3214
  band No.  band energies     occupation 
      1      -6.7642      2.00000
      2      -5.0089      2.00000
      3      -5.0089      2.00000
      4      -4.2365      2.00000
      5      -1.8591      2.00000
      6      -1.1065      2.00000
      7      -1.1065      2.00000
      8       0.5917      2.00000
      9       6.4103      2.00000
     10       6.9381      2.00000
     11       6.9381      2.00000
     12       7.5333      2.00000
     13       7.5754      2.00000
     14       7.5754      2.00000
     15       8.3128      2.00000
     16       8.7551      2.00000
     17      18.7978      0.00000
     18      18.9002      0.00000
     19      18.9002      0.00000
     20      19.5166      0.00000
     21      19.7885      0.00000
     22      20.1314      0.00000
     23      20.8626      0.00000
     24      20.8626      0.00000

 k-point    79 :       0.4643    0.3929    0.3214
  band No.  band energies     occupation 
      1      -6.2405      2.00000
      2      -5.6486      2.00000
      3      -4.6241      2.00000
      4      -4.3218      2.00000
      5      -1.9407      2.00000
      6      -1.6449      2.00000
      7      -0.6494      2.00000
      8      -0.0763      2.00000
      9       6.6636      2.00000
     10       6.8442      2.00000
     11       7.5462      2.00000
     12       7.7154      2.00000
     13       7.7259      2.00000
     14       7.9663      2.00000
     15       8.0637      2.00000
     16       8.5209      2.00000
     17      19.1748      0.00000
     18      19.2024      0.00000
     19      19.4123      0.00000
     20      19.4221      0.00000
     21      20.0225      0.00000
     22      20.2087      0.00000
     23      20.3830      0.00000
     24      20.4836      0.00000

 k-point    80 :       0.4643    0.4643    0.3214
  band No.  band energies     occupation 
      1      -5.7377      2.00000
      2      -5.1844      2.00000
      3      -5.1844      2.00000
      4      -4.7103      2.00000
      5      -1.7268      2.00000
      6      -1.2643      2.00000
      7      -1.2643      2.00000
      8      -0.7267      2.00000
      9       7.0241      2.00000
     10       7.3130      2.00000
     11       7.3130      2.00000
     12       7.6737      2.00000
     13       8.0399      2.00000
     14       8.1695      2.00000
     15       8.1695      2.00000
     16       8.4660      2.00000
     17      19.3562      0.00000
     18      19.5776      0.00000
     19      19.5776      0.00000
     20      19.7352      0.00000
     21      19.8266      0.00000
     22      20.0186      0.00000
     23      20.0186      0.00000
     24      20.4262      0.00000

 k-point    81 :       0.3929    0.3929    0.3929
  band No.  band energies     occupation 
      1      -6.3302      2.00000
      2      -4.7083      2.00000
      3      -4.7083      2.00000
      4      -4.7083      2.00000
      5      -1.7311      2.00000
      6      -1.7311      2.00000
      7      -1.7311      2.00000
      8      -0.1538      2.00000
      9       7.2976      2.00000
     10       7.2976      2.00000
     11       7.2976      2.00000
     12       7.7700      2.00000
     13       7.7700      2.00000
     14       7.7700      2.00000
     15       8.5329      2.00000
     16       8.5329      2.00000
     17      19.0583      0.00000
     18      19.0583      0.00000
     19      19.0583      0.00000
     20      19.6516      0.00000
     21      19.6516      0.00000
     22      20.0937      0.00000
     23      20.7324      0.00000
     24      20.7324      0.00000

 k-point    82 :       0.4643    0.3929    0.3929
  band No.  band energies     occupation 
      1      -5.8258      2.00000
      2      -5.2707      2.00000
      3      -4.4887      2.00000
      4      -4.4887      2.00000
      5      -2.1141      2.00000
      6      -2.1141      2.00000
      7      -1.3489      2.00000
      8      -0.8084      2.00000
      9       7.4227      2.00000
     10       7.4227      2.00000
     11       7.9350      2.00000
     12       7.9350      2.00000
     13       7.9927      2.00000
     14       8.0255      2.00000
     15       8.2851      2.00000
     16       8.4230      2.00000
     17      19.3050      0.00000
     18      19.4050      0.00000
     19      19.4050      0.00000
     20      19.5054      0.00000
     21      19.9020      0.00000
     22      20.1965      0.00000
     23      20.1970      0.00000
     24      20.2601      0.00000

 k-point    83 :       0.4643    0.4643    0.3929
  band No.  band energies     occupation 
      1      -5.3582      2.00000
      2      -4.8801      2.00000
      3      -4.8801      2.00000
      4      -4.5731      2.00000
      5      -2.2006      2.00000
      6      -1.8989      2.00000
      7      -1.8989      2.00000
      8      -1.4310      2.00000
      9       7.7397      2.00000
     10       7.9073      2.00000
     11       7.9073      2.00000
     12       8.1540      2.00000
     13       8.1652      2.00000
     14       8.2133      2.00000
     15       8.2133      2.00000
     16       8.4219      2.00000
     17      19.5195      0.00000
     18      19.5784      0.00000
     19      19.5784      0.00000
     20      19.6989      0.00000
     21      19.7400      0.00000
     22      19.9309      0.00000
     23      19.9309      0.00000
     24      20.0695      0.00000

 k-point    84 :       0.4643    0.4643    0.4643
  band No.  band energies     occupation 
      1      -4.9658      2.00000
      2      -4.6571      2.00000
      3      -4.6571      2.00000
      4      -4.6571      2.00000
      5      -2.2883      2.00000
      6      -2.2883      2.00000
      7      -2.2883      2.00000
      8      -1.9847      2.00000
      9       8.2043      2.00000
     10       8.2043      2.00000
     11       8.2043      2.00000
     12       8.2618      2.00000
     13       8.2618      2.00000
     14       8.2618      2.00000
     15       8.3533      2.00000
     16       8.3533      2.00000
     17      19.6326      0.00000
     18      19.6326      0.00000
     19      19.6326      0.00000
     20      19.6920      0.00000
     21      19.6920      0.00000
     22      19.8175      0.00000
     23      19.8175      0.00000
     24      19.8176      0.00000


--------------------------------------------------------------------------------------------------------


 soft charge-density along one line, spin component           1
         0         1         2         3         4         5         6         7         8         9
 total charge-density along one line
 
 pseudopotential strength for first ion, spin component:           1
 12.159  20.448  -0.000   0.000   0.000  -0.000   0.000   0.000
 20.448  34.388  -0.000   0.000  -0.000  -0.000   0.000  -0.000
 -0.000  -0.000  -2.964   0.000   0.000  -5.296   0.000   0.000
  0.000   0.000   0.000  -2.964   0.000   0.000  -5.296   0.000
  0.000  -0.000   0.000   0.000  -2.964   0.000   0.000  -5.296
 -0.000  -0.000  -5.296   0.000   0.000  -9.440   0.000   0.000
  0.000   0.000   0.000  -5.296   0.000   0.000  -9.440   0.000
  0.000  -0.000   0.000   0.000  -5.296   0.000   0.000  -9.440
 total augmentation occupancy for first ion, spin component:           1
  7.385  -2.598  -0.000  -0.000  -0.000   0.000  -0.000   0.000
 -2.598   0.969  -0.000  -0.000  -0.000  -0.000   0.000  -0.000
 -0.000   0.000   5.831   0.000   0.000  -1.901   0.000   0.000
 -0.000  -0.000   0.000   5.831  -0.000   0.000  -1.901   0.000
  0.000  -0.000   0.000  -0.000   5.831   0.000   0.000  -1.901
 -0.000  -0.000  -1.901  -0.000   0.000   0.638  -0.000   0.000
  0.000   0.000  -0.000  -1.901  -0.000   0.000   0.638   0.000
  0.000  -0.000  -0.000  -0.000  -1.901  -0.000  -0.000   0.638


------------------------ aborting loop because EDIFF is reached ----------------------------------------


    CHARGE:  cpu time    0.0730: real time    0.0731
    FORLOC:  cpu time    0.0010: real time    0.0027
    FORNL :  cpu time    0.1960: real time    0.2029
    STRESS:  cpu time    1.1808: real time    1.1907
    FORCOR:  cpu time    0.0060: real time    0.0106
    FORHAR:  cpu time    0.0020: real time    0.0032
    MIXING:  cpu time    0.0000: real time    0.0005
    OFIELD:  cpu time    0.0010: real time    0.0022

  FORCE on cell =-STRESS in cart. coord.  units (eV):
  Direction    XX          YY          ZZ          XY          YZ          ZX
  --------------------------------------------------------------------------------------
  Alpha Z    78.43686    78.43686    78.43686
  Ewald    -466.17039  -466.17039  -466.17039    -0.00000     0.00000    -0.00000
  Hartree    34.81786    34.81786    34.81786    -0.00000    -0.00000    -0.00000
  E(xc)    -132.65294  -132.65294  -132.65294     0.00000     0.00000     0.00000
  Local    -125.40274  -125.40274  -125.40274    -0.00000     0.00000     0.00000
  n-local    28.37804    27.61489    28.02086     0.57927     0.77975     0.37645
  augment     0.47385     0.47385     0.47385     0.00000    -0.00000    -0.00000
  Kinetic   573.20736   590.44944   590.17709    -6.01300    -7.91336    -4.28225
  Fock        0.00000     0.00000     0.00000     0.00000     0.00000     0.00000
  -------------------------------------------------------------------------------------
  Total       2.11839     2.11839     2.11839     0.00000     0.00000    -0.00000
  in kB      75.87734    75.87734    75.87734     0.00000     0.00000    -0.00000
  external pressure =       75.88 kB  Pullay stress =        0.00 kB


 VOLUME and BASIS-vectors are now :
 -----------------------------------------------------------------------------
  energy-cutoff  :      875.00
  volume of cell :       44.73
      direct lattice vectors                 reciprocal lattice vectors
     3.549781037  0.000000000  0.000000000     0.281707516  0.000000000  0.000000000
     0.000000000  3.549781037  0.000000000     0.000000000  0.281707516  0.000000000
     0.000000000  0.000000000  3.549781037     0.000000000  0.000000000  0.281707516

  length of vectors
     3.549781037  3.549781037  3.549781037     0.281707516  0.281707516  0.281707516


 FORCES acting on ions
    electron-ion (+dipol)            ewald-force                    non-local-force                 convergence-correction
 -----------------------------------------------------------------------------------------------
   0.500E-14 0.210E-12 -.403E-14   0.142E-13 0.711E-14 -.142E-13   0.746E-16 0.347E-16 0.286E-16   0.133E-14 -.307E-14 -.102E-14
   -.450E-14 0.208E-14 -.104E-13   -.166E-13 -.690E-14 -.213E-13   -.520E-16 0.312E-16 -.304E-16   -.326E-14 0.831E-14 0.149E-15
   0.550E-14 0.252E-12 0.115E-13   0.142E-13 0.711E-14 0.000E+00   0.555E-16 -.165E-16 0.555E-16   0.584E-15 -.492E-14 0.132E-14
   -.651E-14 0.250E-13 0.103E-13   -.126E-13 -.709E-14 -.590E-14   -.711E-16 0.347E-16 -.173E-16   -.320E-14 0.786E-14 -.914E-15
   0.290E-13 -.189E-12 -.357E-12   0.711E-14 0.711E-14 0.711E-14   0.555E-16 -.269E-16 0.156E-16   0.387E-15 -.388E-14 0.121E-14
   0.185E-13 0.128E-14 -.751E-12   -.708E-14 -.947E-14 0.120E-14   -.572E-16 0.208E-16 -.468E-16   0.219E-14 0.880E-14 -.786E-15
   0.165E-13 -.530E-12 -.278E-13   0.711E-14 0.711E-14 0.213E-13   0.503E-16 -.312E-16 0.252E-16   -.105E-15 -.561E-14 -.138E-14
   0.150E-13 -.374E-12 -.420E-12   -.705E-14 -.719E-14 0.142E-13   -.833E-16 -.243E-16 -.304E-16   0.241E-14 0.787E-14 0.150E-14
 -----------------------------------------------------------------------------------------------
   0.786E-13 -.603E-12 -.155E-11   -.710E-15 -.222E-14 0.238E-14   -.278E-16 0.226E-16 0.000E+00   0.339E-15 0.154E-13 0.759E-16
 
 
 POSITION                                       TOTAL-FORCE (eV/Angst)
 -----------------------------------------------------------------------------------
      0.88745      0.88745      0.88745        -0.000000      0.000000     -0.000000
      0.00000      0.00000      0.00000         0.000000     -0.000000      0.000000
      0.88745      2.66234      2.66234        -0.000000      0.000000     -0.000000
      0.00000      1.77489      1.77489         0.000000      0.000000      0.000000
      2.66234      0.88745      2.66234        -0.000000      0.000000     -0.000000
      1.77489      0.00000      1.77489         0.000000     -0.000000      0.000000
      2.66234      2.66234      0.88745        -0.000000      0.000000     -0.000000
      1.77489      1.77489      0.00000         0.000000     -0.000000      0.000000
 -----------------------------------------------------------------------------------
    total drift:                                0.000000     -0.000000     -0.000000


--------------------------------------------------------------------------------------------------------



  FREE ENERGIE OF THE ION-ELECTRON SYSTEM (eV)
  ---------------------------------------------------
  free  energy   TOTEN  =       -72.82348480 eV

  energy  without entropy=      -72.82348480  energy(sigma->0) =      -72.82348480
 


--------------------------------------------------------------------------------------------------------


    POTLOK:  cpu time    0.0130: real time    0.0155


--------------------------------------------------------------------------------------------------------


 stress matrix after NEB project (eV)
      2.11839     -0.00000     -0.00000
      0.00000      2.11839     -0.00000
      0.00000      0.00000      2.11839
  FORCES: max atom, RMS     0.000000    0.000000
  FORCE total and by dimension    0.000000    0.000000
  Stress total and by dimension    3.669161    2.118391


--------------------------------------------------------------------------------------------------------


  
 reached required accuracy - stopping structural energy minimisation
     LOOP+:  cpu time   29.1256: real time   29.7135
    4ORBIT:  cpu time    0.0000: real time    0.0000

 total amount of memory used by VASP MPI-rank0    51382. kBytes
=======================================================================

   base      :      30000. kBytes
   nonl-proj :      14662. kBytes
   fftplans  :        905. kBytes
   grid      :       2114. kBytes
   one-center:         24. kBytes
   wavefun   :       3677. kBytes
 
  
  
 General timing and accounting informations for this job:
 ========================================================
  
                  Total CPU time used (sec):       31.653
                            User time (sec):       30.547
                          System time (sec):        1.106
                         Elapsed time (sec):       33.053
  
                   Maximum memory used (kb):      126456.
                   Average memory used (kb):           0.
  
                          Minor page faults:        31650
                          Major page faults:          388
                 Voluntary context switches:         9435
