<?xml version="1.0" encoding="ISO-8859-1"?>
<modeling>
 <generator>
  <i name="program" type="string">vasp </i>
  <i name="version" type="string">5.4.4.18Apr17-6-g9f103f2a35  </i>
  <i name="subversion" type="string">(build Jan 14 2019 14:48:31) complex            parallel </i>
  <i name="platform" type="string">LinuxIFC </i>
  <i name="date" type="string">2019 08 26 </i>
  <i name="time" type="string">21:13:34 </i>
 </generator>
 <incar>
  <i type="int" name="ISTART">     0</i>
  <i type="string" name="PREC">high     (precision level)</i>
  <i type="logical" name="ADDGRID"> T  </i>
  <i type="int" name="NELM">    40</i>
  <i type="int" name="NELMIN">     4</i>
  <i type="int" name="IBRION">     2</i>
  <i name="EDIFF">      0.00000001</i>
  <i name="EDIFFG">     -0.01000000</i>
  <i type="int" name="NSW">   100</i>
  <i type="int" name="ISIF">     2</i>
  <i type="logical" name="LREAL"> F  </i>
  <i type="int" name="ISMEAR">     0</i>
  <i name="SIGMA">      0.05000000</i>
  <i type="logical" name="LWAVE"> F  </i>
  <i type="logical" name="LCHARG"> F  </i>
  <v type="int" name="KPOINT_BSE">    -1     0     0     0</v>
  <i type="int" name="NELM">    40</i>
 </incar>
 <structure name="primitive_cell" >
  <crystal>
   <varray name="basis" >
    <v>       1.77489052       1.77489052      -0.00000000 </v>
    <v>       1.77489052       0.00000000      -1.77489052 </v>
    <v>       0.00000000       1.77489052      -1.77489052 </v>
   </varray>
   <i name="volume">     11.18264927 </i>
   <varray name="rec_basis" >
    <v>       0.28170752       0.28170752       0.28170752 </v>
    <v>       0.28170752      -0.28170752      -0.28170752 </v>
    <v>      -0.28170752       0.28170752      -0.28170752 </v>
   </varray>
  </crystal>
  <varray name="positions" >
   <v>      -0.25000000      -0.25000000      -0.25000000 </v>
   <v>       0.00000000       0.00000000       0.00000000 </v>
  </varray>
 </structure>
 <varray name="primitive_index" >
  <v type="int" >        1 </v>
  <v type="int" >        2 </v>
 </varray>
 <kpoints>
  <generation param="Monkhorst-Pack">
   <v type="int" name="divisions">      14       14       14 </v>
   <v name="usershift">      0.00000000       0.00000000       0.00000000 </v>
   <v name="genvec1">      0.07142857       0.00000000       0.00000000 </v>
   <v name="genvec2">      0.00000000       0.07142857       0.00000000 </v>
   <v name="genvec3">      0.00000000       0.00000000       0.07142857 </v>
   <v name="shift">      0.50000000       0.50000000       0.50000000 </v>
  </generation>
  <varray name="kpointlist" >
   <v>       0.03571429       0.03571429       0.03571429 </v>
   <v>       0.10714286       0.03571429       0.03571429 </v>
   <v>       0.17857143       0.03571429       0.03571429 </v>
   <v>       0.25000000       0.03571429       0.03571429 </v>
   <v>       0.32142857       0.03571429       0.03571429 </v>
   <v>       0.39285714       0.03571429       0.03571429 </v>
   <v>       0.46428571       0.03571429       0.03571429 </v>
   <v>       0.10714286       0.10714286       0.03571429 </v>
   <v>       0.17857143       0.10714286       0.03571429 </v>
   <v>       0.25000000       0.10714286       0.03571429 </v>
   <v>       0.32142857       0.10714286       0.03571429 </v>
   <v>       0.39285714       0.10714286       0.03571429 </v>
   <v>       0.46428571       0.10714286       0.03571429 </v>
   <v>       0.17857143       0.17857143       0.03571429 </v>
   <v>       0.25000000       0.17857143       0.03571429 </v>
   <v>       0.32142857       0.17857143       0.03571429 </v>
   <v>       0.39285714       0.17857143       0.03571429 </v>
   <v>       0.46428571       0.17857143       0.03571429 </v>
   <v>       0.25000000       0.25000000       0.03571429 </v>
   <v>       0.32142857       0.25000000       0.03571429 </v>
   <v>       0.39285714       0.25000000       0.03571429 </v>
   <v>       0.46428571       0.25000000       0.03571429 </v>
   <v>       0.32142857       0.32142857       0.03571429 </v>
   <v>       0.39285714       0.32142857       0.03571429 </v>
   <v>       0.46428571       0.32142857       0.03571429 </v>
   <v>       0.39285714       0.39285714       0.03571429 </v>
   <v>       0.46428571       0.39285714       0.03571429 </v>
   <v>       0.46428571       0.46428571       0.03571429 </v>
   <v>       0.10714286       0.10714286       0.10714286 </v>
   <v>       0.17857143       0.10714286       0.10714286 </v>
   <v>       0.25000000       0.10714286       0.10714286 </v>
   <v>       0.32142857       0.10714286       0.10714286 </v>
   <v>       0.39285714       0.10714286       0.10714286 </v>
   <v>       0.46428571       0.10714286       0.10714286 </v>
   <v>       0.17857143       0.17857143       0.10714286 </v>
   <v>       0.25000000       0.17857143       0.10714286 </v>
   <v>       0.32142857       0.17857143       0.10714286 </v>
   <v>       0.39285714       0.17857143       0.10714286 </v>
   <v>       0.46428571       0.17857143       0.10714286 </v>
   <v>       0.25000000       0.25000000       0.10714286 </v>
   <v>       0.32142857       0.25000000       0.10714286 </v>
   <v>       0.39285714       0.25000000       0.10714286 </v>
   <v>       0.46428571       0.25000000       0.10714286 </v>
   <v>       0.32142857       0.32142857       0.10714286 </v>
   <v>       0.39285714       0.32142857       0.10714286 </v>
   <v>       0.46428571       0.32142857       0.10714286 </v>
   <v>       0.39285714       0.39285714       0.10714286 </v>
   <v>       0.46428571       0.39285714       0.10714286 </v>
   <v>       0.46428571       0.46428571       0.10714286 </v>
   <v>       0.17857143       0.17857143       0.17857143 </v>
   <v>       0.25000000       0.17857143       0.17857143 </v>
   <v>       0.32142857       0.17857143       0.17857143 </v>
   <v>       0.39285714       0.17857143       0.17857143 </v>
   <v>       0.46428571       0.17857143       0.17857143 </v>
   <v>       0.25000000       0.25000000       0.17857143 </v>
   <v>       0.32142857       0.25000000       0.17857143 </v>
   <v>       0.39285714       0.25000000       0.17857143 </v>
   <v>       0.46428571       0.25000000       0.17857143 </v>
   <v>       0.32142857       0.32142857       0.17857143 </v>
   <v>       0.39285714       0.32142857       0.17857143 </v>
   <v>       0.46428571       0.32142857       0.17857143 </v>
   <v>       0.39285714       0.39285714       0.17857143 </v>
   <v>       0.46428571       0.39285714       0.17857143 </v>
   <v>       0.46428571       0.46428571       0.17857143 </v>
   <v>       0.25000000       0.25000000       0.25000000 </v>
   <v>       0.32142857       0.25000000       0.25000000 </v>
   <v>       0.39285714       0.25000000       0.25000000 </v>
   <v>       0.46428571       0.25000000       0.25000000 </v>
   <v>       0.32142857       0.32142857       0.25000000 </v>
   <v>       0.39285714       0.32142857       0.25000000 </v>
   <v>       0.46428571       0.32142857       0.25000000 </v>
   <v>       0.39285714       0.39285714       0.25000000 </v>
   <v>       0.46428571       0.39285714       0.25000000 </v>
   <v>       0.46428571       0.46428571       0.25000000 </v>
   <v>       0.32142857       0.32142857       0.32142857 </v>
   <v>       0.39285714       0.32142857       0.32142857 </v>
   <v>       0.46428571       0.32142857       0.32142857 </v>
   <v>       0.39285714       0.39285714       0.32142857 </v>
   <v>       0.46428571       0.39285714       0.32142857 </v>
   <v>       0.46428571       0.46428571       0.32142857 </v>
   <v>       0.39285714       0.39285714       0.39285714 </v>
   <v>       0.46428571       0.39285714       0.39285714 </v>
   <v>       0.46428571       0.46428571       0.39285714 </v>
   <v>       0.46428571       0.46428571       0.46428571 </v>
  </varray>
  <varray name="weights" >
   <v>       0.00291545 </v>
   <v>       0.00874636 </v>
   <v>       0.00874636 </v>
   <v>       0.00874636 </v>
   <v>       0.00874636 </v>
   <v>       0.00874636 </v>
   <v>       0.00874636 </v>
   <v>       0.00874636 </v>
   <v>       0.01749271 </v>
   <v>       0.01749271 </v>
   <v>       0.01749271 </v>
   <v>       0.01749271 </v>
   <v>       0.01749271 </v>
   <v>       0.00874636 </v>
   <v>       0.01749271 </v>
   <v>       0.01749271 </v>
   <v>       0.01749271 </v>
   <v>       0.01749271 </v>
   <v>       0.00874636 </v>
   <v>       0.01749271 </v>
   <v>       0.01749271 </v>
   <v>       0.01749271 </v>
   <v>       0.00874636 </v>
   <v>       0.01749271 </v>
   <v>       0.01749271 </v>
   <v>       0.00874636 </v>
   <v>       0.01749271 </v>
   <v>       0.00874636 </v>
   <v>       0.00291545 </v>
   <v>       0.00874636 </v>
   <v>       0.00874636 </v>
   <v>       0.00874636 </v>
   <v>       0.00874636 </v>
   <v>       0.00874636 </v>
   <v>       0.00874636 </v>
   <v>       0.01749271 </v>
   <v>       0.01749271 </v>
   <v>       0.01749271 </v>
   <v>       0.01749271 </v>
   <v>       0.00874636 </v>
   <v>       0.01749271 </v>
   <v>       0.01749271 </v>
   <v>       0.01749271 </v>
   <v>       0.00874636 </v>
   <v>       0.01749271 </v>
   <v>       0.01749271 </v>
   <v>       0.00874636 </v>
   <v>       0.01749271 </v>
   <v>       0.00874636 </v>
   <v>       0.00291545 </v>
   <v>       0.00874636 </v>
   <v>       0.00874636 </v>
   <v>       0.00874636 </v>
   <v>       0.00874636 </v>
   <v>       0.00874636 </v>
   <v>       0.01749271 </v>
   <v>       0.01749271 </v>
   <v>       0.01749271 </v>
   <v>       0.00874636 </v>
   <v>       0.01749271 </v>
   <v>       0.01749271 </v>
   <v>       0.00874636 </v>
   <v>       0.01749271 </v>
   <v>       0.00874636 </v>
   <v>       0.00291545 </v>
   <v>       0.00874636 </v>
   <v>       0.00874636 </v>
   <v>       0.00874636 </v>
   <v>       0.00874636 </v>
   <v>       0.01749271 </v>
   <v>       0.01749271 </v>
   <v>       0.00874636 </v>
   <v>       0.01749271 </v>
   <v>       0.00874636 </v>
   <v>       0.00291545 </v>
   <v>       0.00874636 </v>
   <v>       0.00874636 </v>
   <v>       0.00874636 </v>
   <v>       0.01749271 </v>
   <v>       0.00874636 </v>
   <v>       0.00291545 </v>
   <v>       0.00874636 </v>
   <v>       0.00874636 </v>
   <v>       0.00291545 </v>
  </varray>
 </kpoints>
 <parameters>
  <separator name="general" >
   <i type="string" name="SYSTEM">unknown system</i>
   <i type="logical" name="LCOMPAT"> F  </i>
  </separator>
  <separator name="electronic" >
   <i type="string" name="PREC">high</i>
   <i name="ENMAX">    875.00000000</i>
   <i name="ENAUG">    946.76800000</i>
   <i name="EDIFF">      0.00000001</i>
   <i type="int" name="IALGO">    38</i>
   <i type="int" name="IWAVPR">    11</i>
   <i type="int" name="NBANDS">    24</i>
   <i name="NELECT">     32.00000000</i>
   <i type="int" name="TURBO">     0</i>
   <i type="int" name="IRESTART">     0</i>
   <i type="int" name="NREBOOT">     0</i>
   <i type="int" name="NMIN">     0</i>
   <i name="EREF">      0.00000000</i>
   <separator name="electronic smearing" >
    <i type="int" name="ISMEAR">     0</i>
    <i name="SIGMA">      0.05000000</i>
    <i name="KSPACING">      0.50000000</i>
    <i type="logical" name="KGAMMA"> T  </i>
   </separator>
   <separator name="electronic projectors" >
    <i type="logical" name="LREAL"> F  </i>
    <v name="ROPT">      0.00000000</v>
    <i type="int" name="LMAXPAW">  -100</i>
    <i type="int" name="LMAXMIX">     2</i>
    <i type="logical" name="NLSPLINE"> F  </i>
   </separator>
   <separator name="electronic startup" >
    <i type="int" name="ISTART">     0</i>
    <i type="int" name="ICHARG">     2</i>
    <i type="int" name="INIWAV">     1</i>
   </separator>
   <separator name="electronic spin" >
    <i type="int" name="ISPIN">     1</i>
    <i type="logical" name="LNONCOLLINEAR"> F  </i>
    <v name="MAGMOM">      1.00000000      1.00000000      1.00000000      1.00000000      1.00000000      1.00000000      1.00000000      1.00000000</v>
    <i name="NUPDOWN">     -1.00000000</i>
    <i type="logical" name="LSORBIT"> F  </i>
    <v name="SAXIS">      0.00000000      0.00000000      1.00000000</v>
    <i type="logical" name="LSPIRAL"> F  </i>
    <v name="QSPIRAL">      0.00000000      0.00000000      0.00000000</v>
    <i type="logical" name="LZEROZ"> F  </i>
   </separator>
   <separator name="electronic exchange-correlation" >
    <i type="logical" name="LASPH"> F  </i>
    <i type="logical" name="LMETAGGA"> F  </i>
   </separator>
   <separator name="electronic convergence" >
    <i type="int" name="NELM">    40</i>
    <i type="int" name="NELMDL">    -5</i>
    <i type="int" name="NELMIN">     4</i>
    <i name="ENINI">    875.00000000</i>
    <separator name="electronic convergence detail" >
     <i type="logical" name="LDIAG"> T  </i>
     <i type="logical" name="LSUBROT"> F  </i>
     <i name="WEIMIN">      0.00100000</i>
     <i name="EBREAK">      0.00000000</i>
     <i name="DEPER">      0.30000000</i>
     <i type="int" name="NRMM">     4</i>
     <i name="TIME">      0.40000000</i>
    </separator>
   </separator>
   <separator name="electronic mixer" >
    <i name="AMIX">      0.40000000</i>
    <i name="BMIX">      1.00000000</i>
    <i name="AMIN">      0.10000000</i>
    <i name="AMIX_MAG">      1.60000000</i>
    <i name="BMIX_MAG">      1.00000000</i>
    <separator name="electronic mixer details" >
     <i type="int" name="IMIX">     4</i>
     <i type="logical" name="MIXFIRST"> F  </i>
     <i type="int" name="MAXMIX">   -45</i>
     <i name="WC">    100.00000000</i>
     <i type="int" name="INIMIX">     1</i>
     <i type="int" name="MIXPRE">     1</i>
     <i type="int" name="MREMOVE">     5</i>
    </separator>
   </separator>
   <separator name="electronic dipolcorrection" >
    <i type="logical" name="LDIPOL"> F  </i>
    <i type="logical" name="LMONO"> F  </i>
    <i type="int" name="IDIPOL">     0</i>
    <i name="EPSILON">      1.00000000</i>
    <v name="DIPOL">   -100.00000000   -100.00000000   -100.00000000</v>
    <i name="EFIELD">      0.00000000</i>
   </separator>
  </separator>
  <separator name="grids" >
   <i type="int" name="NGX">    36</i>
   <i type="int" name="NGY">    36</i>
   <i type="int" name="NGZ">    36</i>
   <i type="int" name="NGXF">    48</i>
   <i type="int" name="NGYF">    48</i>
   <i type="int" name="NGZF">    48</i>
   <i type="logical" name="ADDGRID"> T  </i>
  </separator>
  <separator name="ionic" >
   <i type="int" name="NSW">   100</i>
   <i type="int" name="IBRION">     2</i>
   <i type="int" name="MDALGO">     0</i>
   <i type="int" name="ISIF">     2</i>
   <i name="PSTRESS">      0.00000000</i>
   <i name="EDIFFG">     -0.01000000</i>
   <i type="int" name="NFREE">     1</i>
   <i name="POTIM">      0.50000000</i>
   <i name="SMASS">     -3.00000000</i>
   <i name="SCALEE">      1.00000000</i>
  </separator>
  <separator name="ionic md" >
   <i name="TEBEG">      0.00010000</i>
   <i name="TEEND">      0.00010000</i>
   <i type="int" name="NBLOCK">     1</i>
   <i type="int" name="KBLOCK">   100</i>
   <i type="int" name="NPACO">   256</i>
   <i name="APACO">     16.00000000</i>
  </separator>
  <separator name="symmetry" >
   <i type="int" name="ISYM">     2</i>
   <i name="SYMPREC">      0.00001000</i>
  </separator>
  <separator name="dos" >
   <i type="int" name="LORBIT">     0</i>
   <v name="RWIGS">     -1.00000000</v>
   <i type="int" name="NEDOS">   301</i>
   <i name="EMIN">     10.00000000</i>
   <i name="EMAX">    -10.00000000</i>
   <i name="EFERMI">      0.00000000</i>
  </separator>
  <separator name="writing" >
   <i type="int" name="NWRITE">     2</i>
   <i type="logical" name="LWAVE"> F  </i>
   <i type="logical" name="LDOWNSAMPLE"> F  </i>
   <i type="logical" name="LCHARG"> F  </i>
   <i type="logical" name="LPARD"> F  </i>
   <i type="logical" name="LVTOT"> F  </i>
   <i type="logical" name="LVHAR"> F  </i>
   <i type="logical" name="LELF"> F  </i>
   <i type="logical" name="LOPTICS"> F  </i>
   <v name="STM">      0.00000000      0.00000000      0.00000000      0.00000000      0.00000000      0.00000000      0.00000000</v>
  </separator>
  <separator name="performance" >
   <i type="int" name="NPAR">    24</i>
   <i type="int" name="NSIM">     4</i>
   <i type="int" name="NBLK">    -1</i>
   <i type="logical" name="LPLANE"> T  </i>
   <i type="logical" name="LSCALAPACK"> T  </i>
   <i type="logical" name="LSCAAWARE"> F  </i>
   <i type="logical" name="LSCALU"> F  </i>
   <i type="logical" name="LASYNC"> F  </i>
   <i type="logical" name="LORBITALREAL"> F  </i>
  </separator>
  <separator name="miscellaneous" >
   <i type="int" name="IDIOT">     3</i>
   <i type="int" name="ISPECIAL">     0</i>
   <i type="logical" name="LMUSIC"> F  </i>
   <v name="POMASS">     12.01100000</v>
   <v name="DARWINR">      0.00000000</v>
   <v name="DARWINV">      1.00000000</v>
   <i type="logical" name="LCORR"> T  </i>
  </separator>
  <i type="logical" name="GGA_COMPAT"> T  </i>
  <i type="logical" name="LBERRY"> F  </i>
  <i type="int" name="ICORELEVEL">     0</i>
  <i type="logical" name="LDAU"> F  </i>
  <i type="int" name="I_CONSTRAINED_M">     0</i>
  <separator name="electronic exchange-correlation" >
   <i type="string" name="GGA">--</i>
   <i type="int" name="VOSKOWN">     0</i>
   <i type="logical" name="LHFCALC"> F  </i>
   <i type="string" name="PRECFOCK"></i>
   <i type="logical" name="LSYMGRAD"> F  </i>
   <i type="logical" name="LHFONE"> F  </i>
   <i type="logical" name="LRHFCALC"> F  </i>
   <i type="logical" name="LTHOMAS"> F  </i>
   <i type="logical" name="LMODELHF"> F  </i>
   <i name="ENCUT4O">     -1.00000000</i>
   <i type="int" name="EXXOEP">     0</i>
   <i type="int" name="FOURORBIT">     0</i>
   <i name="AEXX">      0.00000000</i>
   <i name="HFALPHA">      0.00000000</i>
   <i name="MCALPHA">      0.00000000</i>
   <i name="ALDAX">      1.00000000</i>
   <i name="AGGAX">      1.00000000</i>
   <i name="ALDAC">      1.00000000</i>
   <i name="AGGAC">      1.00000000</i>
   <i type="int" name="NKREDX">     1</i>
   <i type="int" name="NKREDY">     1</i>
   <i type="int" name="NKREDZ">     1</i>
   <i type="logical" name="SHIFTRED"> F  </i>
   <i type="logical" name="ODDONLY"> F  </i>
   <i type="logical" name="EVENONLY"> F  </i>
   <i type="int" name="LMAXFOCK">     0</i>
   <i type="int" name="NMAXFOCKAE">     0</i>
   <i type="logical" name="LFOCKAEDFT"> F  </i>
   <i name="HFSCREEN">      0.00000000</i>
   <i name="HFSCREENC">      0.00000000</i>
   <i type="int" name="NBANDSGWLOW">     0</i>
  </separator>
  <separator name="vdW DFT" >
   <i type="logical" name="LUSE_VDW"> F  </i>
   <i name="Zab_VDW">     -0.84910000</i>
   <i name="PARAM1">      0.12340000</i>
   <i name="PARAM2">      1.00000000</i>
   <i name="PARAM3">      0.00000000</i>
  </separator>
  <separator name="model GW" >
   <i type="int" name="MODEL_GW">     0</i>
   <i name="MODEL_EPS0">      3.35479478</i>
   <i name="MODEL_ALPHA">      1.00000000</i>
  </separator>
  <separator name="linear response parameters" >
   <i type="logical" name="LEPSILON"> F  </i>
   <i type="logical" name="LRPA"> F  </i>
   <i type="logical" name="LNABLA"> F  </i>
   <i type="logical" name="LVEL"> F  </i>
   <i type="int" name="KINTER">     0</i>
   <i name="CSHIFT">      0.10000000</i>
   <i name="OMEGAMAX">     -1.00000000</i>
   <i name="DEG_THRESHOLD">      0.00200000</i>
   <i name="RTIME">     -0.10000000</i>
   <i name="WPLASMAI">      0.00000000</i>
   <v name="DFIELD">      0.00000000      0.00000000      0.00000000</v>
   <v name="WPLASMA">      0.00000000      0.00000000      0.00000000      0.00000000      0.00000000      0.00000000      0.00000000      0.00000000      0.00000000</v>
  </separator>
  <separator name="orbital magnetization" >
   <i type="logical" name="NUCIND"> F  </i>
   <v name="MAGPOS">      0.00000000      0.00000000      0.00000000</v>
   <i type="logical" name="LNICSALL"> T  </i>
   <i type="logical" name="ORBITALMAG"> F  </i>
   <i type="logical" name="LMAGBLOCH"> F  </i>
   <i type="logical" name="LCHIMAG"> F  </i>
   <i type="logical" name="LGAUGE"> T  </i>
   <i type="int" name="MAGATOM">     0</i>
   <v name="MAGDIPOL">      0.00000000      0.00000000      0.00000000</v>
   <v name="AVECCONST">      0.00000000      0.00000000      0.00000000</v>
  </separator>
  <separator name="response functions" >
   <i type="logical" name="LADDER"> F  </i>
   <i type="logical" name="LRPAFORCE"> F  </i>
   <i type="logical" name="LFXC"> F  </i>
   <i type="logical" name="LHARTREE"> T  </i>
   <i type="int" name="IBSE">     0</i>
   <v type="int" name="KPOINT">    -1     0     0     0</v>
   <i type="logical" name="LTCTE"> F  </i>
   <i type="logical" name="LTETE"> F  </i>
   <i type="logical" name="LTRIPLET"> F  </i>
   <i type="logical" name="LFXCEPS"> F  </i>
   <i type="logical" name="LFXHEG"> F  </i>
   <i type="int" name="NATURALO">     2</i>
   <i type="logical" name="L2ORDER"> F  </i>
   <i type="logical" name="LMP2LT"> F  </i>
   <i type="logical" name="LUSEW"> F  </i>
   <i name="ENCUTGW">     -2.00000000</i>
   <i name="ENCUTGWSOFT">     -2.00000000</i>
   <i name="ENCUTLF">     -1.00000000</i>
   <i type="int" name="LMAXMP2">    -1</i>
   <i name="SCISSOR">      0.00000000</i>
   <i type="int" name="NOMEGA">     0</i>
   <i type="int" name="NOMEGAR">     0</i>
   <i type="int" name="NBANDSGW">    -1</i>
   <i type="int" name="NBANDSO">    -1</i>
   <i type="int" name="NBANDSV">    -1</i>
   <i type="int" name="NELM">    40</i>
   <i type="int" name="NELMHF">     1</i>
   <i type="int" name="DIM">     3</i>
   <i type="int" name="ANTIRES">     0</i>
   <i name="OMEGAMAX">    -30.00000000</i>
   <i name="OMEGAMIN">    -30.00000000</i>
   <i name="OMEGATL">   -200.00000000</i>
   <i type="int" name="OMEGAGRID">   140</i>
   <i name="CSHIFT">     -0.10000000</i>
   <i type="logical" name="SELFENERGY"> F  </i>
   <i type="logical" name="LSPECTRAL"> F  </i>
   <i type="logical" name="LSPECTRALGW"> F  </i>
   <i type="logical" name="LSINGLES"> F  </i>
   <i type="logical" name="LFERMIGW"> F  </i>
   <i type="logical" name="ODDONLYGW"> F  </i>
   <i type="logical" name="EVENONLYGW"> F  </i>
   <i type="int" name="NKREDLFX">     1</i>
   <i type="int" name="NKREDLFY">     1</i>
   <i type="int" name="NKREDLFZ">     1</i>
   <i type="int" name="MAXMEM">  2800</i>
   <i type="int" name="TELESCOPE">     0</i>
   <i type="int" name="TAUPAR">     1</i>
   <i type="int" name="OMEGAPAR">    -1</i>
   <i name="LAMBDA">      1.00000000</i>
  </separator>
  <separator name="External order field" >
   <i name="OFIELD_KAPPA">      0.00000000</i>
   <v name="OFIELD_K">      0.00000000      0.00000000      0.00000000</v>
   <i name="OFIELD_Q6_NEAR">      0.00000000</i>
   <i name="OFIELD_Q6_FAR">      0.00000000</i>
   <i name="OFIELD_A">      0.00000000</i>
  </separator>
 </parameters>
 <atominfo>
  <atoms>       8 </atoms>
  <types>       1 </types>
  <array name="atoms" >
   <dimension dim="1">ion</dimension>
   <field type="string">element</field>
   <field type="int">atomtype</field>
   <set>
    <rc><c>C </c><c>   1</c></rc>
    <rc><c>C </c><c>   1</c></rc>
    <rc><c>C </c><c>   1</c></rc>
    <rc><c>C </c><c>   1</c></rc>
    <rc><c>C </c><c>   1</c></rc>
    <rc><c>C </c><c>   1</c></rc>
    <rc><c>C </c><c>   1</c></rc>
    <rc><c>C </c><c>   1</c></rc>
   </set>
  </array>
  <array name="atomtypes" >
   <dimension dim="1">type</dimension>
   <field type="int">atomspertype</field>
   <field type="string">element</field>
   <field>mass</field>
   <field>valence</field>
   <field type="string">pseudopotential</field>
   <set>
    <rc><c>   8</c><c>C </c><c>     12.01100000</c><c>      4.00000000</c><c>  PAW_PBE C_h 06Feb2004                 </c></rc>
   </set>
  </array>
 </atominfo>
 <structure name="initialpos" >
  <crystal>
   <varray name="basis" >
    <v>       3.54978104       0.00000000       0.00000000 </v>
    <v>       0.00000000       3.54978104       0.00000000 </v>
    <v>       0.00000000       0.00000000       3.54978104 </v>
   </varray>
   <i name="volume">     44.73059707 </i>
   <varray name="rec_basis" >
    <v>       0.28170752       0.00000000       0.00000000 </v>
    <v>       0.00000000       0.28170752       0.00000000 </v>
    <v>       0.00000000       0.00000000       0.28170752 </v>
   </varray>
  </crystal>
  <varray name="positions" >
   <v>       0.25000000       0.25000000       0.25000000 </v>
   <v>       0.00000000       0.00000000       0.00000000 </v>
   <v>       0.25000000       0.75000000       0.75000000 </v>
   <v>       0.00000000       0.50000000       0.50000000 </v>
   <v>       0.75000000       0.25000000       0.75000000 </v>
   <v>       0.50000000       0.00000000       0.50000000 </v>
   <v>       0.75000000       0.75000000       0.25000000 </v>
   <v>       0.50000000       0.50000000       0.00000000 </v>
  </varray>
 </structure>
 <calculation>
  <scstep>
   <time name="dav">    1.34    1.45</time>
   <time name="total">    1.38    1.52</time>
   <energy>
    <i name="alphaZ">     78.43686080 </i>
    <i name="ewald">  -1398.50877779 </i>
    <i name="hartreedc">    -68.73013540 </i>
    <i name="XCdc">     62.54953031 </i>
    <i name="pawpsdc">    914.77613359 </i>
    <i name="pawaedc">   -872.73161751 </i>
    <i name="eentropy">     -0.00233074 </i>
    <i name="bandstr">    209.05642340 </i>
    <i name="atom">   1177.21277265 </i>
    <i name="e_fr_energy">    102.05885932 </i>
    <i name="e_wo_entrp">    102.06119006 </i>
    <i name="e_0_energy">    102.06002469 </i>
   </energy>
  </scstep>
  <scstep>
   <time name="dav">    2.29    2.32</time>
   <time name="total">    2.29    2.32</time>
   <energy>
    <i name="e_fr_energy">    -72.65054121 </i>
    <i name="e_wo_entrp">    -72.65054121 </i>
    <i name="e_0_energy">    -72.65054121 </i>
   </energy>
  </scstep>
  <scstep>
   <time name="dav">    1.57    1.59</time>
   <time name="total">    1.57    1.59</time>
   <energy>
    <i name="e_fr_energy">    -75.39653843 </i>
    <i name="e_wo_entrp">    -75.39653843 </i>
    <i name="e_0_energy">    -75.39653843 </i>
   </energy>
  </scstep>
  <scstep>
   <time name="dav">    2.79    2.81</time>
   <time name="total">    2.79    2.81</time>
   <energy>
    <i name="e_fr_energy">    -75.41545902 </i>
    <i name="e_wo_entrp">    -75.41545902 </i>
    <i name="e_0_energy">    -75.41545902 </i>
   </energy>
  </scstep>
  <scstep>
   <time name="dav">    1.61    1.64</time>
   <time name="total">    1.70    1.77</time>
   <energy>
    <i name="e_fr_energy">    -75.41546304 </i>
    <i name="e_wo_entrp">    -75.41546304 </i>
    <i name="e_0_energy">    -75.41546304 </i>
   </energy>
  </scstep>
  <scstep>
   <time name="dav">    1.76    1.88</time>
   <time name="total">    1.85    1.98</time>
   <energy>
    <i name="e_fr_energy">    -73.47499759 </i>
    <i name="e_wo_entrp">    -73.47499759 </i>
    <i name="e_0_energy">    -73.47499759 </i>
   </energy>
  </scstep>
  <scstep>
   <time name="dav">    2.00    2.01</time>
   <time name="total">    2.09    2.11</time>
   <energy>
    <i name="e_fr_energy">    -72.82503826 </i>
    <i name="e_wo_entrp">    -72.82503826 </i>
    <i name="e_0_energy">    -72.82503826 </i>
   </energy>
  </scstep>
  <scstep>
   <time name="dav">    2.38    2.38</time>
   <time name="total">    2.46    2.48</time>
   <energy>
    <i name="e_fr_energy">    -72.82319731 </i>
    <i name="e_wo_entrp">    -72.82319731 </i>
    <i name="e_0_energy">    -72.82319731 </i>
   </energy>
  </scstep>
  <scstep>
   <time name="dav">    2.09    2.09</time>
   <time name="total">    2.17    2.18</time>
   <energy>
    <i name="e_fr_energy">    -72.82336270 </i>
    <i name="e_wo_entrp">    -72.82336270 </i>
    <i name="e_0_energy">    -72.82336270 </i>
   </energy>
  </scstep>
  <scstep>
   <time name="dav">    2.22    2.22</time>
   <time name="total">    2.30    2.32</time>
   <energy>
    <i name="e_fr_energy">    -72.82348324 </i>
    <i name="e_wo_entrp">    -72.82348324 </i>
    <i name="e_0_energy">    -72.82348324 </i>
   </energy>
  </scstep>
  <scstep>
   <time name="dav">    2.25    2.26</time>
   <time name="total">    2.34    2.35</time>
   <energy>
    <i name="e_fr_energy">    -72.82348445 </i>
    <i name="e_wo_entrp">    -72.82348445 </i>
    <i name="e_0_energy">    -72.82348445 </i>
   </energy>
  </scstep>
  <scstep>
   <time name="dav">    2.21    2.22</time>
   <time name="total">    2.30    2.31</time>
   <energy>
    <i name="e_fr_energy">    -72.82348479 </i>
    <i name="e_wo_entrp">    -72.82348479 </i>
    <i name="e_0_energy">    -72.82348479 </i>
   </energy>
  </scstep>
  <scstep>
   <time name="dav">    2.31    2.31</time>
   <time name="total">    2.32    2.33</time>
   <energy>
    <i name="alphaZ">     78.43686080 </i>
    <i name="ewald">  -1398.50877779 </i>
    <i name="hartreedc">   -104.45355711 </i>
    <i name="XCdc">     65.63189465 </i>
    <i name="pawpsdc">  15215.64981670 </i>
    <i name="pawaedc"> -15174.16489200 </i>
    <i name="eentropy">     -0.00000000 </i>
    <i name="bandstr">     67.37239731 </i>
    <i name="atom">   1177.21277265 </i>
    <i name="e_fr_energy">    -72.82348480 </i>
    <i name="e_wo_entrp">    -72.82348480 </i>
    <i name="e_0_energy">    -72.82348480 </i>
   </energy>
  </scstep>
  <structure>
   <crystal>
    <varray name="basis" >
     <v>       3.54978104       0.00000000       0.00000000 </v>
     <v>       0.00000000       3.54978104       0.00000000 </v>
     <v>       0.00000000       0.00000000       3.54978104 </v>
    </varray>
    <i name="volume">     44.73059707 </i>
    <varray name="rec_basis" >
     <v>       0.28170752       0.00000000       0.00000000 </v>
     <v>       0.00000000       0.28170752       0.00000000 </v>
     <v>       0.00000000       0.00000000       0.28170752 </v>
    </varray>
   </crystal>
   <varray name="positions" >
    <v>       0.25000000       0.25000000       0.25000000 </v>
    <v>       0.00000000       0.00000000       0.00000000 </v>
    <v>       0.25000000       0.75000000       0.75000000 </v>
    <v>       0.00000000       0.50000000       0.50000000 </v>
    <v>       0.75000000       0.25000000       0.75000000 </v>
    <v>       0.50000000       0.00000000       0.50000000 </v>
    <v>       0.75000000       0.75000000       0.25000000 </v>
    <v>       0.50000000       0.50000000       0.00000000 </v>
   </varray>
  </structure>
  <varray name="forces" >
   <v>      -0.00000000       0.00000000      -0.00000000 </v>
   <v>       0.00000000      -0.00000000       0.00000000 </v>
   <v>      -0.00000000       0.00000000      -0.00000000 </v>
   <v>       0.00000000       0.00000000       0.00000000 </v>
   <v>      -0.00000000       0.00000000      -0.00000000 </v>
   <v>       0.00000000      -0.00000000       0.00000000 </v>
   <v>      -0.00000000       0.00000000      -0.00000000 </v>
   <v>       0.00000000      -0.00000000       0.00000000 </v>
  </varray>
  <varray name="stress" >
   <v>      75.87733501      -0.00000000      -0.00000000 </v>
   <v>       0.00000000      75.87733501      -0.00000000 </v>
   <v>       0.00000000       0.00000000      75.87733501 </v>
  </varray>
  <energy>
   <i name="e_fr_energy">    -72.82348480 </i>
   <i name="e_wo_entrp">    -72.82348480 </i>
   <i name="e_0_energy">     -0.00000000 </i>
  </energy>
  <time name="totalsc">   29.13   29.71</time>
  <eigenvalues>
   <array>
    <dimension dim="1">band</dimension>
    <dimension dim="2">kpoint</dimension>
    <dimension dim="3">spin</dimension>
    <field>eigene</field>
    <field>occ</field>
    <set>
     <set comment="spin 1">
      <set comment="kpoint 1">
       <r>  -10.4649    1.0000 </r>
       <r>   -2.2538    1.0000 </r>
       <r>   -2.2538    1.0000 </r>
       <r>   -2.2538    1.0000 </r>
       <r>   -1.1011    1.0000 </r>
       <r>   -1.1011    1.0000 </r>
       <r>   -1.1011    1.0000 </r>
       <r>    4.6682    1.0000 </r>
       <r>    4.6682    1.0000 </r>
       <r>    4.6682    1.0000 </r>
       <r>    4.8143    1.0000 </r>
       <r>    4.8143    1.0000 </r>
       <r>    4.8143    1.0000 </r>
       <r>   10.9080    1.0000 </r>
       <r>   11.1004    1.0000 </r>
       <r>   11.1004    1.0000 </r>
       <r>   15.8805    0.0000 </r>
       <r>   15.8805    0.0000 </r>
       <r>   15.8805    0.0000 </r>
       <r>   16.2649    0.0000 </r>
       <r>   16.2649    0.0000 </r>
       <r>   16.2649    0.0000 </r>
       <r>   16.8919    0.0000 </r>
       <r>   16.8919    0.0000 </r>
      </set>
      <set comment="kpoint 2">
       <r>  -10.3698    1.0000 </r>
       <r>   -3.3569    1.0000 </r>
       <r>   -2.1876    1.0000 </r>
       <r>   -2.1876    1.0000 </r>
       <r>   -1.0478    1.0000 </r>
       <r>   -1.0478    1.0000 </r>
       <r>    0.0885    1.0000 </r>
       <r>    4.3368    1.0000 </r>
       <r>    4.3368    1.0000 </r>
       <r>    4.7486    1.0000 </r>
       <r>    4.7486    1.0000 </r>
       <r>    4.7644    1.0000 </r>
       <r>    4.9069    1.0000 </r>
       <r>   10.4482    1.0000 </r>
       <r>   10.7309    1.0000 </r>
       <r>   10.9848    1.0000 </r>
       <r>   15.6468    0.0000 </r>
       <r>   16.1704    0.0000 </r>
       <r>   16.1704    0.0000 </r>
       <r>   16.7193    0.0000 </r>
       <r>   16.7350    0.0000 </r>
       <r>   16.7350    0.0000 </r>
       <r>   16.8229    0.0000 </r>
       <r>   17.3422    0.0000 </r>
      </set>
      <set comment="kpoint 3">
       <r>  -10.1798    1.0000 </r>
       <r>   -4.4000    1.0000 </r>
       <r>   -2.0596    1.0000 </r>
       <r>   -2.0596    1.0000 </r>
       <r>   -0.9480    1.0000 </r>
       <r>   -0.9480    1.0000 </r>
       <r>    1.2997    1.0000 </r>
       <r>    3.8867    1.0000 </r>
       <r>    3.8867    1.0000 </r>
       <r>    4.4999    1.0000 </r>
       <r>    4.4999    1.0000 </r>
       <r>    4.9570    1.0000 </r>
       <r>    5.0918    1.0000 </r>
       <r>    9.8064    1.0000 </r>
       <r>   10.1257    1.0000 </r>
       <r>   10.6076    1.0000 </r>
       <r>   15.5002    0.0000 </r>
       <r>   16.6842    0.0000 </r>
       <r>   16.7874    0.0000 </r>
       <r>   16.7874    0.0000 </r>
       <r>   17.3075    0.0000 </r>
       <r>   17.5429    0.0000 </r>
       <r>   17.5429    0.0000 </r>
       <r>   18.1078    0.0000 </r>
      </set>
      <set comment="kpoint 4">
       <r>   -9.8955    1.0000 </r>
       <r>   -5.3752    1.0000 </r>
       <r>   -1.8805    1.0000 </r>
       <r>   -1.8805    1.0000 </r>
       <r>   -0.8173    1.0000 </r>
       <r>   -0.8173    1.0000 </r>
       <r>    2.5137    1.0000 </r>
       <r>    3.3975    1.0000 </r>
       <r>    3.3975    1.0000 </r>
       <r>    4.1368    1.0000 </r>
       <r>    4.1368    1.0000 </r>
       <r>    5.2469    1.0000 </r>
       <r>    5.3672    1.0000 </r>
       <r>    9.0759    1.0000 </r>
       <r>    9.4168    1.0000 </r>
       <r>   10.0252    1.0000 </r>
       <r>   15.4386    0.0000 </r>
       <r>   16.4974    0.0000 </r>
       <r>   17.6863    0.0000 </r>
       <r>   17.6863    0.0000 </r>
       <r>   18.0301    0.0000 </r>
       <r>   18.5868    0.0000 </r>
       <r>   18.5868    0.0000 </r>
       <r>   19.0555    0.0000 </r>
      </set>
      <set comment="kpoint 5">
       <r>   -9.5176    1.0000 </r>
       <r>   -6.2760    1.0000 </r>
       <r>   -1.6705    1.0000 </r>
       <r>   -1.6705    1.0000 </r>
       <r>   -0.6820    1.0000 </r>
       <r>   -0.6820    1.0000 </r>
       <r>    2.9470    1.0000 </r>
       <r>    2.9470    1.0000 </r>
       <r>    3.7071    1.0000 </r>
       <r>    3.7408    1.0000 </r>
       <r>    3.7408    1.0000 </r>
       <r>    5.6376    1.0000 </r>
       <r>    5.7311    1.0000 </r>
       <r>    8.3165    1.0000 </r>
       <r>    8.6844    1.0000 </r>
       <r>    9.2895    1.0000 </r>
       <r>   15.4534    0.0000 </r>
       <r>   16.2829    0.0000 </r>
       <r>   18.7908    0.0000 </r>
       <r>   18.7908    0.0000 </r>
       <r>   18.8910    0.0000 </r>
       <r>   19.7824    0.0000 </r>
       <r>   19.7825    0.0000 </r>
       <r>   20.0944    0.0000 </r>
      </set>
      <set comment="kpoint 6">
       <r>   -9.0472    1.0000 </r>
       <r>   -7.0972    1.0000 </r>
       <r>   -1.4667    1.0000 </r>
       <r>   -1.4667    1.0000 </r>
       <r>   -0.5771    1.0000 </r>
       <r>   -0.5771    1.0000 </r>
       <r>    2.6065    1.0000 </r>
       <r>    2.6065    1.0000 </r>
       <r>    3.3960    1.0000 </r>
       <r>    3.3960    1.0000 </r>
       <r>    4.8461    1.0000 </r>
       <r>    6.1395    1.0000 </r>
       <r>    6.1796    1.0000 </r>
       <r>    7.5523    1.0000 </r>
       <r>    7.9734    1.0000 </r>
       <r>    8.4508    1.0000 </r>
       <r>   15.5347    0.0000 </r>
       <r>   16.0615    0.0000 </r>
       <r>   19.8869    0.0000 </r>
       <r>   20.0114    0.0000 </r>
       <r>   20.0114    0.0000 </r>
       <r>   21.0282    0.0000 </r>
       <r>   21.0318    0.0000 </r>
       <r>   21.1859    0.0000 </r>
      </set>
      <set comment="kpoint 7">
       <r>   -8.4856    1.0000 </r>
       <r>   -7.8347    1.0000 </r>
       <r>   -1.3314    1.0000 </r>
       <r>   -1.3314    1.0000 </r>
       <r>   -0.5270    1.0000 </r>
       <r>   -0.5270    1.0000 </r>
       <r>    2.4279    1.0000 </r>
       <r>    2.4279    1.0000 </r>
       <r>    3.1890    1.0000 </r>
       <r>    3.1890    1.0000 </r>
       <r>    5.8802    1.0000 </r>
       <r>    6.7080    1.0000 </r>
       <r>    6.7655    1.0000 </r>
       <r>    6.7800    1.0000 </r>
       <r>    7.3095    1.0000 </r>
       <r>    7.5769    1.0000 </r>
       <r>   15.6718    0.0000 </r>
       <r>   15.8521    0.0000 </r>
       <r>   20.9992    0.0000 </r>
       <r>   21.1736    0.0000 </r>
       <r>   21.1736    0.0000 </r>
       <r>   21.9930    0.0000 </r>
       <r>   21.9937    0.0000 </r>
       <r>   22.1879    0.0000 </r>
      </set>
      <set comment="kpoint 8">
       <r>  -10.2748    1.0000 </r>
       <r>   -3.2817    1.0000 </r>
       <r>   -3.2817    1.0000 </r>
       <r>   -2.1272    1.0000 </r>
       <r>   -0.9985    1.0000 </r>
       <r>    0.1202    1.0000 </r>
       <r>    0.1202    1.0000 </r>
       <r>    3.8055    1.0000 </r>
       <r>    4.4413    1.0000 </r>
       <r>    4.4413    1.0000 </r>
       <r>    4.8458    1.0000 </r>
       <r>    4.8458    1.0000 </r>
       <r>    4.9730    1.0000 </r>
       <r>    9.8920    1.0000 </r>
       <r>   10.4483    1.0000 </r>
       <r>   10.9876    1.0000 </r>
       <r>   15.9972    0.0000 </r>
       <r>   15.9972    0.0000 </r>
       <r>   16.1262    0.0000 </r>
       <r>   17.0783    0.0000 </r>
       <r>   17.1250    0.0000 </r>
       <r>   17.1250    0.0000 </r>
       <r>   17.4570    0.0000 </r>
       <r>   17.4587    0.0000 </r>
      </set>
      <set comment="kpoint 9">
       <r>  -10.0850    1.0000 </r>
       <r>   -4.3190    1.0000 </r>
       <r>   -3.1341    1.0000 </r>
       <r>   -2.0143    1.0000 </r>
       <r>   -0.9072    1.0000 </r>
       <r>    0.1716    1.0000 </r>
       <r>    1.2960    1.0000 </r>
       <r>    3.2347    1.0000 </r>
       <r>    4.0017    1.0000 </r>
       <r>    4.6151    1.0000 </r>
       <r>    4.6520    1.0000 </r>
       <r>    4.9862    1.0000 </r>
       <r>    5.0420    1.0000 </r>
       <r>    9.1987    1.0000 </r>
       <r>    9.8747    1.0000 </r>
       <r>   10.7696    1.0000 </r>
       <r>   15.8719    0.0000 </r>
       <r>   16.4424    0.0000 </r>
       <r>   16.6688    0.0000 </r>
       <r>   17.0407    0.0000 </r>
       <r>   17.6841    0.0000 </r>
       <r>   17.8702    0.0000 </r>
       <r>   18.1106    0.0000 </r>
       <r>   18.2966    0.0000 </r>
      </set>
      <set comment="kpoint 10">
       <r>   -9.8010    1.0000 </r>
       <r>   -5.2901    1.0000 </r>
       <r>   -2.9202    1.0000 </r>
       <r>   -1.8696    1.0000 </r>
       <r>   -0.7875    1.0000 </r>
       <r>    0.2162    1.0000 </r>
       <r>    2.4497    1.0000 </r>
       <r>    2.7075    1.0000 </r>
       <r>    3.5205    1.0000 </r>
       <r>    4.2934    1.0000 </r>
       <r>    4.8176    1.0000 </r>
       <r>    4.9716    1.0000 </r>
       <r>    5.3433    1.0000 </r>
       <r>    8.4456    1.0000 </r>
       <r>    9.1864    1.0000 </r>
       <r>   10.3052    1.0000 </r>
       <r>   15.8214    0.0000 </r>
       <r>   16.8735    0.0000 </r>
       <r>   17.1067    0.0000 </r>
       <r>   17.6047    0.0000 </r>
       <r>   18.3840    0.0000 </r>
       <r>   18.8631    0.0000 </r>
       <r>   19.0326    0.0000 </r>
       <r>   19.0895    0.0000 </r>
      </set>
      <set comment="kpoint 11">
       <r>   -9.4236    1.0000 </r>
       <r>   -6.1880    1.0000 </r>
       <r>   -2.6516    1.0000 </r>
       <r>   -1.7372    1.0000 </r>
       <r>   -0.6520    1.0000 </r>
       <r>    0.2131    1.0000 </r>
       <r>    2.3075    1.0000 </r>
       <r>    3.0609    1.0000 </r>
       <r>    3.5397    1.0000 </r>
       <r>    3.9816    1.0000 </r>
       <r>    4.5344    1.0000 </r>
       <r>    5.3984    1.0000 </r>
       <r>    5.7688    1.0000 </r>
       <r>    7.6765    1.0000 </r>
       <r>    8.4672    1.0000 </r>
       <r>    9.6483    1.0000 </r>
       <r>   15.8427    0.0000 </r>
       <r>   16.6680    0.0000 </r>
       <r>   18.0467    0.0000 </r>
       <r>   18.7344    0.0000 </r>
       <r>   19.2230    0.0000 </r>
       <r>   20.0049    0.0000 </r>
       <r>   20.0106    0.0000 </r>
       <r>   20.0709    0.0000 </r>
      </set>
      <set comment="kpoint 12">
       <r>   -8.9537    1.0000 </r>
       <r>   -7.0071    1.0000 </r>
       <r>   -2.3484    1.0000 </r>
       <r>   -1.6941    1.0000 </r>
       <r>   -0.4923    1.0000 </r>
       <r>    0.1220    1.0000 </r>
       <r>    2.1076    1.0000 </r>
       <r>    2.6596    1.0000 </r>
       <r>    3.7849    1.0000 </r>
       <r>    4.2149    1.0000 </r>
       <r>    4.5193    1.0000 </r>
       <r>    5.9105    1.0000 </r>
       <r>    6.3591    1.0000 </r>
       <r>    6.9127    1.0000 </r>
       <r>    7.7621    1.0000 </r>
       <r>    8.8572    1.0000 </r>
       <r>   15.9275    0.0000 </r>
       <r>   16.4518    0.0000 </r>
       <r>   19.1700    0.0000 </r>
       <r>   19.9753    0.0000 </r>
       <r>   20.1961    0.0000 </r>
       <r>   21.0059    0.0000 </r>
       <r>   21.1344    0.0000 </r>
       <r>   21.1673    0.0000 </r>
      </set>
      <set comment="kpoint 13">
       <r>   -8.3929    1.0000 </r>
       <r>   -7.7432    1.0000 </r>
       <r>   -2.0464    1.0000 </r>
       <r>   -1.8045    1.0000 </r>
       <r>   -0.2873    1.0000 </r>
       <r>   -0.0609    1.0000 </r>
       <r>    2.1313    1.0000 </r>
       <r>    2.3365    1.0000 </r>
       <r>    3.7723    1.0000 </r>
       <r>    3.9360    1.0000 </r>
       <r>    5.3754    1.0000 </r>
       <r>    6.1546    1.0000 </r>
       <r>    6.4779    1.0000 </r>
       <r>    7.0954    1.0000 </r>
       <r>    7.1259    1.0000 </r>
       <r>    7.9916    1.0000 </r>
       <r>   16.0659    0.0000 </r>
       <r>   16.2454    0.0000 </r>
       <r>   20.3494    0.0000 </r>
       <r>   21.0282    0.0000 </r>
       <r>   21.2841    0.0000 </r>
       <r>   21.7121    0.0000 </r>
       <r>   22.0379    0.0000 </r>
       <r>   22.2845    0.0000 </r>
      </set>
      <set comment="kpoint 14">
       <r>   -9.8957    1.0000 </r>
       <r>   -4.1586    1.0000 </r>
       <r>   -4.1586    1.0000 </r>
       <r>   -1.9415    1.0000 </r>
       <r>   -0.8314    1.0000 </r>
       <r>    1.2692    1.0000 </r>
       <r>    1.2692    1.0000 </r>
       <r>    2.6240    1.0000 </r>
       <r>    4.2310    1.0000 </r>
       <r>    4.2310    1.0000 </r>
       <r>    4.8569    1.0000 </r>
       <r>    4.8569    1.0000 </r>
       <r>    5.2851    1.0000 </r>
       <r>    8.4781    1.0000 </r>
       <r>    9.3351    1.0000 </r>
       <r>   10.7506    1.0000 </r>
       <r>   16.4444    0.0000 </r>
       <r>   16.5718    0.0000 </r>
       <r>   16.5718    0.0000 </r>
       <r>   17.4499    0.0000 </r>
       <r>   18.3121    0.0000 </r>
       <r>   18.3845    0.0000 </r>
       <r>   18.3845    0.0000 </r>
       <r>   18.6557    0.0000 </r>
      </set>
      <set comment="kpoint 15">
       <r>   -9.6123    1.0000 </r>
       <r>   -5.1211    1.0000 </r>
       <r>   -3.9229    1.0000 </r>
       <r>   -1.8872    1.0000 </r>
       <r>   -0.7232    1.0000 </r>
       <r>    1.1826    1.0000 </r>
       <r>    2.1434    1.0000 </r>
       <r>    2.2991    1.0000 </r>
       <r>    3.7563    1.0000 </r>
       <r>    4.5683    1.0000 </r>
       <r>    4.6338    1.0000 </r>
       <r>    5.2527    1.0000 </r>
       <r>    5.3734    1.0000 </r>
       <r>    7.7167    1.0000 </r>
       <r>    8.6745    1.0000 </r>
       <r>   10.4645    1.0000 </r>
       <r>   16.5361    0.0000 </r>
       <r>   16.8230    0.0000 </r>
       <r>   17.4831    0.0000 </r>
       <r>   17.5322    0.0000 </r>
       <r>   19.0429    0.0000 </r>
       <r>   19.0445    0.0000 </r>
       <r>   19.1999    0.0000 </r>
       <r>   19.3236    0.0000 </r>
      </set>
      <set comment="kpoint 16">
       <r>   -9.2357    1.0000 </r>
       <r>   -6.0129    1.0000 </r>
       <r>   -3.6189    1.0000 </r>
       <r>   -1.9308    1.0000 </r>
       <r>   -0.5644    1.0000 </r>
       <r>    0.9987    1.0000 </r>
       <r>    1.8749    1.0000 </r>
       <r>    3.2181    1.0000 </r>
       <r>    3.2706    1.0000 </r>
       <r>    4.4825    1.0000 </r>
       <r>    4.9929    1.0000 </r>
       <r>    5.2806    1.0000 </r>
       <r>    5.8384    1.0000 </r>
       <r>    6.9511    1.0000 </r>
       <r>    7.9765    1.0000 </r>
       <r>    9.9368    1.0000 </r>
       <r>   16.5645    0.0000 </r>
       <r>   17.3366    0.0000 </r>
       <r>   17.5387    0.0000 </r>
       <r>   18.6801    0.0000 </r>
       <r>   19.8421    0.0000 </r>
       <r>   19.8974    0.0000 </r>
       <r>   20.0420    0.0000 </r>
       <r>   20.3829    0.0000 </r>
      </set>
      <set comment="kpoint 17">
       <r>   -8.7671    1.0000 </r>
       <r>   -6.8277    1.0000 </r>
       <r>   -3.2586    1.0000 </r>
       <r>   -2.1332    1.0000 </r>
       <r>   -0.3235    1.0000 </r>
       <r>    0.7117    1.0000 </r>
       <r>    1.8529    1.0000 </r>
       <r>    2.8009    1.0000 </r>
       <r>    4.0222    1.0000 </r>
       <r>    4.4724    1.0000 </r>
       <r>    5.0724    1.0000 </r>
       <r>    5.4830    1.0000 </r>
       <r>    6.2009    1.0000 </r>
       <r>    6.6084    1.0000 </r>
       <r>    7.2878    1.0000 </r>
       <r>    9.2239    1.0000 </r>
       <r>   16.6509    0.0000 </r>
       <r>   17.1476    0.0000 </r>
       <r>   18.5100    0.0000 </r>
       <r>   19.9347    0.0000 </r>
       <r>   20.7041    0.0000 </r>
       <r>   20.7684    0.0000 </r>
       <r>   21.1377    0.0000 </r>
       <r>   21.2327    0.0000 </r>
      </set>
      <set comment="kpoint 18">
       <r>   -8.2081    1.0000 </r>
       <r>   -7.5607    1.0000 </r>
       <r>   -2.8630    1.0000 </r>
       <r>   -2.4681    1.0000 </r>
       <r>   -0.0033    1.0000 </r>
       <r>    0.3591    1.0000 </r>
       <r>    2.0418    1.0000 </r>
       <r>    2.3770    1.0000 </r>
       <r>    4.6018    1.0000 </r>
       <r>    4.7563    1.0000 </r>
       <r>    4.8229    1.0000 </r>
       <r>    5.4724    1.0000 </r>
       <r>    6.0308    1.0000 </r>
       <r>    6.6345    1.0000 </r>
       <r>    7.4887    1.0000 </r>
       <r>    8.3862    1.0000 </r>
       <r>   16.7858    0.0000 </r>
       <r>   16.9566    0.0000 </r>
       <r>   19.6273    0.0000 </r>
       <r>   20.6431    0.0000 </r>
       <r>   21.4571    0.0000 </r>
       <r>   21.5751    0.0000 </r>
       <r>   21.7868    0.0000 </r>
       <r>   22.2681    0.0000 </r>
      </set>
      <set comment="kpoint 19">
       <r>   -9.3300    1.0000 </r>
       <r>   -4.8708    1.0000 </r>
       <r>   -4.8708    1.0000 </r>
       <r>   -2.0109    1.0000 </r>
       <r>   -0.6006    1.0000 </r>
       <r>    1.7946    1.0000 </r>
       <r>    2.0369    1.0000 </r>
       <r>    2.0369    1.0000 </r>
       <r>    4.0831    1.0000 </r>
       <r>    4.0831    1.0000 </r>
       <r>    5.1920    1.0000 </r>
       <r>    5.1920    1.0000 </r>
       <r>    5.7398    1.0000 </r>
       <r>    6.9585    1.0000 </r>
       <r>    8.0392    1.0000 </r>
       <r>   10.3756    1.0000 </r>
       <r>   16.8957    0.0000 </r>
       <r>   17.5079    0.0000 </r>
       <r>   17.5079    0.0000 </r>
       <r>   18.0046    0.0000 </r>
       <r>   19.3092    0.0000 </r>
       <r>   19.4394    0.0000 </r>
       <r>   19.9251    0.0000 </r>
       <r>   19.9251    0.0000 </r>
      </set>
      <set comment="kpoint 20">
       <r>   -8.9548    1.0000 </r>
       <r>   -5.7526    1.0000 </r>
       <r>   -4.5439    1.0000 </r>
       <r>   -2.2988    1.0000 </r>
       <r>   -0.3856    1.0000 </r>
       <r>    1.6668    1.0000 </r>
       <r>    1.7029    1.0000 </r>
       <r>    2.7765    1.0000 </r>
       <r>    3.5599    1.0000 </r>
       <r>    4.4815    1.0000 </r>
       <r>    5.2225    1.0000 </r>
       <r>    5.8956    1.0000 </r>
       <r>    5.9574    1.0000 </r>
       <r>    6.2037    1.0000 </r>
       <r>    7.3628    1.0000 </r>
       <r>   10.0220    1.0000 </r>
       <r>   17.3329    0.0000 </r>
       <r>   17.5382    0.0000 </r>
       <r>   18.1215    0.0000 </r>
       <r>   18.6611    0.0000 </r>
       <r>   19.8303    0.0000 </r>
       <r>   20.0825    0.0000 </r>
       <r>   20.6479    0.0000 </r>
       <r>   20.8521    0.0000 </r>
      </set>
      <set comment="kpoint 21">
       <r>   -8.4882    1.0000 </r>
       <r>   -6.5604    1.0000 </r>
       <r>   -4.1479    1.0000 </r>
       <r>   -2.7224    1.0000 </r>
       <r>   -0.0725    1.0000 </r>
       <r>    1.2261    1.0000 </r>
       <r>    1.8382    1.0000 </r>
       <r>    3.0379    1.0000 </r>
       <r>    3.4467    1.0000 </r>
       <r>    4.9445    1.0000 </r>
       <r>    5.3470    1.0000 </r>
       <r>    5.4712    1.0000 </r>
       <r>    5.8704    1.0000 </r>
       <r>    6.6926    1.0000 </r>
       <r>    6.8534    1.0000 </r>
       <r>    9.4348    1.0000 </r>
       <r>   17.6182    0.0000 </r>
       <r>   18.0279    0.0000 </r>
       <r>   18.0873    0.0000 </r>
       <r>   19.9130    0.0000 </r>
       <r>   20.3612    0.0000 </r>
       <r>   21.1169    0.0000 </r>
       <r>   21.1277    0.0000 </r>
       <r>   21.4354    0.0000 </r>
      </set>
      <set comment="kpoint 22">
       <r>   -7.9319    1.0000 </r>
       <r>   -7.2882    1.0000 </r>
       <r>   -3.6955    1.0000 </r>
       <r>   -3.2080    1.0000 </r>
       <r>    0.3194    1.0000 </r>
       <r>    0.7631    1.0000 </r>
       <r>    2.1393    1.0000 </r>
       <r>    2.5526    1.0000 </r>
       <r>    4.1002    1.0000 </r>
       <r>    4.7703    1.0000 </r>
       <r>    5.4708    1.0000 </r>
       <r>    5.5316    1.0000 </r>
       <r>    5.7264    1.0000 </r>
       <r>    6.0565    1.0000 </r>
       <r>    7.7845    1.0000 </r>
       <r>    8.6681    1.0000 </r>
       <r>   17.7382    0.0000 </r>
       <r>   17.8827    0.0000 </r>
       <r>   19.0684    0.0000 </r>
       <r>   20.1305    0.0000 </r>
       <r>   20.9940    0.0000 </r>
       <r>   21.3388    0.0000 </r>
       <r>   21.6277    0.0000 </r>
       <r>   22.2595    0.0000 </r>
      </set>
      <set comment="kpoint 23">
       <r>   -8.5818    1.0000 </r>
       <r>   -5.4103    1.0000 </r>
       <r>   -5.4103    1.0000 </r>
       <r>   -2.8074    1.0000 </r>
       <r>   -0.1080    1.0000 </r>
       <r>    1.7674    1.0000 </r>
       <r>    2.2626    1.0000 </r>
       <r>    2.2626    1.0000 </r>
       <r>    3.9235    1.0000 </r>
       <r>    3.9235    1.0000 </r>
       <r>    5.4640    1.0000 </r>
       <r>    6.1187    1.0000 </r>
       <r>    6.1187    1.0000 </r>
       <r>    6.3188    1.0000 </r>
       <r>    6.7056    1.0000 </r>
       <r>    9.8594    1.0000 </r>
       <r>   17.4715    0.0000 </r>
       <r>   18.6848    0.0000 </r>
       <r>   18.6848    0.0000 </r>
       <r>   18.7368    0.0000 </r>
       <r>   19.8733    0.0000 </r>
       <r>   20.4093    0.0000 </r>
       <r>   21.2734    0.0000 </r>
       <r>   21.2734    0.0000 </r>
      </set>
      <set comment="kpoint 24">
       <r>   -8.1181    1.0000 </r>
       <r>   -6.2073    1.0000 </r>
       <r>   -4.9910    1.0000 </r>
       <r>   -3.3811    1.0000 </r>
       <r>    0.2575    1.0000 </r>
       <r>    1.7220    1.0000 </r>
       <r>    2.0098    1.0000 </r>
       <r>    2.8413    1.0000 </r>
       <r>    3.3651    1.0000 </r>
       <r>    4.3598    1.0000 </r>
       <r>    4.7504    1.0000 </r>
       <r>    6.0529    1.0000 </r>
       <r>    6.2992    1.0000 </r>
       <r>    6.5309    1.0000 </r>
       <r>    7.0708    1.0000 </r>
       <r>    9.4435    1.0000 </r>
       <r>   17.9537    0.0000 </r>
       <r>   18.7462    0.0000 </r>
       <r>   18.9408    0.0000 </r>
       <r>   19.9153    0.0000 </r>
       <r>   20.0609    0.0000 </r>
       <r>   20.7587    0.0000 </r>
       <r>   21.2175    0.0000 </r>
       <r>   21.2433    0.0000 </r>
      </set>
      <set comment="kpoint 25">
       <r>   -7.5658    1.0000 </r>
       <r>   -6.9276    1.0000 </r>
       <r>   -4.5028    1.0000 </r>
       <r>   -3.9588    1.0000 </r>
       <r>    0.6959    1.0000 </r>
       <r>    1.1908    1.0000 </r>
       <r>    2.3796    1.0000 </r>
       <r>    2.8409    1.0000 </r>
       <r>    3.4394    1.0000 </r>
       <r>    4.0743    1.0000 </r>
       <r>    4.8653    1.0000 </r>
       <r>    5.4335    1.0000 </r>
       <r>    6.4627    1.0000 </r>
       <r>    6.5599    1.0000 </r>
       <r>    7.9906    1.0000 </r>
       <r>    8.8032    1.0000 </r>
       <r>   18.7252    0.0000 </r>
       <r>   18.8320    0.0000 </r>
       <r>   18.9169    0.0000 </r>
       <r>   19.6838    0.0000 </r>
       <r>   20.3905    0.0000 </r>
       <r>   20.8237    0.0000 </r>
       <r>   21.2709    0.0000 </r>
       <r>   22.2918    0.0000 </r>
      </set>
      <set comment="kpoint 26">
       <r>   -7.6585    1.0000 </r>
       <r>   -5.7722    1.0000 </r>
       <r>   -5.7722    1.0000 </r>
       <r>   -4.0468    1.0000 </r>
       <r>    0.6619    1.0000 </r>
       <r>    2.2389    1.0000 </r>
       <r>    2.2389    1.0000 </r>
       <r>    2.3187    1.0000 </r>
       <r>    3.7755    1.0000 </r>
       <r>    3.7755    1.0000 </r>
       <r>    4.0570    1.0000 </r>
       <r>    5.4162    1.0000 </r>
       <r>    6.9964    1.0000 </r>
       <r>    7.2360    1.0000 </r>
       <r>    7.2360    1.0000 </r>
       <r>    9.2196    1.0000 </r>
       <r>   18.1421    0.0000 </r>
       <r>   19.6360    0.0000 </r>
       <r>   19.8762    0.0000 </r>
       <r>   19.9306    0.0000 </r>
       <r>   19.9306    0.0000 </r>
       <r>   20.3624    0.0000 </r>
       <r>   20.3624    0.0000 </r>
       <r>   21.6084    0.0000 </r>
      </set>
      <set comment="kpoint 27">
       <r>   -7.1118    1.0000 </r>
       <r>   -6.4815    1.0000 </r>
       <r>   -5.2605    1.0000 </r>
       <r>   -4.6809    1.0000 </r>
       <r>    1.1337    1.0000 </r>
       <r>    1.6637    1.0000 </r>
       <r>    2.7316    1.0000 </r>
       <r>    2.7970    1.0000 </r>
       <r>    3.2245    1.0000 </r>
       <r>    3.4034    1.0000 </r>
       <r>    4.2612    1.0000 </r>
       <r>    4.8125    1.0000 </r>
       <r>    7.2483    1.0000 </r>
       <r>    7.3117    1.0000 </r>
       <r>    8.0778    1.0000 </r>
       <r>    8.7562    1.0000 </r>
       <r>   18.6436    0.0000 </r>
       <r>   19.3975    0.0000 </r>
       <r>   19.8398    0.0000 </r>
       <r>   19.9166    0.0000 </r>
       <r>   19.9429    0.0000 </r>
       <r>   20.0796    0.0000 </r>
       <r>   21.2007    0.0000 </r>
       <r>   22.2993    0.0000 </r>
      </set>
      <set comment="kpoint 28">
       <r>   -6.5731    1.0000 </r>
       <r>   -5.9538    1.0000 </r>
       <r>   -5.9538    1.0000 </r>
       <r>   -5.3506    1.0000 </r>
       <r>    1.6334    1.0000 </r>
       <r>    2.1907    1.0000 </r>
       <r>    2.1907    1.0000 </r>
       <r>    2.7724    1.0000 </r>
       <r>    3.1742    1.0000 </r>
       <r>    3.6901    1.0000 </r>
       <r>    3.6901    1.0000 </r>
       <r>    4.2244    1.0000 </r>
       <r>    7.7368    1.0000 </r>
       <r>    8.0067    1.0000 </r>
       <r>    8.0067    1.0000 </r>
       <r>    8.4952    1.0000 </r>
       <r>   18.8483    0.0000 </r>
       <r>   19.3232    0.0000 </r>
       <r>   19.3232    0.0000 </r>
       <r>   19.4819    0.0000 </r>
       <r>   20.6853    0.0000 </r>
       <r>   21.0574    0.0000 </r>
       <r>   21.0574    0.0000 </r>
       <r>   21.8592    0.0000 </r>
      </set>
      <set comment="kpoint 29">
       <r>  -10.1798    1.0000 </r>
       <r>   -3.2090    1.0000 </r>
       <r>   -3.2090    1.0000 </r>
       <r>   -3.2090    1.0000 </r>
       <r>    0.1387    1.0000 </r>
       <r>    0.1387    1.0000 </r>
       <r>    0.1387    1.0000 </r>
       <r>    3.9338    1.0000 </r>
       <r>    3.9338    1.0000 </r>
       <r>    3.9338    1.0000 </r>
       <r>    5.0641    1.0000 </r>
       <r>    5.0641    1.0000 </r>
       <r>    5.0641    1.0000 </r>
       <r>    9.2659    1.0000 </r>
       <r>   10.6551    1.0000 </r>
       <r>   10.6551    1.0000 </r>
       <r>   16.0811    0.0000 </r>
       <r>   16.0811    0.0000 </r>
       <r>   16.0811    0.0000 </r>
       <r>   17.4781    0.0000 </r>
       <r>   17.4781    0.0000 </r>
       <r>   17.7159    0.0000 </r>
       <r>   17.7159    0.0000 </r>
       <r>   17.7159    0.0000 </r>
      </set>
      <set comment="kpoint 30">
       <r>   -9.9903    1.0000 </r>
       <r>   -4.2392    1.0000 </r>
       <r>   -3.0674    1.0000 </r>
       <r>   -3.0674    1.0000 </r>
       <r>    0.1574    1.0000 </r>
       <r>    0.1574    1.0000 </r>
       <r>    1.2625    1.0000 </r>
       <r>    3.4024    1.0000 </r>
       <r>    3.4024    1.0000 </r>
       <r>    4.2026    1.0000 </r>
       <r>    5.0804    1.0000 </r>
       <r>    5.0804    1.0000 </r>
       <r>    5.2457    1.0000 </r>
       <r>    8.5298    1.0000 </r>
       <r>   10.0985    1.0000 </r>
       <r>   10.5821    1.0000 </r>
       <r>   16.0424    0.0000 </r>
       <r>   16.4485    0.0000 </r>
       <r>   16.4485    0.0000 </r>
       <r>   17.3712    0.0000 </r>
       <r>   18.1690    0.0000 </r>
       <r>   18.1821    0.0000 </r>
       <r>   18.3594    0.0000 </r>
       <r>   18.6446    0.0000 </r>
      </set>
      <set comment="kpoint 31">
       <r>   -9.7067    1.0000 </r>
       <r>   -5.2058    1.0000 </r>
       <r>   -2.8661    1.0000 </r>
       <r>   -2.8661    1.0000 </r>
       <r>    0.1384    1.0000 </r>
       <r>    0.1384    1.0000 </r>
       <r>    2.3229    1.0000 </r>
       <r>    2.9414    1.0000 </r>
       <r>    2.9414    1.0000 </r>
       <r>    4.6389    1.0000 </r>
       <r>    4.9251    1.0000 </r>
       <r>    4.9251    1.0000 </r>
       <r>    5.5158    1.0000 </r>
       <r>    7.7554    1.0000 </r>
       <r>    9.4334    1.0000 </r>
       <r>   10.2243    1.0000 </r>
       <r>   16.0456    0.0000 </r>
       <r>   17.1344    0.0000 </r>
       <r>   17.1344    0.0000 </r>
       <r>   17.1970    0.0000 </r>
       <r>   18.8190    0.0000 </r>
       <r>   19.0351    0.0000 </r>
       <r>   19.0818    0.0000 </r>
       <r>   19.7700    0.0000 </r>
      </set>
      <set comment="kpoint 32">
       <r>   -9.3296    1.0000 </r>
       <r>   -6.1005    1.0000 </r>
       <r>   -2.6241    1.0000 </r>
       <r>   -2.6241    1.0000 </r>
       <r>    0.0379    1.0000 </r>
       <r>    0.0379    1.0000 </r>
       <r>    2.6335    1.0000 </r>
       <r>    2.6335    1.0000 </r>
       <r>    3.2627    1.0000 </r>
       <r>    4.6710    1.0000 </r>
       <r>    4.6710    1.0000 </r>
       <r>    5.2764    1.0000 </r>
       <r>    5.8723    1.0000 </r>
       <r>    6.9806    1.0000 </r>
       <r>    8.7366    1.0000 </r>
       <r>    9.6323    1.0000 </r>
       <r>   16.1019    0.0000 </r>
       <r>   16.9889    0.0000 </r>
       <r>   18.0826    0.0000 </r>
       <r>   18.0826    0.0000 </r>
       <r>   19.6105    0.0000 </r>
       <r>   19.9680    0.0000 </r>
       <r>   19.9986    0.0000 </r>
       <r>   20.9944    0.0000 </r>
      </set>
      <set comment="kpoint 33">
       <r>   -8.8604    1.0000 </r>
       <r>   -6.9174    1.0000 </r>
       <r>   -2.3806    1.0000 </r>
       <r>   -2.3806    1.0000 </r>
       <r>   -0.1386    1.0000 </r>
       <r>   -0.1386    1.0000 </r>
       <r>    2.5018    1.0000 </r>
       <r>    2.5018    1.0000 </r>
       <r>    4.0672    1.0000 </r>
       <r>    4.4096    1.0000 </r>
       <r>    4.4096    1.0000 </r>
       <r>    6.1039    1.0000 </r>
       <r>    6.2265    1.0000 </r>
       <r>    6.3109    1.0000 </r>
       <r>    8.0533    1.0000 </r>
       <r>    8.8663    1.0000 </r>
       <r>   16.2106    0.0000 </r>
       <r>   16.7690    0.0000 </r>
       <r>   19.2029    0.0000 </r>
       <r>   19.2029    0.0000 </r>
       <r>   20.5441    0.0000 </r>
       <r>   20.9575    0.0000 </r>
       <r>   21.0133    0.0000 </r>
       <r>   22.1131    0.0000 </r>
      </set>
      <set comment="kpoint 34">
       <r>   -8.3005    1.0000 </r>
       <r>   -7.6519    1.0000 </r>
       <r>   -2.2118    1.0000 </r>
       <r>   -2.2118    1.0000 </r>
       <r>   -0.2914    1.0000 </r>
       <r>   -0.2914    1.0000 </r>
       <r>    2.4796    1.0000 </r>
       <r>    2.4796    1.0000 </r>
       <r>    4.2392    1.0000 </r>
       <r>    4.2392    1.0000 </r>
       <r>    4.7913    1.0000 </r>
       <r>    5.4997    1.0000 </r>
       <r>    6.8263    1.0000 </r>
       <r>    7.0382    1.0000 </r>
       <r>    7.4110    1.0000 </r>
       <r>    7.9828    1.0000 </r>
       <r>   16.3654    0.0000 </r>
       <r>   16.5559    0.0000 </r>
       <r>   20.3205    0.0000 </r>
       <r>   20.3205    0.0000 </r>
       <r>   21.5965    0.0000 </r>
       <r>   22.0033    0.0000 </r>
       <r>   22.0163    0.0000 </r>
       <r>   22.0435    0.0000 </r>
      </set>
      <set comment="kpoint 35">
       <r>   -9.8012    1.0000 </r>
       <r>   -4.0820    1.0000 </r>
       <r>   -4.0820    1.0000 </r>
       <r>   -2.9409    1.0000 </r>
       <r>    0.0987    1.0000 </r>
       <r>    1.1633    1.0000 </r>
       <r>    1.1633    1.0000 </r>
       <r>    2.8762    1.0000 </r>
       <r>    3.7619    1.0000 </r>
       <r>    3.7619    1.0000 </r>
       <r>    5.2702    1.0000 </r>
       <r>    5.2702    1.0000 </r>
       <r>    5.3728    1.0000 </r>
       <r>    7.7661    1.0000 </r>
       <r>    9.7797    1.0000 </r>
       <r>   10.4838    1.0000 </r>
       <r>   16.4734    0.0000 </r>
       <r>   16.4734    0.0000 </r>
       <r>   16.4881    0.0000 </r>
       <r>   17.7577    0.0000 </r>
       <r>   18.3372    0.0000 </r>
       <r>   18.6568    0.0000 </r>
       <r>   19.0328    0.0000 </r>
       <r>   19.0328    0.0000 </r>
      </set>
      <set comment="kpoint 36">
       <r>   -9.5182    1.0000 </r>
       <r>   -5.0385    1.0000 </r>
       <r>   -3.8524    1.0000 </r>
       <r>   -2.7726    1.0000 </r>
       <r>   -0.0488    1.0000 </r>
       <r>    0.9505    1.0000 </r>
       <r>    2.0433    1.0000 </r>
       <r>    2.5313    1.0000 </r>
       <r>    3.4261    1.0000 </r>
       <r>    4.3426    1.0000 </r>
       <r>    5.1490    1.0000 </r>
       <r>    5.4627    1.0000 </r>
       <r>    5.5603    1.0000 </r>
       <r>    6.9789    1.0000 </r>
       <r>    9.1849    1.0000 </r>
       <r>   10.2555    1.0000 </r>
       <r>   16.5309    0.0000 </r>
       <r>   16.8809    0.0000 </r>
       <r>   17.1923    0.0000 </r>
       <r>   17.7338    0.0000 </r>
       <r>   19.0272    0.0000 </r>
       <r>   19.1737    0.0000 </r>
       <r>   19.5934    0.0000 </r>
       <r>   20.0973    0.0000 </r>
      </set>
      <set comment="kpoint 37">
       <r>   -9.1421    1.0000 </r>
       <r>   -5.9265    1.0000 </r>
       <r>   -3.5605    1.0000 </r>
       <r>   -2.6036    1.0000 </r>
       <r>   -0.2760    1.0000 </r>
       <r>    0.6116    1.0000 </r>
       <r>    2.4195    1.0000 </r>
       <r>    2.7821    1.0000 </r>
       <r>    3.2205    1.0000 </r>
       <r>    4.9694    1.0000 </r>
       <r>    5.1103    1.0000 </r>
       <r>    5.3805    1.0000 </r>
       <r>    5.9700    1.0000 </r>
       <r>    6.2023    1.0000 </r>
       <r>    8.5237    1.0000 </r>
       <r>    9.7821    1.0000 </r>
       <r>   16.6284    0.0000 </r>
       <r>   17.5600    0.0000 </r>
       <r>   17.6001    0.0000 </r>
       <r>   18.1534    0.0000 </r>
       <r>   19.8654    0.0000 </r>
       <r>   19.9458    0.0000 </r>
       <r>   20.3137    0.0000 </r>
       <r>   21.2411    0.0000 </r>
      </set>
      <set comment="kpoint 38">
       <r>   -8.6741    1.0000 </r>
       <r>   -6.7387    1.0000 </r>
       <r>   -3.2252    1.0000 </r>
       <r>   -2.5181    1.0000 </r>
       <r>   -0.4584    1.0000 </r>
       <r>    0.2037    1.0000 </r>
       <r>    2.4997    1.0000 </r>
       <r>    3.0741    1.0000 </r>
       <r>    3.4385    1.0000 </r>
       <r>    4.8413    1.0000 </r>
       <r>    5.1949    1.0000 </r>
       <r>    5.4557    1.0000 </r>
       <r>    5.9063    1.0000 </r>
       <r>    6.5653    1.0000 </r>
       <r>    7.8577    1.0000 </r>
       <r>    9.1020    1.0000 </r>
       <r>   16.7661    0.0000 </r>
       <r>   17.3516    0.0000 </r>
       <r>   18.5656    0.0000 </r>
       <r>   19.2668    0.0000 </r>
       <r>   20.6812    0.0000 </r>
       <r>   20.9533    0.0000 </r>
       <r>   21.1784    0.0000 </r>
       <r>   21.9751    0.0000 </r>
      </set>
      <set comment="kpoint 39">
       <r>   -8.1160    1.0000 </r>
       <r>   -7.4699    1.0000 </r>
       <r>   -2.8851    1.0000 </r>
       <r>   -2.6157    1.0000 </r>
       <r>   -0.4344    1.0000 </r>
       <r>   -0.1805    1.0000 </r>
       <r>    2.6874    1.0000 </r>
       <r>    2.8993    1.0000 </r>
       <r>    4.0812    1.0000 </r>
       <r>    4.7487    1.0000 </r>
       <r>    4.8484    1.0000 </r>
       <r>    4.9892    1.0000 </r>
       <r>    6.5827    1.0000 </r>
       <r>    7.2117    1.0000 </r>
       <r>    7.3868    1.0000 </r>
       <r>    8.2776    1.0000 </r>
       <r>   16.9392    0.0000 </r>
       <r>   17.1388    0.0000 </r>
       <r>   19.6478    0.0000 </r>
       <r>   20.2211    0.0000 </r>
       <r>   21.4622    0.0000 </r>
       <r>   21.5711    0.0000 </r>
       <r>   22.0034    0.0000 </r>
       <r>   22.1314    0.0000 </r>
      </set>
      <set comment="kpoint 40">
       <r>   -9.2361    1.0000 </r>
       <r>   -4.7916    1.0000 </r>
       <r>   -4.7916    1.0000 </r>
       <r>   -2.6801    1.0000 </r>
       <r>   -0.3316    1.0000 </r>
       <r>    1.6147    1.0000 </r>
       <r>    1.6147    1.0000 </r>
       <r>    2.3731    1.0000 </r>
       <r>    4.1176    1.0000 </r>
       <r>    4.1176    1.0000 </r>
       <r>    5.5155    1.0000 </r>
       <r>    5.5155    1.0000 </r>
       <r>    5.8215    1.0000 </r>
       <r>    6.1880    1.0000 </r>
       <r>    8.6519    1.0000 </r>
       <r>   10.1879    1.0000 </r>
       <r>   16.9655    0.0000 </r>
       <r>   17.2831    0.0000 </r>
       <r>   17.2831    0.0000 </r>
       <r>   18.1947    0.0000 </r>
       <r>   19.2372    0.0000 </r>
       <r>   19.4099    0.0000 </r>
       <r>   20.5797    0.0000 </r>
       <r>   20.5797    0.0000 </r>
      </set>
      <set comment="kpoint 41">
       <r>   -8.8615    1.0000 </r>
       <r>   -5.6682    1.0000 </r>
       <r>   -4.4708    1.0000 </r>
       <r>   -2.6759    1.0000 </r>
       <r>   -0.5720    1.0000 </r>
       <r>    1.0946    1.0000 </r>
       <r>    2.1916    1.0000 </r>
       <r>    2.4367    1.0000 </r>
       <r>    3.8999    1.0000 </r>
       <r>    4.8652    1.0000 </r>
       <r>    5.4142    1.0000 </r>
       <r>    5.4798    1.0000 </r>
       <r>    5.9770    1.0000 </r>
       <r>    6.0770    1.0000 </r>
       <r>    8.0302    1.0000 </r>
       <r>    9.8765    1.0000 </r>
       <r>   17.4055    0.0000 </r>
       <r>   17.4074    0.0000 </r>
       <r>   18.2526    0.0000 </r>
       <r>   18.2570    0.0000 </r>
       <r>   19.8018    0.0000 </r>
       <r>   19.9535    0.0000 </r>
       <r>   21.2017    0.0000 </r>
       <r>   21.5650    0.0000 </r>
      </set>
      <set comment="kpoint 42">
       <r>   -8.3957    1.0000 </r>
       <r>   -6.4726    1.0000 </r>
       <r>   -4.0867    1.0000 </r>
       <r>   -2.8627    1.0000 </r>
       <r>   -0.5916    1.0000 </r>
       <r>    0.5536    1.0000 </r>
       <r>    2.6497    1.0000 </r>
       <r>    2.7545    1.0000 </r>
       <r>    3.6236    1.0000 </r>
       <r>    4.6765    1.0000 </r>
       <r>    5.5295    1.0000 </r>
       <r>    5.5370    1.0000 </r>
       <r>    5.9587    1.0000 </r>
       <r>    6.8508    1.0000 </r>
       <r>    7.3899    1.0000 </r>
       <r>    9.3253    1.0000 </r>
       <r>   17.5622    0.0000 </r>
       <r>   18.1167    0.0000 </r>
       <r>   18.1549    0.0000 </r>
       <r>   19.3570    0.0000 </r>
       <r>   20.3490    0.0000 </r>
       <r>   20.9201    0.0000 </r>
       <r>   21.5539    0.0000 </r>
       <r>   21.8799    0.0000 </r>
      </set>
      <set comment="kpoint 43">
       <r>   -7.8404    1.0000 </r>
       <r>   -7.1982    1.0000 </r>
       <r>   -3.6586    1.0000 </r>
       <r>   -3.2251    1.0000 </r>
       <r>   -0.3560    1.0000 </r>
       <r>    0.0511    1.0000 </r>
       <r>    2.9513    1.0000 </r>
       <r>    3.2924    1.0000 </r>
       <r>    3.3467    1.0000 </r>
       <r>    3.9860    1.0000 </r>
       <r>    5.6639    1.0000 </r>
       <r>    5.8300    1.0000 </r>
       <r>    6.1499    1.0000 </r>
       <r>    6.7606    1.0000 </r>
       <r>    7.7311    1.0000 </r>
       <r>    8.5865    1.0000 </r>
       <r>   17.7410    0.0000 </r>
       <r>   17.9322    0.0000 </r>
       <r>   19.1145    0.0000 </r>
       <r>   19.9834    0.0000 </r>
       <r>   21.0050    0.0000 </r>
       <r>   21.1205    0.0000 </r>
       <r>   21.7086    0.0000 </r>
       <r>   21.9736    0.0000 </r>
      </set>
      <set comment="kpoint 44">
       <r>   -8.4891    1.0000 </r>
       <r>   -5.3292    1.0000 </r>
       <r>   -5.3292    1.0000 </r>
       <r>   -2.9456    1.0000 </r>
       <r>   -0.6517    1.0000 </r>
       <r>    1.5647    1.0000 </r>
       <r>    1.5647    1.0000 </r>
       <r>    2.6184    1.0000 </r>
       <r>    4.5247    1.0000 </r>
       <r>    4.5247    1.0000 </r>
       <r>    4.6469    1.0000 </r>
       <r>    6.2189    1.0000 </r>
       <r>    6.2189    1.0000 </r>
       <r>    6.3910    1.0000 </r>
       <r>    7.4423    1.0000 </r>
       <r>    9.7488    1.0000 </r>
       <r>   17.5477    0.0000 </r>
       <r>   18.3891    0.0000 </r>
       <r>   18.3891    0.0000 </r>
       <r>   18.8026    0.0000 </r>
       <r>   19.8520    0.0000 </r>
       <r>   20.2212    0.0000 </r>
       <r>   21.7535    0.0000 </r>
       <r>   21.7535    0.0000 </r>
      </set>
      <set comment="kpoint 45">
       <r>   -8.0263    1.0000 </r>
       <r>   -6.1216    1.0000 </r>
       <r>   -4.9161    1.0000 </r>
       <r>   -3.3960    1.0000 </r>
       <r>   -0.4695    1.0000 </r>
       <r>    0.9505    1.0000 </r>
       <r>    2.0683    1.0000 </r>
       <r>    2.9105    1.0000 </r>
       <r>    3.9192    1.0000 </r>
       <r>    4.1190    1.0000 </r>
       <r>    5.0904    1.0000 </r>
       <r>    6.3847    1.0000 </r>
       <r>    6.5999    1.0000 </r>
       <r>    6.8305    1.0000 </r>
       <r>    7.0932    1.0000 </r>
       <r>    9.3667    1.0000 </r>
       <r>   18.0269    0.0000 </r>
       <r>   18.5427    0.0000 </r>
       <r>   18.9427    0.0000 </r>
       <r>   19.4661    0.0000 </r>
       <r>   20.0606    0.0000 </r>
       <r>   20.9631    0.0000 </r>
       <r>   21.0210    0.0000 </r>
       <r>   21.4231    0.0000 </r>
      </set>
      <set comment="kpoint 46">
       <r>   -7.4752    1.0000 </r>
       <r>   -6.8390    1.0000 </r>
       <r>   -4.4397    1.0000 </r>
       <r>   -3.9199    1.0000 </r>
       <r>   -0.1022    1.0000 </r>
       <r>    0.3845    1.0000 </r>
       <r>    2.6257    1.0000 </r>
       <r>    3.2433    1.0000 </r>
       <r>    3.2776    1.0000 </r>
       <r>    3.6908    1.0000 </r>
       <r>    5.6488    1.0000 </r>
       <r>    6.2279    1.0000 </r>
       <r>    6.5388    1.0000 </r>
       <r>    6.6305    1.0000 </r>
       <r>    7.9724    1.0000 </r>
       <r>    8.7557    1.0000 </r>
       <r>   18.7056    0.0000 </r>
       <r>   18.7846    0.0000 </r>
       <r>   18.8564    0.0000 </r>
       <r>   19.6652    0.0000 </r>
       <r>   20.4193    0.0000 </r>
       <r>   20.8962    0.0000 </r>
       <r>   20.9950    0.0000 </r>
       <r>   21.9663    0.0000 </r>
      </set>
      <set comment="kpoint 47">
       <r>   -7.5678    1.0000 </r>
       <r>   -5.6901    1.0000 </r>
       <r>   -5.6901    1.0000 </r>
       <r>   -4.0072    1.0000 </r>
       <r>   -0.1601    1.0000 </r>
       <r>    1.4117    1.0000 </r>
       <r>    1.4117    1.0000 </r>
       <r>    3.2030    1.0000 </r>
       <r>    3.2557    1.0000 </r>
       <r>    4.6080    1.0000 </r>
       <r>    4.6080    1.0000 </r>
       <r>    6.2461    1.0000 </r>
       <r>    7.0538    1.0000 </r>
       <r>    7.2721    1.0000 </r>
       <r>    7.2721    1.0000 </r>
       <r>    9.1734    1.0000 </r>
       <r>   18.2148    0.0000 </r>
       <r>   19.5812    0.0000 </r>
       <r>   19.5812    0.0000 </r>
       <r>   19.5875    0.0000 </r>
       <r>   19.8852    0.0000 </r>
       <r>   20.5415    0.0000 </r>
       <r>   20.5415    0.0000 </r>
       <r>   21.2810    0.0000 </r>
      </set>
      <set comment="kpoint 48">
       <r>   -7.0228    1.0000 </r>
       <r>   -6.3951    1.0000 </r>
       <r>   -5.1847    1.0000 </r>
       <r>   -4.6169    1.0000 </r>
       <r>    0.2767    1.0000 </r>
       <r>    0.8079    1.0000 </r>
       <r>    1.9423    1.0000 </r>
       <r>    2.5411    1.0000 </r>
       <r>    3.6664    1.0000 </r>
       <r>    4.1244    1.0000 </r>
       <r>    5.1223    1.0000 </r>
       <r>    5.6706    1.0000 </r>
       <r>    7.2984    1.0000 </r>
       <r>    7.3558    1.0000 </r>
       <r>    8.0831    1.0000 </r>
       <r>    8.7363    1.0000 </r>
       <r>   18.7077    0.0000 </r>
       <r>   19.4262    0.0000 </r>
       <r>   19.6810    0.0000 </r>
       <r>   19.7400    0.0000 </r>
       <r>   19.9602    0.0000 </r>
       <r>   20.1861    0.0000 </r>
       <r>   20.9507    0.0000 </r>
       <r>   22.0286    0.0000 </r>
      </set>
      <set comment="kpoint 49">
       <r>   -6.4864    1.0000 </r>
       <r>   -5.8711    1.0000 </r>
       <r>   -5.8711    1.0000 </r>
       <r>   -5.2744    1.0000 </r>
       <r>    0.7541    1.0000 </r>
       <r>    1.3137    1.0000 </r>
       <r>    1.3137    1.0000 </r>
       <r>    1.8942    1.0000 </r>
       <r>    4.1116    1.0000 </r>
       <r>    4.6023    1.0000 </r>
       <r>    4.6023    1.0000 </r>
       <r>    5.1217    1.0000 </r>
       <r>    7.7719    1.0000 </r>
       <r>    8.0282    1.0000 </r>
       <r>    8.0282    1.0000 </r>
       <r>    8.4969    1.0000 </r>
       <r>   18.9088    0.0000 </r>
       <r>   19.3659    0.0000 </r>
       <r>   19.3659    0.0000 </r>
       <r>   19.5207    0.0000 </r>
       <r>   20.5428    0.0000 </r>
       <r>   20.8625    0.0000 </r>
       <r>   20.8625    0.0000 </r>
       <r>   21.6459    0.0000 </r>
      </set>
      <set comment="kpoint 50">
       <r>   -9.6125    1.0000 </r>
       <r>   -3.9322    1.0000 </r>
       <r>   -3.9322    1.0000 </r>
       <r>   -3.9322    1.0000 </r>
       <r>    0.9124    1.0000 </r>
       <r>    0.9124    1.0000 </r>
       <r>    0.9124    1.0000 </r>
       <r>    3.4134    1.0000 </r>
       <r>    3.4134    1.0000 </r>
       <r>    3.4134    1.0000 </r>
       <r>    5.5472    1.0000 </r>
       <r>    5.5472    1.0000 </r>
       <r>    5.5472    1.0000 </r>
       <r>    6.9688    1.0000 </r>
       <r>   10.0192    1.0000 </r>
       <r>   10.0192    1.0000 </r>
       <r>   16.5745    0.0000 </r>
       <r>   16.5745    0.0000 </r>
       <r>   16.5745    0.0000 </r>
       <r>   18.3062    0.0000 </r>
       <r>   18.3062    0.0000 </r>
       <r>   18.7974    0.0000 </r>
       <r>   20.0192    0.0000 </r>
       <r>   20.0192    0.0000 </r>
      </set>
      <set comment="kpoint 51">
       <r>   -9.3301    1.0000 </r>
       <r>   -4.8754    1.0000 </r>
       <r>   -3.7179    1.0000 </r>
       <r>   -3.7179    1.0000 </r>
       <r>    0.5080    1.0000 </r>
       <r>    0.5080    1.0000 </r>
       <r>    1.5707    1.0000 </r>
       <r>    3.2651    1.0000 </r>
       <r>    3.2651    1.0000 </r>
       <r>    4.2225    1.0000 </r>
       <r>    5.6421    1.0000 </r>
       <r>    5.6421    1.0000 </r>
       <r>    5.8062    1.0000 </r>
       <r>    6.1620    1.0000 </r>
       <r>    9.4420    1.0000 </r>
       <r>    9.9647    1.0000 </r>
       <r>   16.7014    0.0000 </r>
       <r>   16.9936    0.0000 </r>
       <r>   16.9936    0.0000 </r>
       <r>   18.1693    0.0000 </r>
       <r>   19.0138    0.0000 </r>
       <r>   19.1906    0.0000 </r>
       <r>   20.4940    0.0000 </r>
       <r>   21.1721    0.0000 </r>
      </set>
      <set comment="kpoint 52">
       <r>   -8.9550    1.0000 </r>
       <r>   -5.7550    1.0000 </r>
       <r>   -3.4573    1.0000 </r>
       <r>   -3.4573    1.0000 </r>
       <r>    0.0231    1.0000 </r>
       <r>    0.0231    1.0000 </r>
       <r>    2.1406    1.0000 </r>
       <r>    3.2785    1.0000 </r>
       <r>    3.2785    1.0000 </r>
       <r>    5.2027    1.0000 </r>
       <r>    5.3764    1.0000 </r>
       <r>    5.5869    1.0000 </r>
       <r>    5.5869    1.0000 </r>
       <r>    6.1465    1.0000 </r>
       <r>    8.8191    1.0000 </r>
       <r>    9.6116    1.0000 </r>
       <r>   16.8651    0.0000 </r>
       <r>   17.7192    0.0000 </r>
       <r>   17.7192    0.0000 </r>
       <r>   17.9741    0.0000 </r>
       <r>   19.8117    0.0000 </r>
       <r>   19.8195    0.0000 </r>
       <r>   21.1257    0.0000 </r>
       <r>   22.3473    0.0000 </r>
      </set>
      <set comment="kpoint 53">
       <r>   -8.4885    1.0000 </r>
       <r>   -6.5616    1.0000 </r>
       <r>   -3.1908    1.0000 </r>
       <r>   -3.1908    1.0000 </r>
       <r>   -0.4301    1.0000 </r>
       <r>   -0.4301    1.0000 </r>
       <r>    2.7002    1.0000 </r>
       <r>    3.3682    1.0000 </r>
       <r>    3.3682    1.0000 </r>
       <r>    4.6303    1.0000 </r>
       <r>    5.4594    1.0000 </r>
       <r>    5.4594    1.0000 </r>
       <r>    6.2425    1.0000 </r>
       <r>    6.5637    1.0000 </r>
       <r>    8.1951    1.0000 </r>
       <r>    9.0035    1.0000 </r>
       <r>   17.0601    0.0000 </r>
       <r>   17.7492    0.0000 </r>
       <r>   18.6735    0.0000 </r>
       <r>   18.6735    0.0000 </r>
       <r>   20.6093    0.0000 </r>
       <r>   20.6845    0.0000 </r>
       <r>   21.9054    0.0000 </r>
       <r>   22.5235    0.0000 </r>
[...]
       <r>   -4.7083    1.0000 </r>
       <r>   -4.7083    1.0000 </r>
       <r>   -1.7311    1.0000 </r>
       <r>   -1.7311    1.0000 </r>
       <r>   -1.7311    1.0000 </r>
       <r>   -0.1538    1.0000 </r>
       <r>    7.2976    1.0000 </r>
       <r>    7.2976    1.0000 </r>
       <r>    7.2976    1.0000 </r>
       <r>    7.7700    1.0000 </r>
       <r>    7.7700    1.0000 </r>
       <r>    7.7700    1.0000 </r>
       <r>    8.5329    1.0000 </r>
       <r>    8.5329    1.0000 </r>
       <r>   19.0583    0.0000 </r>
       <r>   19.0583    0.0000 </r>
       <r>   19.0583    0.0000 </r>
       <r>   19.6516    0.0000 </r>
       <r>   19.6516    0.0000 </r>
       <r>   20.0937    0.0000 </r>
       <r>   20.7324    0.0000 </r>
       <r>   20.7324    0.0000 </r>
      </set>
      <set comment="kpoint 82">
       <r>   -5.8258    1.0000 </r>
       <r>   -5.2707    1.0000 </r>
       <r>   -4.4887    1.0000 </r>
       <r>   -4.4887    1.0000 </r>
       <r>   -2.1141    1.0000 </r>
       <r>   -2.1141    1.0000 </r>
       <r>   -1.3489    1.0000 </r>
       <r>   -0.8084    1.0000 </r>
       <r>    7.4227    1.0000 </r>
       <r>    7.4227    1.0000 </r>
       <r>    7.9350    1.0000 </r>
       <r>    7.9350    1.0000 </r>
       <r>    7.9927    1.0000 </r>
       <r>    8.0255    1.0000 </r>
       <r>    8.2851    1.0000 </r>
       <r>    8.4230    1.0000 </r>
       <r>   19.3050    0.0000 </r>
       <r>   19.4050    0.0000 </r>
       <r>   19.4050    0.0000 </r>
       <r>   19.5054    0.0000 </r>
       <r>   19.9020    0.0000 </r>
       <r>   20.1965    0.0000 </r>
       <r>   20.1970    0.0000 </r>
       <r>   20.2601    0.0000 </r>
      </set>
      <set comment="kpoint 83">
       <r>   -5.3582    1.0000 </r>
       <r>   -4.8801    1.0000 </r>
       <r>   -4.8801    1.0000 </r>
       <r>   -4.5731    1.0000 </r>
       <r>   -2.2006    1.0000 </r>
       <r>   -1.8989    1.0000 </r>
       <r>   -1.8989    1.0000 </r>
       <r>   -1.4310    1.0000 </r>
       <r>    7.7397    1.0000 </r>
       <r>    7.9073    1.0000 </r>
       <r>    7.9073    1.0000 </r>
       <r>    8.1540    1.0000 </r>
       <r>    8.1652    1.0000 </r>
       <r>    8.2133    1.0000 </r>
       <r>    8.2133    1.0000 </r>
       <r>    8.4219    1.0000 </r>
       <r>   19.5195    0.0000 </r>
       <r>   19.5784    0.0000 </r>
       <r>   19.5784    0.0000 </r>
       <r>   19.6989    0.0000 </r>
       <r>   19.7400    0.0000 </r>
       <r>   19.9309    0.0000 </r>
       <r>   19.9309    0.0000 </r>
       <r>   20.0695    0.0000 </r>
      </set>
      <set comment="kpoint 84">
       <r>   -4.9658    1.0000 </r>
       <r>   -4.6571    1.0000 </r>
       <r>   -4.6571    1.0000 </r>
       <r>   -4.6571    1.0000 </r>
       <r>   -2.2883    1.0000 </r>
       <r>   -2.2883    1.0000 </r>
       <r>   -2.2883    1.0000 </r>
       <r>   -1.9847    1.0000 </r>
       <r>    8.2043    1.0000 </r>
       <r>    8.2043    1.0000 </r>
       <r>    8.2043    1.0000 </r>
       <r>    8.2618    1.0000 </r>
       <r>    8.2618    1.0000 </r>
       <r>    8.2618    1.0000 </r>
       <r>    8.3533    1.0000 </r>
       <r>    8.3533    1.0000 </r>
       <r>   19.6326    0.0000 </r>
       <r>   19.6326    0.0000 </r>
       <r>   19.6326    0.0000 </r>
       <r>   19.6920    0.0000 </r>
       <r>   19.6920    0.0000 </r>
       <r>   19.8175    0.0000 </r>
       <r>   19.8175    0.0000 </r>
       <r>   19.8176    0.0000 </r>
      </set>
     </set>
    </set>
   </array>
  </eigenvalues>
  <separator name="orbital magnetization" >
   <v name="MAGDIPOLOUT">      0.00000000      0.00000000      0.00000000</v>
  </separator>
  <dos>
   <i name="efermi">     11.40230267 </i>
   <total>
    <array>
     <dimension dim="1">gridpoints</dimension>
     <dimension dim="2">spin</dimension>
     <field>energy</field>
     <field>total</field>
     <field>integrated</field>
     <set>
      <set comment="spin 1">
       <r>   -12.1455     0.0000     0.0000 </r>
       <r>   -12.0223     0.0000     0.0000 </r>
       <r>   -11.8990     0.0000     0.0000 </r>
       <r>   -11.7758     0.0000     0.0000 </r>
       <r>   -11.6525     0.0000     0.0000 </r>
       <r>   -11.5293     0.0000     0.0000 </r>
       <r>   -11.4060     0.0000     0.0000 </r>
       <r>   -11.2828     0.0000     0.0000 </r>
       <r>   -11.1595     0.0000     0.0000 </r>
       <r>   -11.0363     0.0000     0.0000 </r>
       <r>   -10.9130     0.0000     0.0000 </r>
       <r>   -10.7898     0.0000     0.0000 </r>
       <r>   -10.6665     0.0000     0.0000 </r>
       <r>   -10.5433     0.0006     0.0001 </r>
       <r>   -10.4200     0.0528     0.0066 </r>
       <r>   -10.2968     0.1709     0.0277 </r>
       <r>   -10.1736     0.2162     0.0543 </r>
       <r>   -10.0503     0.3238     0.0942 </r>
       <r>    -9.9271     0.2298     0.1225 </r>
       <r>    -9.8038     0.4349     0.1761 </r>
       <r>    -9.6806     0.3449     0.2186 </r>
       <r>    -9.5573     0.3919     0.2669 </r>
       <r>    -9.4341     0.4947     0.3279 </r>
       <r>    -9.3108     0.4855     0.3877 </r>
       <r>    -9.1876     0.5357     0.4538 </r>
       <r>    -9.0643     0.3805     0.5007 </r>
       <r>    -8.9411     0.6595     0.5819 </r>
       <r>    -8.8178     0.6501     0.6621 </r>
       <r>    -8.6946     0.5094     0.7249 </r>
       <r>    -8.5713     0.5040     0.7870 </r>
       <r>    -8.4481     0.7133     0.8749 </r>
       <r>    -8.3249     0.8128     0.9751 </r>
       <r>    -8.2016     0.5647     1.0447 </r>
       <r>    -8.0784     0.7500     1.1371 </r>
       <r>    -7.9551     0.6143     1.2128 </r>
       <r>    -7.8319     0.8490     1.3174 </r>
       <r>    -7.7086     0.5689     1.3876 </r>
       <r>    -7.5854     0.8937     1.4977 </r>
       <r>    -7.4621     1.0689     1.6294 </r>
       <r>    -7.3389     0.5372     1.6956 </r>
       <r>    -7.2156     0.8102     1.7955 </r>
       <r>    -7.0924     0.6993     1.8817 </r>
       <r>    -6.9691     1.2401     2.0345 </r>
       <r>    -6.8459     0.8214     2.1357 </r>
       <r>    -6.7226     0.9615     2.2543 </r>
       <r>    -6.5994     0.7101     2.3418 </r>
       <r>    -6.4762     1.0610     2.4725 </r>
       <r>    -6.3529     0.8921     2.5825 </r>
       <r>    -6.2297     1.0068     2.7066 </r>
       <r>    -6.1064     1.0302     2.8335 </r>
       <r>    -5.9832     1.0205     2.9593 </r>
       <r>    -5.8599     1.1612     3.1024 </r>
       <r>    -5.7367     0.9791     3.2231 </r>
       <r>    -5.6134     1.4582     3.4028 </r>
       <r>    -5.4902     0.5839     3.4748 </r>
       <r>    -5.3669     0.9216     3.5884 </r>
       <r>    -5.2437     1.6285     3.7891 </r>
       <r>    -5.1204     1.3803     3.9592 </r>
       <r>    -4.9972     1.0683     4.0908 </r>
       <r>    -4.8739     1.4250     4.2665 </r>
       <r>    -4.7507     1.1258     4.4052 </r>
       <r>    -4.6275     1.2887     4.5641 </r>
       <r>    -4.5042     1.5729     4.7579 </r>
       <r>    -4.3810     1.5187     4.9451 </r>
       <r>    -4.2577     1.5733     5.1390 </r>
       <r>    -4.1345     1.2993     5.2991 </r>
       <r>    -4.0112     1.2063     5.4478 </r>
       <r>    -3.8880     1.9562     5.6889 </r>
       <r>    -3.7647     1.1652     5.8325 </r>
       <r>    -3.6415     1.0576     5.9628 </r>
       <r>    -3.5182     1.0760     6.0955 </r>
       <r>    -3.3950     0.8429     6.1993 </r>
       <r>    -3.2717     1.5002     6.3842 </r>
       <r>    -3.1485     1.7932     6.6053 </r>
       <r>    -3.0252     0.5730     6.6759 </r>
       <r>    -2.9020     0.8976     6.7865 </r>
       <r>    -2.7788     1.2904     6.9455 </r>
       <r>    -2.6555     1.0082     7.0698 </r>
       <r>    -2.5323     1.1161     7.2073 </r>
       <r>    -2.4090     0.5289     7.2725 </r>
       <r>    -2.2858     0.7881     7.3697 </r>
       <r>    -2.1625     0.9916     7.4919 </r>
       <r>    -2.0393     1.1804     7.6373 </r>
       <r>    -1.9160     1.3130     7.7992 </r>
       <r>    -1.7928     1.5287     7.9876 </r>
       <r>    -1.6695     1.2690     8.1440 </r>
       <r>    -1.5463     0.6489     8.2239 </r>
       <r>    -1.4230     0.9157     8.3368 </r>
       <r>    -1.2998     1.1007     8.4725 </r>
       <r>    -1.1766     0.7711     8.5675 </r>
       <r>    -1.0533     0.8658     8.6742 </r>
       <r>    -0.9301     1.9352     8.9127 </r>
       <r>    -0.8068     1.3848     9.0834 </r>
       <r>    -0.6836     1.8289     9.3088 </r>
       <r>    -0.5603     2.3164     9.5943 </r>
       <r>    -0.4371     2.2990     9.8776 </r>
       <r>    -0.3138     2.0484    10.1301 </r>
       <r>    -0.1906     1.3840    10.3007 </r>
       <r>    -0.0673     2.0483    10.5531 </r>
       <r>     0.0559     2.0054    10.8003 </r>
       <r>     0.1792     2.6005    11.1208 </r>
       <r>     0.3024     1.7584    11.3375 </r>
       <r>     0.4257     1.5960    11.5342 </r>
       <r>     0.5489     0.7324    11.6244 </r>
       <r>     0.6721     1.0026    11.7480 </r>
       <r>     0.7954     1.6203    11.9477 </r>
       <r>     0.9186     0.7536    12.0406 </r>
       <r>     1.0419     1.3988    12.2130 </r>
       <r>     1.1651     1.1101    12.3498 </r>
       <r>     1.2884     1.6797    12.5568 </r>
       <r>     1.4116     1.0175    12.6822 </r>
       <r>     1.5349     0.7787    12.7782 </r>
       <r>     1.6581     1.2992    12.9383 </r>
       <r>     1.7814     1.4486    13.1168 </r>
       <r>     1.9046     1.1063    13.2532 </r>
       <r>     2.0279     1.1599    13.3961 </r>
       <r>     2.1511     2.0077    13.6436 </r>
       <r>     2.2744     1.7342    13.8573 </r>
       <r>     2.3976     2.2473    14.1343 </r>
       <r>     2.5208     2.3624    14.4255 </r>
       <r>     2.6441     2.0424    14.6772 </r>
       <r>     2.7673     2.1073    14.9369 </r>
       <r>     2.8906     1.9662    15.1792 </r>
       <r>     3.0138     1.6837    15.3867 </r>
       <r>     3.1371     1.1790    15.5320 </r>
       <r>     3.2603     2.4259    15.8310 </r>
       <r>     3.3836     2.7304    16.1675 </r>
       <r>     3.5068     2.8226    16.5154 </r>
       <r>     3.6301     1.0324    16.6426 </r>
       <r>     3.7533     2.2135    16.9154 </r>
       <r>     3.8766     1.9446    17.1551 </r>
       <r>     3.9998     2.4523    17.4573 </r>
       <r>     4.1231     2.7179    17.7923 </r>
       <r>     4.2463     2.5958    18.1122 </r>
       <r>     4.3695     2.1454    18.3766 </r>
       <r>     4.4928     1.7249    18.5892 </r>
       <r>     4.6160     3.0209    18.9615 </r>
       <r>     4.7393     3.1464    19.3493 </r>
       <r>     4.8625     3.6725    19.8019 </r>
       <r>     4.9858     2.7413    20.1398 </r>
       <r>     5.1090     2.7740    20.4817 </r>
       <r>     5.2323     2.6250    20.8052 </r>
       <r>     5.3555     2.7394    21.1428 </r>
       <r>     5.4788     4.2852    21.6710 </r>
       <r>     5.6020     3.9217    22.1543 </r>
       <r>     5.7253     1.9481    22.3944 </r>
       <r>     5.8485     1.7516    22.6103 </r>
       <r>     5.9718     3.4351    23.0336 </r>
       <r>     6.0950     3.0785    23.4131 </r>
       <r>     6.2182     3.9114    23.8951 </r>
       <r>     6.3415     2.2212    24.1689 </r>
       <r>     6.4647     2.3747    24.4616 </r>
       <r>     6.5880     3.3370    24.8728 </r>
       <r>     6.7112     2.4280    25.1721 </r>
       <r>     6.8345     2.5473    25.4860 </r>
       <r>     6.9577     3.1473    25.8739 </r>
       <r>     7.0810     2.6266    26.1976 </r>
       <r>     7.2042     2.0367    26.4486 </r>
       <r>     7.3275     3.1253    26.8338 </r>
       <r>     7.4507     3.3992    27.2528 </r>
       <r>     7.5740     2.0706    27.5080 </r>
       <r>     7.6972     1.9032    27.7425 </r>
       <r>     7.8204     2.8725    28.0966 </r>
       <r>     7.9437     1.8233    28.3213 </r>
       <r>     8.0669     3.9852    28.8124 </r>
       <r>     8.1902     2.6183    29.1351 </r>
       <r>     8.3134     1.4603    29.3151 </r>
       <r>     8.4367     1.5375    29.5046 </r>
       <r>     8.5599     2.6979    29.8371 </r>
       <r>     8.6832     1.9545    30.0780 </r>
       <r>     8.8064     1.9210    30.3148 </r>
       <r>     8.9297     1.0332    30.4421 </r>
       <r>     9.0529     0.7237    30.5313 </r>
       <r>     9.1762     1.3287    30.6950 </r>
       <r>     9.2994     1.6802    30.9021 </r>
       <r>     9.4227     1.2300    31.0537 </r>
       <r>     9.5459     0.7730    31.1490 </r>
       <r>     9.6691     0.7738    31.2444 </r>
       <r>     9.7924     0.5829    31.3162 </r>
       <r>     9.9156     1.2130    31.4657 </r>
       <r>    10.0389     0.8139    31.5660 </r>
       <r>    10.1621     0.4593    31.6226 </r>
       <r>    10.2854     0.5741    31.6934 </r>
       <r>    10.4086     0.4367    31.7472 </r>
       <r>    10.5319     0.6696    31.8297 </r>
       <r>    10.6551     0.3283    31.8702 </r>
       <r>    10.7784     0.4700    31.9281 </r>
       <r>    10.9016     0.1802    31.9503 </r>
       <r>    11.0249     0.2711    31.9837 </r>
       <r>    11.1481     0.1237    31.9990 </r>
       <r>    11.2714     0.0084    32.0000 </r>
       <r>    11.3946     0.0000    32.0000 </r>
       <r>    11.5178     0.0000    32.0000 </r>
       <r>    11.6411     0.0000    32.0000 </r>
       <r>    11.7643     0.0000    32.0000 </r>
       <r>    11.8876     0.0000    32.0000 </r>
       <r>    12.0108     0.0000    32.0000 </r>
       <r>    12.1341     0.0000    32.0000 </r>
       <r>    12.2573     0.0000    32.0000 </r>
       <r>    12.3806     0.0000    32.0000 </r>
       <r>    12.5038     0.0000    32.0000 </r>
       <r>    12.6271     0.0000    32.0000 </r>
       <r>    12.7503     0.0000    32.0000 </r>
       <r>    12.8736     0.0000    32.0000 </r>
       <r>    12.9968     0.0000    32.0000 </r>
       <r>    13.1201     0.0000    32.0000 </r>
       <r>    13.2433     0.0000    32.0000 </r>
       <r>    13.3665     0.0000    32.0000 </r>
       <r>    13.4898     0.0000    32.0000 </r>
       <r>    13.6130     0.0000    32.0000 </r>
       <r>    13.7363     0.0000    32.0000 </r>
       <r>    13.8595     0.0000    32.0000 </r>
       <r>    13.9828     0.0000    32.0000 </r>
       <r>    14.1060     0.0000    32.0000 </r>
       <r>    14.2293     0.0000    32.0000 </r>
       <r>    14.3525     0.0000    32.0000 </r>
       <r>    14.4758     0.0000    32.0000 </r>
       <r>    14.5990     0.0000    32.0000 </r>
       <r>    14.7223     0.0000    32.0000 </r>
       <r>    14.8455     0.0000    32.0000 </r>
       <r>    14.9688     0.0000    32.0000 </r>
       <r>    15.0920     0.0000    32.0000 </r>
       <r>    15.2152     0.0000    32.0000 </r>
       <r>    15.3385     0.0004    32.0001 </r>
       <r>    15.4617     0.2117    32.0261 </r>
       <r>    15.5850     0.3501    32.0693 </r>
       <r>    15.7082     0.2622    32.1016 </r>
       <r>    15.8315     0.3957    32.1504 </r>
       <r>    15.9547     1.0169    32.2757 </r>
       <r>    16.0780     0.9418    32.3918 </r>
       <r>    16.2012     0.8305    32.4942 </r>
       <r>    16.3245     0.6649    32.5761 </r>
       <r>    16.4477     0.7538    32.6690 </r>
       <r>    16.5710     1.9202    32.9057 </r>
       <r>    16.6942     1.6472    33.1087 </r>
       <r>    16.8174     1.7338    33.3224 </r>
       <r>    16.9407     1.5474    33.5131 </r>
       <r>    17.0639     1.2833    33.6712 </r>
       <r>    17.1872     2.0408    33.9227 </r>
       <r>    17.3104     1.1337    34.0625 </r>
       <r>    17.4337     1.9924    34.3080 </r>
       <r>    17.5569     2.8304    34.6569 </r>
       <r>    17.6802     2.3036    34.9408 </r>
       <r>    17.8034     2.2253    35.2150 </r>
       <r>    17.9267     1.4300    35.3913 </r>
       <r>    18.0499     1.9125    35.6270 </r>
       <r>    18.1732     3.3594    36.0410 </r>
       <r>    18.2964     2.1416    36.3050 </r>
       <r>    18.4197     2.5085    36.6141 </r>
       <r>    18.5429     1.5201    36.8015 </r>
       <r>    18.6661     2.7831    37.1445 </r>
       <r>    18.7894     3.3842    37.5616 </r>
       <r>    18.9126     3.5285    37.9965 </r>
       <r>    19.0359     3.3970    38.4151 </r>
       <r>    19.1591     3.3797    38.8317 </r>
       <r>    19.2824     3.5458    39.2687 </r>
       <r>    19.4056     2.9647    39.6341 </r>
       <r>    19.5289     3.8474    40.1082 </r>
       <r>    19.6521     3.6885    40.5628 </r>
       <r>    19.7754     3.2078    40.9582 </r>
       <r>    19.8986     4.2693    41.4843 </r>
       <r>    20.0219     5.7749    42.1961 </r>
       <r>    20.1451     3.9580    42.6839 </r>
       <r>    20.2684     2.5474    42.9979 </r>
       <r>    20.3916     3.7009    43.4540 </r>
       <r>    20.5148     2.2870    43.7358 </r>
       <r>    20.6381     2.8586    44.0881 </r>
       <r>    20.7613     2.1771    44.3565 </r>
       <r>    20.8846     1.9393    44.5955 </r>
       <r>    21.0078     4.2934    45.1246 </r>
       <r>    21.1311     3.2600    45.5264 </r>
       <r>    21.2543     3.5598    45.9651 </r>
       <r>    21.3776     1.7527    46.1812 </r>
       <r>    21.5008     2.1040    46.4405 </r>
       <r>    21.6241     3.0159    46.8122 </r>
       <r>    21.7473     1.4073    46.9856 </r>
       <r>    21.8706     0.9160    47.0985 </r>
       <r>    21.9938     1.5640    47.2913 </r>
       <r>    22.1171     1.9395    47.5303 </r>
       <r>    22.2403     0.8809    47.6389 </r>
       <r>    22.3635     1.5040    47.8242 </r>
       <r>    22.4868     0.5089    47.8870 </r>
       <r>    22.6100     0.5357    47.9530 </r>
       <r>    22.7333     0.0691    47.9615 </r>
       <r>    22.8565     0.0286    47.9650 </r>
       <r>    22.9798     0.0000    47.9650 </r>
       <r>    23.1030     0.0297    47.9687 </r>
       <r>    23.2263     0.2505    47.9995 </r>
       <r>    23.3495     0.0037    48.0000 </r>
       <r>    23.4728     0.0000    48.0000 </r>
       <r>    23.5960     0.0000    48.0000 </r>
       <r>    23.7193     0.0000    48.0000 </r>
       <r>    23.8425     0.0000    48.0000 </r>
       <r>    23.9658     0.0000    48.0000 </r>
       <r>    24.0890     0.0000    48.0000 </r>
       <r>    24.2122     0.0000    48.0000 </r>
       <r>    24.3355     0.0000    48.0000 </r>
       <r>    24.4587     0.0000    48.0000 </r>
       <r>    24.5820     0.0000    48.0000 </r>
       <r>    24.7052     0.0000    48.0000 </r>
       <r>    24.8285     0.0000    48.0000 </r>
      </set>
     </set>
    </array>
   </total>
  </dos>
 </calculation>
 <structure name="finalpos" >
  <crystal>
   <varray name="basis" >
    <v>       3.54978104       0.00000000       0.00000000 </v>
    <v>       0.00000000       3.54978104       0.00000000 </v>
    <v>       0.00000000       0.00000000       3.54978104 </v>
   </varray>
   <i name="volume">     44.73059707 </i>
   <varray name="rec_basis" >
    <v>       0.28170752       0.00000000       0.00000000 </v>
    <v>       0.00000000       0.28170752       0.00000000 </v>
    <v>       0.00000000       0.00000000       0.28170752 </v>
   </varray>
  </crystal>
  <varray name="positions" >
   <v>       0.25000000       0.25000000       0.25000000 </v>
   <v>       0.00000000       0.00000000       0.00000000 </v>
   <v>       0.25000000       0.75000000       0.75000000 </v>
   <v>       0.00000000       0.50000000       0.50000000 </v>
   <v>       0.75000000       0.25000000       0.75000000 </v>
   <v>       0.50000000       0.00000000       0.50000000 </v>
   <v>       0.75000000       0.75000000       0.25000000 </v>
   <v>       0.50000000       0.50000000       0.00000000 </v>
  </varray>
 </structure>
</modeling>
