   4   4   0   0
  0.1967987E+02  0.4633953E-09  0.4179441E-09  0.4154382E-09  0.2000000E-15
  1.000000000000000E-004
  CAR 
 unknown system                          
     18.56565485     -2.21354460  301      7.24496018      1.00000000
     -2.214  0.0000E+00  0.0000E+00
     -2.144  0.0000E+00  0.0000E+00
     -2.075  0.0000E+00  0.0000E+00
     -2.006  0.0000E+00  0.0000E+00
     -1.936  0.0000E+00  0.0000E+00
     -1.867  0.0000E+00  0.0000E+00
     -1.798  0.4749E-20  0.3290E-21
     -1.729  0.1427E-16  0.9888E-18
     -1.659  0.1318E-13  0.9136E-15
     -1.590  0.4889E-11  0.3395E-12
     -1.521  0.7476E-09  0.5212E-10
     -1.452  0.4890E-07  0.3439E-08
     -1.382  0.1432E-05  0.1026E-06
     -1.313  0.1970E-04  0.1467E-05
     -1.244  0.1328E-03  0.1067E-04
     -1.175  0.4630E-03  0.4274E-04
     -1.105  0.9404E-03  0.1079E-03
     -1.036  0.1413E-02  0.2057E-03
     -0.967  0.1843E-02  0.3334E-03
     -0.898  0.2074E-02  0.4771E-03
     -0.828  0.2291E-02  0.6358E-03
     -0.759  0.2702E-02  0.8229E-03
     -0.690  0.3018E-02  0.1032E-02
     -0.620  0.3114E-02  0.1248E-02
     -0.551  0.3189E-02  0.1469E-02
     -0.482  0.3482E-02  0.1710E-02
     -0.413  0.4065E-02  0.1991E-02
     -0.343  0.4309E-02  0.2290E-02
     -0.274  0.4213E-02  0.2582E-02
     -0.205  0.4310E-02  0.2880E-02
     -0.136  0.4733E-02  0.3208E-02
     -0.066  0.5235E-02  0.3570E-02
      0.003  0.5515E-02  0.3953E-02
      0.072  0.5716E-02  0.4348E-02
      0.141  0.6093E-02  0.4770E-02
      0.211  0.6368E-02  0.5212E-02
      0.280  0.6489E-02  0.5661E-02
      0.349  0.7053E-02  0.6149E-02
      0.418  0.7722E-02  0.6684E-02
      0.488  0.8527E-02  0.7275E-02
      0.557  0.9577E-02  0.7938E-02
      0.626  0.1027E-01  0.8649E-02
      0.696  0.1148E-01  0.9444E-02
      0.765  0.1390E-01  0.1041E-01
      0.834  0.1618E-01  0.1153E-01
      0.903  0.1783E-01  0.1276E-01
      0.973  0.1925E-01  0.1410E-01
      1.042  0.2076E-01  0.1553E-01
      1.111  0.2343E-01  0.1716E-01
      1.180  0.2847E-01  0.1913E-01
      1.250  0.3515E-01  0.2156E-01
      1.319  0.4123E-01  0.2442E-01
      1.388  0.4569E-01  0.2758E-01
      1.457  0.4919E-01  0.3099E-01
      1.527  0.5223E-01  0.3461E-01
      1.596  0.5541E-01  0.3845E-01
      1.665  0.6236E-01  0.4277E-01
      1.735  0.7074E-01  0.4767E-01
      1.804  0.7341E-01  0.5275E-01
      1.873  0.7199E-01  0.5774E-01
      1.942  0.7261E-01  0.6277E-01
      2.012  0.7392E-01  0.6789E-01
      2.081  0.7338E-01  0.7297E-01
      2.150  0.7405E-01  0.7810E-01
      2.219  0.7730E-01  0.8345E-01
      2.289  0.8261E-01  0.8917E-01
      2.358  0.9159E-01  0.9552E-01
      2.427  0.1040E+00  0.1027E+00
      2.496  0.1156E+00  0.1107E+00
      2.566  0.1277E+00  0.1196E+00
      2.635  0.1426E+00  0.1294E+00
      2.704  0.1475E+00  0.1397E+00
      2.773  0.1308E+00  0.1487E+00
      2.843  0.1042E+00  0.1559E+00
      2.912  0.8349E-01  0.1617E+00
      2.981  0.7264E-01  0.1668E+00
      3.051  0.7002E-01  0.1716E+00
      3.120  0.7369E-01  0.1767E+00
      3.189  0.7900E-01  0.1822E+00
      3.258  0.7991E-01  0.1877E+00
      3.328  0.7688E-01  0.1930E+00
      3.397  0.7302E-01  0.1981E+00
      3.466  0.6927E-01  0.2029E+00
      3.535  0.6658E-01  0.2075E+00
      3.605  0.6699E-01  0.2122E+00
      3.674  0.7125E-01  0.2171E+00
      3.743  0.7699E-01  0.2224E+00
      3.812  0.8393E-01  0.2282E+00
      3.882  0.9345E-01  0.2347E+00
      3.951  0.1041E+00  0.2419E+00
      4.020  0.1124E+00  0.2497E+00
      4.089  0.1167E+00  0.2578E+00
      4.159  0.1186E+00  0.2660E+00
      4.228  0.1206E+00  0.2744E+00
      4.297  0.1242E+00  0.2830E+00
      4.367  0.1273E+00  0.2918E+00
      4.436  0.1269E+00  0.3006E+00
      4.505  0.1228E+00  0.3091E+00
      4.574  0.1187E+00  0.3173E+00
      4.644  0.1168E+00  0.3254E+00
      4.713  0.1169E+00  0.3335E+00
      4.782  0.1178E+00  0.3417E+00
      4.851  0.1164E+00  0.3497E+00
      4.921  0.1121E+00  0.3575E+00
      4.990  0.1077E+00  0.3649E+00
      5.059  0.1026E+00  0.3720E+00
      5.128  0.9765E-01  0.3788E+00
      5.198  0.9481E-01  0.3854E+00
      5.267  0.9165E-01  0.3917E+00
      5.336  0.8806E-01  0.3978E+00
      5.405  0.8177E-01  0.4035E+00
      5.475  0.7012E-01  0.4083E+00
      5.544  0.5600E-01  0.4122E+00
      5.613  0.4535E-01  0.4154E+00
      5.683  0.3825E-01  0.4180E+00
      5.752  0.3294E-01  0.4203E+00
      5.821  0.2847E-01  0.4223E+00
      5.890  0.2246E-01  0.4238E+00
      5.960  0.1549E-01  0.4249E+00
      6.029  0.1084E-01  0.4256E+00
      6.098  0.1039E-01  0.4264E+00
      6.167  0.1325E-01  0.4273E+00
      6.237  0.1552E-01  0.4284E+00
      6.306  0.1404E-01  0.4293E+00
      6.375  0.1098E-01  0.4301E+00
      6.444  0.9292E-02  0.4307E+00
      6.514  0.9486E-02  0.4314E+00
      6.583  0.1070E-01  0.4321E+00
      6.652  0.1201E-01  0.4330E+00
      6.722  0.1330E-01  0.4339E+00
      6.791  0.1405E-01  0.4349E+00
      6.860  0.1313E-01  0.4358E+00
      6.929  0.1182E-01  0.4366E+00
      6.999  0.1147E-01  0.4374E+00
      7.068  0.1091E-01  0.4381E+00
      7.137  0.1022E-01  0.4388E+00
      7.206  0.1046E-01  0.4396E+00
      7.276  0.1138E-01  0.4404E+00
      7.345  0.1306E-01  0.4413E+00
      7.414  0.1420E-01  0.4422E+00
      7.483  0.1358E-01  0.4432E+00
      7.553  0.1207E-01  0.4440E+00
      7.622  0.1080E-01  0.4448E+00
      7.691  0.1068E-01  0.4455E+00
      7.760  0.1109E-01  0.4463E+00
      7.830  0.1166E-01  0.4471E+00
      7.899  0.1202E-01  0.4479E+00
      7.968  0.1208E-01  0.4488E+00
      8.038  0.1293E-01  0.4497E+00
      8.107  0.1402E-01  0.4506E+00
      8.176  0.1361E-01  0.4516E+00
      8.245  0.1210E-01  0.4524E+00
      8.315  0.1121E-01  0.4532E+00
      8.384  0.1167E-01  0.4540E+00
      8.453  0.1237E-01  0.4548E+00
      8.522  0.1222E-01  0.4557E+00
      8.592  0.1184E-01  0.4565E+00
      8.661  0.1174E-01  0.4573E+00
      8.730  0.1269E-01  0.4582E+00
      8.799  0.1550E-01  0.4593E+00
      8.869  0.1754E-01  0.4605E+00
      8.938  0.1673E-01  0.4617E+00
      9.007  0.1489E-01  0.4627E+00
      9.076  0.1357E-01  0.4636E+00
      9.146  0.1309E-01  0.4645E+00
      9.215  0.1372E-01  0.4655E+00
      9.284  0.1396E-01  0.4664E+00
      9.354  0.1303E-01  0.4674E+00
      9.423  0.1245E-01  0.4682E+00
      9.492  0.1240E-01  0.4691E+00
      9.561  0.1244E-01  0.4699E+00
      9.631  0.1263E-01  0.4708E+00
      9.700  0.1254E-01  0.4717E+00
      9.769  0.1234E-01  0.4725E+00
      9.838  0.1211E-01  0.4734E+00
      9.908  0.1100E-01  0.4741E+00
      9.977  0.1024E-01  0.4748E+00
     10.046  0.1064E-01  0.4756E+00
     10.115  0.1112E-01  0.4764E+00
     10.185  0.1164E-01  0.4772E+00
     10.254  0.1155E-01  0.4780E+00
     10.323  0.1061E-01  0.4787E+00
     10.393  0.1014E-01  0.4794E+00
     10.462  0.1022E-01  0.4801E+00
     10.531  0.1010E-01  0.4808E+00
     10.600  0.9983E-02  0.4815E+00
     10.670  0.1037E-01  0.4822E+00
     10.739  0.1068E-01  0.4830E+00
     10.808  0.1041E-01  0.4837E+00
     10.877  0.9991E-02  0.4844E+00
     10.947  0.1008E-01  0.4851E+00
     11.016  0.1184E-01  0.4859E+00
     11.085  0.1474E-01  0.4869E+00
     11.154  0.1632E-01  0.4880E+00
     11.224  0.1552E-01  0.4891E+00
     11.293  0.1424E-01  0.4901E+00
     11.362  0.1390E-01  0.4911E+00
     11.431  0.1364E-01  0.4920E+00
     11.501  0.1312E-01  0.4929E+00
     11.570  0.1238E-01  0.4938E+00
     11.639  0.1166E-01  0.4946E+00
     11.709  0.1133E-01  0.4954E+00
     11.778  0.1171E-01  0.4962E+00
     11.847  0.1255E-01  0.4970E+00
     11.916  0.1335E-01  0.4980E+00
     11.986  0.1411E-01  0.4989E+00
     12.055  0.1428E-01  0.4999E+00
     12.124  0.1366E-01  0.5009E+00
     12.193  0.1302E-01  0.5018E+00
     12.263  0.1311E-01  0.5027E+00
     12.332  0.1380E-01  0.5036E+00
     12.401  0.1339E-01  0.5046E+00
     12.470  0.1262E-01  0.5054E+00
     12.540  0.1395E-01  0.5064E+00
     12.609  0.1595E-01  0.5075E+00
     12.678  0.1624E-01  0.5086E+00
     12.747  0.1614E-01  0.5098E+00
     12.817  0.1663E-01  0.5109E+00
     12.886  0.1633E-01  0.5120E+00
     12.955  0.1501E-01  0.5131E+00
     13.025  0.1376E-01  0.5140E+00
     13.094  0.1359E-01  0.5150E+00
     13.163  0.1414E-01  0.5160E+00
     13.232  0.1350E-01  0.5169E+00
     13.302  0.1181E-01  0.5177E+00
     13.371  0.1143E-01  0.5185E+00
     13.440  0.1191E-01  0.5193E+00
     13.509  0.1190E-01  0.5201E+00
     13.579  0.1171E-01  0.5210E+00
     13.648  0.1132E-01  0.5217E+00
     13.717  0.1098E-01  0.5225E+00
     13.786  0.1100E-01  0.5233E+00
     13.856  0.1090E-01  0.5240E+00
     13.925  0.1020E-01  0.5247E+00
     13.994  0.1008E-01  0.5254E+00
     14.063  0.1137E-01  0.5262E+00
     14.133  0.1238E-01  0.5271E+00
     14.202  0.1233E-01  0.5279E+00
     14.271  0.1171E-01  0.5287E+00
     14.341  0.1097E-01  0.5295E+00
     14.410  0.1027E-01  0.5302E+00
     14.479  0.9835E-02  0.5309E+00
     14.548  0.9626E-02  0.5316E+00
     14.618  0.9343E-02  0.5322E+00
     14.687  0.9705E-02  0.5329E+00
     14.756  0.1034E-01  0.5336E+00
     14.825  0.1011E-01  0.5343E+00
     14.895  0.9105E-02  0.5349E+00
     14.964  0.8186E-02  0.5355E+00
     15.033  0.7745E-02  0.5360E+00
     15.102  0.7091E-02  0.5365E+00
     15.172  0.6255E-02  0.5370E+00
     15.241  0.5739E-02  0.5373E+00
     15.310  0.5320E-02  0.5377E+00
     15.380  0.4950E-02  0.5381E+00
     15.449  0.4654E-02  0.5384E+00
     15.518  0.3539E-02  0.5386E+00
     15.587  0.2348E-02  0.5388E+00
     15.657  0.2103E-02  0.5389E+00
     15.726  0.2124E-02  0.5391E+00
     15.795  0.1726E-02  0.5392E+00
     15.864  0.1076E-02  0.5393E+00
     15.934  0.8578E-03  0.5393E+00
     16.003  0.1060E-02  0.5394E+00
     16.072  0.1008E-02  0.5395E+00
     16.141  0.8083E-03  0.5395E+00
     16.211  0.8525E-03  0.5396E+00
     16.280  0.9767E-03  0.5397E+00
     16.349  0.1012E-02  0.5397E+00
     16.418  0.7500E-03  0.5398E+00
     16.488  0.3072E-03  0.5398E+00
     16.557  0.7302E-04  0.5398E+00
     16.626  0.8766E-04  0.5398E+00
     16.696  0.2366E-03  0.5398E+00
     16.765  0.3609E-03  0.5399E+00
     16.834  0.4099E-03  0.5399E+00
     16.903  0.4181E-03  0.5399E+00
     16.973  0.3299E-03  0.5399E+00
     17.042  0.1590E-03  0.5399E+00
     17.111  0.3900E-04  0.5400E+00
     17.180  0.8972E-05  0.5400E+00
     17.250  0.2736E-04  0.5400E+00
     17.319  0.7035E-04  0.5400E+00
     17.388  0.9923E-04  0.5400E+00
     17.457  0.1054E-03  0.5400E+00
     17.527  0.1226E-03  0.5400E+00
     17.596  0.1394E-03  0.5400E+00
     17.665  0.8807E-04  0.5400E+00
     17.734  0.2425E-04  0.5400E+00
     17.804  0.2752E-05  0.5400E+00
     17.873  0.1263E-06  0.5400E+00
     17.942  0.2318E-08  0.5400E+00
     18.012  0.1685E-10  0.5400E+00
     18.081  0.4813E-13  0.5400E+00
     18.150  0.5378E-16  0.5400E+00
     18.219  0.0000E+00  0.5400E+00
     18.289  0.0000E+00  0.5400E+00
     18.358  0.0000E+00  0.5400E+00
     18.427  0.0000E+00  0.5400E+00
     18.496  0.0000E+00  0.5400E+00
     18.566  0.0000E+00  0.5400E+00
