       N       E                     dE             d eps       ncg     rms          rms(c)
DAV:   1     0.267249925137E+03    0.26725E+03   -0.22317E+04 91962   0.150E+03
DAV:   2    -0.855439651168E+01   -0.27580E+03   -0.26731E+03106191   0.317E+02
DAV:   3    -0.135782284927E+02   -0.50238E+01   -0.49860E+01101817   0.447E+01
DAV:   4    -0.136105731490E+02   -0.32345E-01   -0.32327E-01104400   0.374E+00
DAV:   5    -0.136109242961E+02   -0.35115E-03   -0.35111E-03107217   0.401E-01    0.127E+01
RMM:   6    -0.126084128663E+02    0.10025E+01   -0.28366E+00 91152   0.108E+01    0.868E+00
RMM:   7    -0.125651410032E+02    0.43272E-01   -0.22382E-01 91211   0.285E+00    0.466E+00
RMM:   8    -0.125589574976E+02    0.61835E-02   -0.89672E-03 91247   0.612E-01    0.473E-01
RMM:   9    -0.125588103996E+02    0.14710E-03   -0.44980E-04 91240   0.122E-01    0.394E-02
RMM:  10    -0.125588322556E+02   -0.21856E-04   -0.31122E-05 91265   0.399E-02    0.202E-02
RMM:  11    -0.125588331991E+02   -0.94344E-06   -0.12195E-06 51097   0.607E-03
   1 F= -.12558833E+02 E0= -.12555981E+02  d E =-.125588E+02
