 running on   24 total cores
 distrk:  each k-point on   24 cores,    1 groups
 distr:  one band on    8 cores,    3 groups
 using from now: INCAR     
 vasp.5.4.4.18Apr17-6-g9f103f2a35 (build Jan 14 2019 14:48:31) complex          
  
 POSCAR found type information on POSCAR  Au
 POSCAR found :  1 types and       4 ions
 scaLAPACK will be used
 LDA part: xc-table for Pade appr. of Perdew
 POSCAR found type information on POSCAR  Au
 POSCAR found :  1 types and       4 ions
 POSCAR, INCAR and KPOINTS ok, starting setup
 FFT: planning ...
 WAVECAR not read
 entering main loop
       N       E                     dE             d eps       ncg     rms          rms(c)
DAV:   1     0.267249925137E+03    0.26725E+03   -0.22317E+04 91962   0.150E+03
DAV:   2    -0.855439651168E+01   -0.27580E+03   -0.26731E+03106191   0.317E+02
DAV:   3    -0.135782284927E+02   -0.50238E+01   -0.49860E+01101817   0.447E+01
DAV:   4    -0.136105731490E+02   -0.32345E-01   -0.32327E-01104400   0.374E+00
DAV:   5    -0.136109242961E+02   -0.35115E-03   -0.35111E-03107217   0.401E-01    0.127E+01
RMM:   6    -0.126084128663E+02    0.10025E+01   -0.28366E+00 91152   0.108E+01    0.868E+00
RMM:   7    -0.125651410032E+02    0.43272E-01   -0.22382E-01 91211   0.285E+00    0.466E+00
RMM:   8    -0.125589574976E+02    0.61835E-02   -0.89672E-03 91247   0.612E-01    0.473E-01
RMM:   9    -0.125588103996E+02    0.14710E-03   -0.44980E-04 91240   0.122E-01    0.394E-02
RMM:  10    -0.125588322556E+02   -0.21856E-04   -0.31122E-05 91265   0.399E-02    0.202E-02
RMM:  11    -0.125588331991E+02   -0.94344E-06   -0.12195E-06 51097   0.607E-03
   1 F= -.12558833E+02 E0= -.12555981E+02  d E =-.125588E+02
 curvature:   0.00 expect dE= 0.000E+00 dE for cont linesearch  0.000E+00
 trial: gam= 0.00000 g(F)=  0.153E-13 g(S)=  0.000E+00 ort = 0.000E+00 (trialstep = 0.100E+01)
 search vector abs. value=  0.100E-09
 reached required accuracy - stopping structural energy minimisation
