   4   4   0   0
  0.1775638E+02  0.4166931E-09  0.4166930E-09  0.4166930E-09  0.2000000E-15
  1.000000000000000E-004
  CAR 
 unknown system                          
     19.65952975     -1.63937185  301      8.75776911      1.00000000
     -1.639  0.0000E+00  0.0000E+00
     -1.568  0.0000E+00  0.0000E+00
     -1.497  0.0000E+00  0.0000E+00
     -1.426  0.0000E+00  0.0000E+00
     -1.355  0.0000E+00  0.0000E+00
     -1.284  0.0000E+00  0.0000E+00
     -1.213  0.1853E-19  0.1316E-20
     -1.142  0.4827E-16  0.3428E-17
     -1.071  0.4373E-13  0.3108E-14
     -1.000  0.1517E-10  0.1080E-11
     -0.929  0.2076E-08  0.1485E-09
     -0.858  0.1172E-06  0.8468E-08
     -0.787  0.2897E-05  0.2141E-06
     -0.716  0.3335E-04  0.2582E-05
     -0.645  0.1880E-03  0.1593E-04
     -0.574  0.5502E-03  0.5499E-04
     -0.503  0.9644E-03  0.1235E-03
     -0.432  0.1366E-02  0.2204E-03
     -0.361  0.1761E-02  0.3454E-03
     -0.290  0.1861E-02  0.4775E-03
     -0.219  0.2004E-02  0.6198E-03
     -0.148  0.2493E-02  0.7968E-03
     -0.077  0.2875E-02  0.1001E-02
     -0.006  0.2712E-02  0.1193E-02
      0.065  0.2599E-02  0.1378E-02
      0.136  0.3172E-02  0.1603E-02
      0.207  0.3749E-02  0.1869E-02
      0.278  0.3853E-02  0.2143E-02
      0.349  0.3688E-02  0.2405E-02
      0.420  0.3878E-02  0.2680E-02
      0.491  0.3945E-02  0.2960E-02
      0.562  0.4116E-02  0.3252E-02
      0.633  0.4998E-02  0.3607E-02
      0.704  0.5622E-02  0.4006E-02
      0.775  0.5499E-02  0.4397E-02
      0.846  0.4981E-02  0.4750E-02
      0.916  0.4646E-02  0.5080E-02
      0.987  0.5770E-02  0.5490E-02
      1.058  0.7335E-02  0.6011E-02
      1.129  0.7248E-02  0.6525E-02
      1.200  0.7040E-02  0.7025E-02
      1.271  0.7758E-02  0.7576E-02
      1.342  0.8077E-02  0.8149E-02
      1.413  0.8409E-02  0.8746E-02
      1.484  0.9488E-02  0.9420E-02
      1.555  0.1164E-01  0.1025E-01
      1.626  0.1420E-01  0.1125E-01
      1.697  0.1705E-01  0.1246E-01
      1.768  0.1981E-01  0.1387E-01
      1.839  0.2070E-01  0.1534E-01
      1.910  0.2142E-01  0.1686E-01
      1.981  0.2306E-01  0.1850E-01
      2.052  0.2622E-01  0.2036E-01
      2.123  0.3338E-01  0.2273E-01
      2.194  0.4400E-01  0.2585E-01
      2.265  0.5349E-01  0.2965E-01
      2.336  0.6023E-01  0.3393E-01
      2.407  0.6605E-01  0.3862E-01
      2.478  0.6957E-01  0.4356E-01
      2.549  0.7104E-01  0.4860E-01
      2.620  0.7410E-01  0.5386E-01
      2.691  0.7383E-01  0.5910E-01
      2.762  0.6867E-01  0.6398E-01
      2.833  0.6452E-01  0.6856E-01
      2.904  0.6200E-01  0.7296E-01
      2.975  0.6115E-01  0.7730E-01
      3.046  0.6205E-01  0.8171E-01
      3.117  0.6275E-01  0.8616E-01
      3.188  0.6517E-01  0.9079E-01
      3.259  0.6948E-01  0.9572E-01
      3.330  0.7622E-01  0.1011E+00
      3.401  0.9150E-01  0.1076E+00
      3.472  0.1128E+00  0.1156E+00
      3.543  0.1257E+00  0.1246E+00
      3.614  0.1205E+00  0.1331E+00
      3.685  0.1043E+00  0.1405E+00
      3.756  0.8897E-01  0.1468E+00
      3.827  0.7922E-01  0.1525E+00
      3.898  0.7582E-01  0.1578E+00
      3.969  0.7477E-01  0.1631E+00
      4.040  0.7361E-01  0.1684E+00
      4.111  0.7198E-01  0.1735E+00
      4.182  0.7188E-01  0.1786E+00
      4.253  0.7323E-01  0.1838E+00
      4.324  0.7121E-01  0.1888E+00
      4.395  0.6905E-01  0.1937E+00
      4.466  0.7040E-01  0.1987E+00
      4.537  0.7122E-01  0.2038E+00
      4.608  0.6876E-01  0.2087E+00
      4.679  0.6537E-01  0.2133E+00
      4.750  0.6253E-01  0.2178E+00
      4.821  0.6146E-01  0.2221E+00
      4.892  0.6164E-01  0.2265E+00
      4.963  0.6346E-01  0.2310E+00
      5.034  0.6792E-01  0.2358E+00
      5.105  0.7463E-01  0.2411E+00
      5.176  0.8207E-01  0.2470E+00
      5.247  0.8771E-01  0.2532E+00
      5.318  0.9506E-01  0.2599E+00
      5.389  0.1038E+00  0.2673E+00
      5.460  0.1055E+00  0.2748E+00
      5.531  0.9734E-01  0.2817E+00
      5.602  0.8964E-01  0.2881E+00
      5.673  0.9170E-01  0.2946E+00
      5.744  0.9809E-01  0.3015E+00
      5.815  0.1007E+00  0.3087E+00
      5.886  0.9819E-01  0.3157E+00
      5.957  0.9317E-01  0.3223E+00
      6.028  0.9026E-01  0.3287E+00
      6.099  0.8973E-01  0.3350E+00
      6.170  0.8960E-01  0.3414E+00
      6.241  0.9230E-01  0.3480E+00
      6.312  0.9793E-01  0.3549E+00
      6.383  0.1022E+00  0.3622E+00
      6.454  0.1030E+00  0.3695E+00
      6.525  0.1005E+00  0.3766E+00
      6.596  0.9254E-01  0.3832E+00
      6.667  0.8548E-01  0.3893E+00
      6.738  0.7914E-01  0.3949E+00
      6.809  0.6898E-01  0.3998E+00
      6.880  0.6002E-01  0.4040E+00
      6.951  0.5458E-01  0.4079E+00
      7.022  0.5089E-01  0.4115E+00
      7.093  0.4366E-01  0.4146E+00
      7.164  0.3476E-01  0.4171E+00
      7.235  0.3040E-01  0.4192E+00
      7.306  0.2820E-01  0.4213E+00
      7.377  0.2538E-01  0.4231E+00
      7.448  0.2365E-01  0.4247E+00
      7.519  0.2018E-01  0.4262E+00
      7.590  0.1338E-01  0.4271E+00
      7.661  0.9615E-02  0.4278E+00
      7.732  0.9451E-02  0.4285E+00
      7.803  0.9498E-02  0.4291E+00
      7.874  0.9298E-02  0.4298E+00
      7.945  0.9811E-02  0.4305E+00
      8.016  0.1222E-01  0.4314E+00
      8.087  0.1515E-01  0.4324E+00
      8.158  0.1463E-01  0.4335E+00
      8.229  0.1219E-01  0.4343E+00
      8.300  0.1066E-01  0.4351E+00
      8.371  0.8768E-02  0.4357E+00
      8.442  0.7541E-02  0.4363E+00
      8.513  0.8180E-02  0.4368E+00
      8.584  0.1043E-01  0.4376E+00
      8.655  0.1311E-01  0.4385E+00
      8.726  0.1457E-01  0.4395E+00
      8.797  0.1380E-01  0.4405E+00
      8.868  0.1153E-01  0.4413E+00
      8.939  0.1026E-01  0.4421E+00
      9.010  0.9940E-02  0.4428E+00
      9.081  0.9220E-02  0.4434E+00
      9.152  0.9032E-02  0.4441E+00
      9.223  0.9262E-02  0.4447E+00
      9.294  0.1025E-01  0.4455E+00
      9.365  0.1300E-01  0.4464E+00
      9.436  0.1451E-01  0.4474E+00
      9.507  0.1310E-01  0.4483E+00
      9.578  0.1080E-01  0.4491E+00
      9.649  0.9594E-02  0.4498E+00
      9.720  0.9750E-02  0.4505E+00
      9.791  0.9830E-02  0.4512E+00
      9.862  0.9653E-02  0.4519E+00
      9.933  0.1004E-01  0.4526E+00
     10.004  0.1159E-01  0.4534E+00
     10.075  0.1288E-01  0.4543E+00
     10.146  0.1250E-01  0.4552E+00
     10.217  0.1149E-01  0.4560E+00
     10.288  0.1116E-01  0.4568E+00
     10.359  0.1100E-01  0.4576E+00
     10.430  0.1006E-01  0.4583E+00
     10.501  0.8961E-02  0.4589E+00
     10.572  0.9627E-02  0.4596E+00
     10.643  0.1144E-01  0.4604E+00
     10.714  0.1210E-01  0.4613E+00
     10.785  0.1171E-01  0.4621E+00
     10.856  0.1179E-01  0.4630E+00
     10.927  0.1121E-01  0.4638E+00
     10.998  0.9261E-02  0.4644E+00
     11.069  0.8438E-02  0.4650E+00
     11.140  0.9723E-02  0.4657E+00
     11.211  0.1295E-01  0.4666E+00
     11.282  0.1729E-01  0.4679E+00
     11.353  0.1914E-01  0.4692E+00
     11.424  0.1748E-01  0.4705E+00
     11.495  0.1567E-01  0.4716E+00
     11.566  0.1479E-01  0.4726E+00
     11.637  0.1344E-01  0.4736E+00
     11.708  0.1263E-01  0.4745E+00
     11.779  0.1256E-01  0.4754E+00
     11.850  0.1272E-01  0.4763E+00
     11.921  0.1265E-01  0.4772E+00
     11.992  0.1205E-01  0.4780E+00
     12.063  0.1193E-01  0.4789E+00
     12.134  0.1269E-01  0.4798E+00
     12.205  0.1201E-01  0.4806E+00
     12.276  0.1006E-01  0.4813E+00
     12.347  0.9599E-02  0.4820E+00
     12.418  0.1044E-01  0.4828E+00
     12.489  0.1118E-01  0.4836E+00
     12.560  0.1196E-01  0.4844E+00
     12.631  0.1169E-01  0.4852E+00
     12.702  0.1094E-01  0.4860E+00
     12.773  0.1104E-01  0.4868E+00
     12.844  0.1091E-01  0.4876E+00
     12.915  0.1030E-01  0.4883E+00
     12.986  0.9274E-02  0.4890E+00
     13.057  0.9368E-02  0.4896E+00
     13.128  0.1094E-01  0.4904E+00
     13.199  0.1172E-01  0.4912E+00
     13.270  0.1175E-01  0.4921E+00
     13.341  0.1101E-01  0.4928E+00
     13.412  0.9712E-02  0.4935E+00
     13.483  0.8647E-02  0.4941E+00
     13.554  0.8863E-02  0.4948E+00
     13.625  0.1022E-01  0.4955E+00
     13.696  0.1097E-01  0.4963E+00
     13.767  0.9891E-02  0.4970E+00
     13.838  0.9801E-02  0.4977E+00
     13.909  0.1243E-01  0.4986E+00
     13.980  0.1488E-01  0.4996E+00
     14.051  0.1508E-01  0.5007E+00
     14.122  0.1346E-01  0.5016E+00
     14.193  0.1227E-01  0.5025E+00
     14.264  0.1154E-01  0.5033E+00
     14.335  0.1159E-01  0.5042E+00
     14.406  0.1234E-01  0.5050E+00
     14.477  0.1357E-01  0.5060E+00
     14.548  0.1506E-01  0.5071E+00
     14.619  0.1550E-01  0.5082E+00
     14.690  0.1528E-01  0.5093E+00
     14.761  0.1434E-01  0.5103E+00
     14.832  0.1342E-01  0.5112E+00
     14.903  0.1303E-01  0.5121E+00
     14.974  0.1278E-01  0.5131E+00
     15.045  0.1328E-01  0.5140E+00
     15.116  0.1314E-01  0.5149E+00
     15.187  0.1182E-01  0.5158E+00
     15.258  0.1101E-01  0.5166E+00
     15.329  0.1059E-01  0.5173E+00
     15.400  0.1005E-01  0.5180E+00
     15.471  0.1006E-01  0.5187E+00
     15.542  0.1174E-01  0.5196E+00
     15.613  0.1256E-01  0.5205E+00
     15.684  0.1064E-01  0.5212E+00
     15.755  0.9850E-02  0.5219E+00
     15.826  0.1038E-01  0.5226E+00
     15.897  0.1084E-01  0.5234E+00
     15.968  0.1279E-01  0.5243E+00
     16.039  0.1503E-01  0.5254E+00
     16.110  0.1523E-01  0.5265E+00
     16.181  0.1290E-01  0.5274E+00
     16.252  0.1067E-01  0.5281E+00
     16.323  0.1078E-01  0.5289E+00
     16.394  0.1185E-01  0.5298E+00
     16.465  0.1184E-01  0.5306E+00
     16.536  0.1146E-01  0.5314E+00
     16.607  0.1105E-01  0.5322E+00
     16.678  0.1043E-01  0.5329E+00
     16.749  0.9858E-02  0.5336E+00
     16.820  0.9167E-02  0.5343E+00
     16.891  0.8158E-02  0.5349E+00
     16.962  0.7232E-02  0.5354E+00
     17.033  0.6582E-02  0.5358E+00
     17.104  0.6549E-02  0.5363E+00
     17.175  0.6749E-02  0.5368E+00
     17.246  0.5866E-02  0.5372E+00
     17.317  0.4482E-02  0.5375E+00
     17.388  0.3655E-02  0.5378E+00
     17.459  0.3645E-02  0.5380E+00
     17.530  0.3946E-02  0.5383E+00
     17.601  0.4189E-02  0.5386E+00
     17.672  0.4273E-02  0.5389E+00
     17.743  0.3842E-02  0.5392E+00
     17.814  0.2850E-02  0.5394E+00
     17.885  0.1720E-02  0.5395E+00
     17.956  0.1472E-02  0.5396E+00
     18.027  0.1896E-02  0.5398E+00
     18.098  0.1595E-02  0.5399E+00
     18.169  0.6543E-03  0.5399E+00
     18.240  0.1184E-03  0.5399E+00
     18.311  0.1101E-04  0.5399E+00
     18.382  0.2431E-04  0.5399E+00
     18.453  0.1093E-03  0.5399E+00
     18.524  0.2090E-03  0.5400E+00
     18.595  0.2238E-03  0.5400E+00
     18.666  0.2202E-03  0.5400E+00
     18.737  0.1554E-03  0.5400E+00
     18.808  0.5068E-04  0.5400E+00
     18.879  0.6727E-05  0.5400E+00
     18.950  0.3523E-06  0.5400E+00
     19.021  0.7155E-08  0.5400E+00
     19.092  0.5560E-10  0.5400E+00
     19.163  0.1635E-12  0.5400E+00
     19.234  0.1805E-15  0.5400E+00
     19.305  0.7413E-19  0.5400E+00
     19.376  0.0000E+00  0.5400E+00
     19.447  0.0000E+00  0.5400E+00
     19.518  0.0000E+00  0.5400E+00
     19.589  0.0000E+00  0.5400E+00
     19.660  0.0000E+00  0.5400E+00
