       N       E                     dE             d eps       ncg     rms          rms(c)
DAV:   1     0.275290560239E+03    0.27529E+03   -0.22661E+04 91926   0.152E+03
DAV:   2    -0.879096718425E+01   -0.28408E+03   -0.27612E+03105462   0.328E+02
DAV:   3    -0.137595682057E+02   -0.49686E+01   -0.49393E+01102123   0.458E+01
DAV:   4    -0.137881701057E+02   -0.28602E-01   -0.28595E-01104247   0.360E+00
DAV:   5    -0.137884518615E+02   -0.28176E-03   -0.28175E-03106839   0.373E-01    0.170E+01
RMM:   6    -0.127589665863E+02    0.10295E+01   -0.26119E+00 91152   0.106E+01    0.110E+01
RMM:   7    -0.126933564087E+02    0.65610E-01   -0.31763E-01 91152   0.354E+00    0.499E+00
RMM:   8    -0.126838704420E+02    0.94860E-02   -0.16087E-02 91161   0.839E-01    0.542E-01
RMM:   9    -0.126837481785E+02    0.12226E-03   -0.27979E-04 91238   0.964E-02    0.478E-02
RMM:  10    -0.126837611736E+02   -0.12995E-04   -0.19620E-05 91175   0.334E-02    0.403E-02
RMM:  11    -0.126837635764E+02   -0.24028E-05   -0.79426E-07 50221   0.546E-03    0.197E-03
RMM:  12    -0.126837634579E+02    0.11849E-06   -0.16300E-07 48135   0.269E-03
   1 F= -.12683763E+02 E0= -.12680269E+02  d E =-.126838E+02
