   4   4   0   0
  0.1741889E+02  0.4040137E-09  0.4155953E-09  0.4155953E-09  0.2000000E-15
  1.000000000000000E-004
  CAR 
 unknown system                          
     19.78414331     -1.51502987  301      9.12273523      1.00000000
     -1.515  0.0000E+00  0.0000E+00
     -1.444  0.0000E+00  0.0000E+00
     -1.373  0.0000E+00  0.0000E+00
     -1.302  0.0000E+00  0.0000E+00
     -1.231  0.0000E+00  0.0000E+00
     -1.160  0.0000E+00  0.0000E+00
     -1.089  0.1853E-19  0.1316E-20
     -1.018  0.4827E-16  0.3429E-17
     -0.947  0.4374E-13  0.3109E-14
     -0.876  0.1516E-10  0.1079E-11
     -0.805  0.2067E-08  0.1478E-09
     -0.734  0.1159E-06  0.8374E-08
     -0.663  0.2835E-05  0.2096E-06
     -0.592  0.3234E-04  0.2505E-05
     -0.521  0.1823E-03  0.1545E-04
     -0.450  0.5373E-03  0.5360E-04
     -0.379  0.9364E-03  0.1201E-03
     -0.308  0.1309E-02  0.2130E-03
     -0.237  0.1732E-02  0.3360E-03
     -0.166  0.1814E-02  0.4648E-03
     -0.095  0.1912E-02  0.6005E-03
     -0.024  0.2429E-02  0.7729E-03
      0.047  0.2677E-02  0.9630E-03
      0.118  0.2697E-02  0.1154E-02
      0.189  0.2794E-02  0.1353E-02
      0.260  0.2801E-02  0.1552E-02
      0.331  0.3235E-02  0.1781E-02
      0.402  0.3877E-02  0.2057E-02
      0.473  0.4009E-02  0.2341E-02
      0.544  0.3679E-02  0.2602E-02
      0.615  0.3348E-02  0.2840E-02
      0.686  0.3910E-02  0.3118E-02
      0.757  0.4960E-02  0.3470E-02
      0.828  0.5152E-02  0.3836E-02
      0.899  0.4982E-02  0.4189E-02
      0.970  0.4904E-02  0.4537E-02
      1.041  0.4897E-02  0.4885E-02
      1.112  0.5475E-02  0.5274E-02
      1.183  0.5924E-02  0.5694E-02
      1.254  0.6143E-02  0.6131E-02
      1.325  0.6789E-02  0.6613E-02
      1.396  0.7474E-02  0.7143E-02
      1.467  0.7357E-02  0.7666E-02
      1.538  0.7197E-02  0.8177E-02
      1.609  0.7782E-02  0.8729E-02
      1.680  0.8877E-02  0.9359E-02
      1.751  0.1020E-01  0.1008E-01
      1.822  0.1187E-01  0.1093E-01
      1.893  0.1371E-01  0.1190E-01
      1.964  0.1595E-01  0.1303E-01
      2.035  0.1982E-01  0.1444E-01
      2.106  0.2378E-01  0.1613E-01
      2.177  0.2638E-01  0.1800E-01
      2.248  0.2970E-01  0.2011E-01
      2.319  0.3411E-01  0.2253E-01
      2.390  0.3978E-01  0.2535E-01
      2.461  0.4613E-01  0.2863E-01
      2.532  0.5192E-01  0.3232E-01
      2.603  0.5900E-01  0.3651E-01
      2.674  0.6567E-01  0.4117E-01
      2.745  0.7100E-01  0.4621E-01
      2.816  0.7408E-01  0.5147E-01
      2.887  0.7407E-01  0.5673E-01
      2.958  0.7383E-01  0.6197E-01
      3.029  0.7326E-01  0.6717E-01
      3.100  0.6962E-01  0.7211E-01
      3.171  0.6720E-01  0.7688E-01
      3.242  0.6689E-01  0.8163E-01
      3.313  0.6479E-01  0.8623E-01
      3.384  0.6192E-01  0.9063E-01
      3.455  0.5716E-01  0.9469E-01
      3.526  0.5257E-01  0.9842E-01
      3.597  0.5368E-01  0.1022E+00
      3.668  0.5834E-01  0.1064E+00
      3.739  0.6375E-01  0.1109E+00
      3.810  0.7044E-01  0.1159E+00
      3.881  0.7782E-01  0.1214E+00
      3.952  0.8228E-01  0.1273E+00
      4.023  0.8476E-01  0.1333E+00
      4.094  0.8521E-01  0.1393E+00
      4.165  0.8496E-01  0.1454E+00
      4.236  0.8754E-01  0.1516E+00
      4.307  0.8800E-01  0.1578E+00
      4.378  0.8415E-01  0.1638E+00
      4.449  0.8136E-01  0.1696E+00
      4.520  0.8447E-01  0.1756E+00
      4.591  0.9394E-01  0.1822E+00
      4.662  0.1076E+00  0.1899E+00
      4.733  0.1161E+00  0.1981E+00
      4.804  0.1113E+00  0.2060E+00
      4.875  0.1032E+00  0.2134E+00
      4.946  0.9909E-01  0.2204E+00
      5.017  0.9409E-01  0.2271E+00
      5.088  0.8894E-01  0.2334E+00
      5.159  0.8602E-01  0.2395E+00
      5.230  0.8101E-01  0.2452E+00
      5.301  0.7408E-01  0.2505E+00
      5.372  0.6995E-01  0.2555E+00
      5.443  0.6986E-01  0.2604E+00
      5.514  0.7087E-01  0.2655E+00
      5.585  0.7399E-01  0.2707E+00
      5.656  0.7917E-01  0.2763E+00
      5.727  0.8412E-01  0.2823E+00
      5.798  0.8813E-01  0.2886E+00
      5.869  0.8946E-01  0.2949E+00
      5.940  0.8732E-01  0.3011E+00
      6.011  0.8259E-01  0.3070E+00
      6.082  0.7919E-01  0.3126E+00
      6.153  0.7868E-01  0.3182E+00
      6.224  0.7715E-01  0.3237E+00
      6.295  0.7314E-01  0.3289E+00
      6.366  0.6857E-01  0.3337E+00
      6.437  0.6671E-01  0.3385E+00
      6.508  0.6910E-01  0.3434E+00
      6.579  0.7165E-01  0.3485E+00
      6.650  0.7152E-01  0.3535E+00
      6.721  0.7273E-01  0.3587E+00
      6.792  0.7968E-01  0.3644E+00
      6.863  0.8758E-01  0.3706E+00
      6.934  0.9192E-01  0.3771E+00
      7.005  0.9837E-01  0.3841E+00
      7.076  0.1071E+00  0.3917E+00
      7.147  0.1053E+00  0.3992E+00
      7.218  0.9263E-01  0.4057E+00
      7.289  0.7755E-01  0.4112E+00
      7.360  0.5815E-01  0.4154E+00
      7.431  0.4131E-01  0.4183E+00
      7.502  0.3208E-01  0.4206E+00
      7.573  0.2436E-01  0.4223E+00
      7.644  0.1570E-01  0.4234E+00
      7.715  0.9132E-02  0.4241E+00
      7.786  0.6786E-02  0.4246E+00
      7.857  0.8574E-02  0.4252E+00
      7.928  0.1237E-01  0.4260E+00
      7.999  0.1445E-01  0.4271E+00
      8.070  0.1312E-01  0.4280E+00
      8.141  0.1081E-01  0.4288E+00
      8.212  0.9749E-02  0.4295E+00
      8.283  0.1054E-01  0.4302E+00
      8.354  0.1219E-01  0.4311E+00
      8.425  0.1259E-01  0.4320E+00
      8.496  0.1194E-01  0.4328E+00
      8.567  0.1093E-01  0.4336E+00
      8.638  0.1051E-01  0.4343E+00
      8.709  0.1071E-01  0.4351E+00
      8.780  0.1091E-01  0.4359E+00
      8.851  0.1172E-01  0.4367E+00
      8.922  0.1228E-01  0.4376E+00
      8.993  0.1220E-01  0.4384E+00
      9.064  0.1213E-01  0.4393E+00
      9.135  0.1169E-01  0.4401E+00
      9.206  0.1043E-01  0.4409E+00
      9.277  0.9282E-02  0.4415E+00
      9.348  0.1003E-01  0.4422E+00
      9.419  0.1266E-01  0.4431E+00
      9.490  0.1367E-01  0.4441E+00
      9.561  0.1260E-01  0.4450E+00
      9.632  0.1140E-01  0.4458E+00
      9.703  0.1018E-01  0.4465E+00
      9.774  0.9206E-02  0.4472E+00
      9.845  0.9559E-02  0.4479E+00
      9.916  0.1115E-01  0.4487E+00
      9.987  0.1253E-01  0.4496E+00
     10.058  0.1284E-01  0.4505E+00
     10.129  0.1219E-01  0.4513E+00
     10.200  0.1097E-01  0.4521E+00
     10.271  0.1074E-01  0.4529E+00
     10.342  0.1109E-01  0.4537E+00
     10.413  0.1070E-01  0.4544E+00
     10.484  0.1098E-01  0.4552E+00
     10.555  0.1164E-01  0.4560E+00
     10.625  0.1046E-01  0.4568E+00
     10.696  0.9508E-02  0.4574E+00
     10.767  0.1055E-01  0.4582E+00
     10.838  0.1166E-01  0.4590E+00
     10.909  0.1184E-01  0.4599E+00
     10.980  0.1105E-01  0.4606E+00
     11.051  0.1042E-01  0.4614E+00
     11.122  0.1010E-01  0.4621E+00
     11.193  0.9869E-02  0.4628E+00
     11.264  0.1029E-01  0.4635E+00
     11.335  0.1060E-01  0.4643E+00
     11.406  0.1020E-01  0.4650E+00
     11.477  0.1019E-01  0.4657E+00
     11.548  0.1038E-01  0.4665E+00
     11.619  0.9913E-02  0.4672E+00
     11.690  0.1040E-01  0.4679E+00
     11.761  0.1342E-01  0.4689E+00
     11.832  0.1514E-01  0.4699E+00
     11.903  0.1358E-01  0.4709E+00
     11.974  0.1237E-01  0.4718E+00
     12.045  0.1244E-01  0.4727E+00
     12.116  0.1306E-01  0.4736E+00
     12.187  0.1260E-01  0.4745E+00
     12.258  0.1131E-01  0.4753E+00
     12.329  0.1147E-01  0.4761E+00
     12.400  0.1347E-01  0.4771E+00
     12.471  0.1586E-01  0.4782E+00
     12.542  0.1584E-01  0.4793E+00
     12.613  0.1341E-01  0.4803E+00
     12.684  0.1149E-01  0.4811E+00
     12.755  0.1170E-01  0.4819E+00
     12.826  0.1317E-01  0.4828E+00
     12.897  0.1389E-01  0.4838E+00
     12.968  0.1312E-01  0.4848E+00
     13.039  0.1184E-01  0.4856E+00
     13.110  0.1039E-01  0.4863E+00
     13.181  0.8910E-02  0.4870E+00
     13.252  0.8882E-02  0.4876E+00
     13.323  0.1046E-01  0.4883E+00
     13.394  0.1140E-01  0.4892E+00
     13.465  0.1127E-01  0.4900E+00
     13.536  0.1161E-01  0.4908E+00
     13.607  0.1217E-01  0.4916E+00
     13.678  0.1154E-01  0.4925E+00
     13.749  0.1064E-01  0.4932E+00
     13.820  0.1040E-01  0.4940E+00
     13.891  0.1122E-01  0.4948E+00
     13.962  0.1222E-01  0.4956E+00
     14.033  0.1294E-01  0.4965E+00
     14.104  0.1380E-01  0.4975E+00
     14.175  0.1435E-01  0.4985E+00
     14.246  0.1485E-01  0.4996E+00
     14.317  0.1501E-01  0.5007E+00
     14.388  0.1442E-01  0.5017E+00
     14.459  0.1395E-01  0.5027E+00
     14.530  0.1373E-01  0.5036E+00
     14.601  0.1348E-01  0.5046E+00
     14.672  0.1379E-01  0.5056E+00
     14.743  0.1396E-01  0.5066E+00
     14.814  0.1357E-01  0.5075E+00
     14.885  0.1382E-01  0.5085E+00
     14.956  0.1428E-01  0.5095E+00
     15.027  0.1347E-01  0.5105E+00
     15.098  0.1212E-01  0.5114E+00
     15.169  0.1173E-01  0.5122E+00
     15.240  0.1271E-01  0.5131E+00
     15.311  0.1259E-01  0.5140E+00
     15.382  0.1043E-01  0.5147E+00
     15.453  0.9047E-02  0.5154E+00
     15.524  0.9954E-02  0.5161E+00
     15.595  0.1112E-01  0.5169E+00
     15.666  0.1091E-01  0.5176E+00
     15.737  0.9761E-02  0.5183E+00
     15.808  0.9061E-02  0.5190E+00
     15.879  0.9655E-02  0.5197E+00
     15.950  0.1156E-01  0.5205E+00
     16.021  0.1345E-01  0.5214E+00
     16.092  0.1338E-01  0.5224E+00
     16.163  0.1174E-01  0.5232E+00
     16.234  0.1051E-01  0.5240E+00
     16.305  0.9179E-02  0.5246E+00
     16.376  0.8283E-02  0.5252E+00
     16.447  0.9341E-02  0.5259E+00
     16.518  0.1139E-01  0.5267E+00
     16.589  0.1274E-01  0.5276E+00
     16.660  0.1285E-01  0.5285E+00
     16.731  0.1159E-01  0.5293E+00
     16.802  0.1007E-01  0.5300E+00
     16.873  0.9408E-02  0.5307E+00
     16.944  0.1036E-01  0.5314E+00
     17.015  0.1190E-01  0.5323E+00
     17.086  0.1196E-01  0.5331E+00
     17.157  0.1072E-01  0.5339E+00
     17.228  0.9361E-02  0.5346E+00
     17.299  0.8227E-02  0.5351E+00
     17.370  0.7315E-02  0.5357E+00
     17.441  0.6368E-02  0.5361E+00
     17.512  0.5880E-02  0.5365E+00
     17.583  0.5928E-02  0.5369E+00
     17.654  0.5659E-02  0.5373E+00
     17.725  0.5244E-02  0.5377E+00
     17.796  0.5365E-02  0.5381E+00
     17.867  0.5239E-02  0.5385E+00
     17.938  0.4280E-02  0.5388E+00
     18.009  0.3172E-02  0.5390E+00
     18.080  0.2339E-02  0.5392E+00
     18.151  0.1780E-02  0.5393E+00
     18.222  0.1569E-02  0.5394E+00
     18.293  0.1524E-02  0.5395E+00
     18.364  0.1147E-02  0.5396E+00
     18.435  0.6792E-03  0.5396E+00
     18.506  0.5339E-03  0.5397E+00
     18.577  0.8403E-03  0.5397E+00
     18.648  0.1410E-02  0.5398E+00
     18.719  0.1350E-02  0.5399E+00
     18.790  0.6705E-03  0.5400E+00
     18.861  0.1932E-03  0.5400E+00
     18.932  0.3532E-04  0.5400E+00
     19.003  0.3666E-05  0.5400E+00
     19.074  0.1779E-06  0.5400E+00
     19.145  0.3577E-08  0.5400E+00
     19.216  0.2813E-10  0.5400E+00
     19.287  0.8426E-13  0.5400E+00
     19.358  0.9482E-16  0.5400E+00
     19.429  0.3707E-19  0.5400E+00
     19.500  0.0000E+00  0.5400E+00
     19.571  0.0000E+00  0.5400E+00
     19.642  0.0000E+00  0.5400E+00
     19.713  0.0000E+00  0.5400E+00
     19.784  0.0000E+00  0.5400E+00
