 running on   24 total cores
 distrk:  each k-point on   24 cores,    1 groups
 distr:  one band on    8 cores,    3 groups
 using from now: INCAR     
 vasp.5.4.4.18Apr17-6-g9f103f2a35 (build Jan 14 2019 14:48:31) complex          
  
 POSCAR found type information on POSCAR  Au
 POSCAR found :  1 types and       4 ions
 scaLAPACK will be used
 LDA part: xc-table for Pade appr. of Perdew
 POSCAR found type information on POSCAR  Au
 POSCAR found :  1 types and       4 ions
 POSCAR, INCAR and KPOINTS ok, starting setup
 FFT: planning ...
 WAVECAR not read
 entering main loop
       N       E                     dE             d eps       ncg     rms          rms(c)
DAV:   1     0.276137214938E+03    0.27614E+03   -0.22690E+04 92124   0.153E+03
DAV:   2    -0.893791020241E+01   -0.28508E+03   -0.27737E+03105237   0.330E+02
DAV:   3    -0.138761222833E+02   -0.49382E+01   -0.49116E+01101655   0.459E+01
DAV:   4    -0.139041757897E+02   -0.28054E-01   -0.28043E-01104544   0.357E+00
DAV:   5    -0.139044428337E+02   -0.26704E-03   -0.26703E-03107505   0.361E-01    0.176E+01
RMM:   6    -0.129145047986E+02    0.98994E+00   -0.24838E+00 91152   0.104E+01    0.112E+01
RMM:   7    -0.128462681775E+02    0.68237E-01   -0.36200E-01 91195   0.382E+00    0.483E+00
RMM:   8    -0.128364125457E+02    0.98556E-02   -0.20351E-02 91164   0.937E-01    0.576E-01
RMM:   9    -0.128362821403E+02    0.13041E-03   -0.29297E-04 91247   0.952E-02    0.448E-02
RMM:  10    -0.128362945322E+02   -0.12392E-04   -0.17333E-05 91036   0.316E-02    0.362E-02
RMM:  11    -0.128362968118E+02   -0.22796E-05   -0.77214E-07 50530   0.508E-03    0.731E-04
RMM:  12    -0.128362967105E+02    0.10132E-06   -0.13294E-07 43486   0.233E-03
   1 F= -.12836297E+02 E0= -.12833453E+02  d E =-.128363E+02
 curvature:   0.00 expect dE= 0.000E+00 dE for cont linesearch  0.000E+00
 trial: gam= 0.00000 g(F)=  0.637E-13 g(S)=  0.000E+00 ort = 0.000E+00 (trialstep = 0.100E+01)
 search vector abs. value=  0.100E-09
 reached required accuracy - stopping structural energy minimisation
