   4   4   0   0
  0.1777181E+02  0.4142513E-09  0.4142513E-09  0.4142513E-09  0.2000000E-15
  1.000000000000000E-004
  CAR 
 unknown system                          
     19.11494916     -1.62956573  301      8.82881182      1.00000000
     -1.630  0.0000E+00  0.0000E+00
     -1.560  0.0000E+00  0.0000E+00
     -1.491  0.0000E+00  0.0000E+00
     -1.422  0.0000E+00  0.0000E+00
     -1.353  0.0000E+00  0.0000E+00
     -1.284  0.0000E+00  0.0000E+00
     -1.215  0.4757E-20  0.3290E-21
     -1.146  0.1293E-16  0.8948E-18
     -1.076  0.1182E-13  0.8185E-15
     -1.007  0.4331E-11  0.3003E-12
     -0.938  0.6508E-09  0.4530E-10
     -0.869  0.4160E-07  0.2922E-08
     -0.800  0.1190E-05  0.8519E-07
     -0.731  0.1614E-04  0.1201E-05
     -0.661  0.1098E-03  0.8797E-05
     -0.592  0.3937E-03  0.3602E-04
     -0.523  0.8048E-03  0.9167E-04
     -0.454  0.1173E-02  0.1728E-03
     -0.385  0.1606E-02  0.2838E-03
     -0.316  0.1854E-02  0.4120E-03
     -0.247  0.1842E-02  0.5394E-03
     -0.177  0.2245E-02  0.6946E-03
     -0.108  0.2659E-02  0.8785E-03
     -0.039  0.2707E-02  0.1066E-02
      0.030  0.2855E-02  0.1263E-02
      0.099  0.2805E-02  0.1457E-02
      0.168  0.2939E-02  0.1660E-02
      0.237  0.3709E-02  0.1917E-02
      0.307  0.4093E-02  0.2200E-02
      0.376  0.4015E-02  0.2477E-02
      0.445  0.3435E-02  0.2715E-02
      0.514  0.3378E-02  0.2948E-02
      0.583  0.4601E-02  0.3267E-02
      0.652  0.5369E-02  0.3638E-02
      0.721  0.5168E-02  0.3995E-02
      0.791  0.4754E-02  0.4324E-02
      0.860  0.4857E-02  0.4660E-02
      0.929  0.5500E-02  0.5040E-02
      0.998  0.5750E-02  0.5438E-02
      1.067  0.5766E-02  0.5836E-02
      1.136  0.6150E-02  0.6262E-02
      1.206  0.7374E-02  0.6772E-02
      1.275  0.7976E-02  0.7323E-02
      1.344  0.7375E-02  0.7833E-02
      1.413  0.6996E-02  0.8317E-02
      1.482  0.7210E-02  0.8815E-02
      1.551  0.9204E-02  0.9452E-02
      1.620  0.1183E-01  0.1027E-01
      1.690  0.1197E-01  0.1110E-01
      1.759  0.1151E-01  0.1189E-01
      1.828  0.1575E-01  0.1298E-01
      1.897  0.2223E-01  0.1452E-01
      1.966  0.2642E-01  0.1635E-01
      2.035  0.2795E-01  0.1828E-01
      2.104  0.2839E-01  0.2024E-01
      2.174  0.3268E-01  0.2250E-01
      2.243  0.4031E-01  0.2529E-01
      2.312  0.4619E-01  0.2848E-01
      2.381  0.5135E-01  0.3203E-01
      2.450  0.5820E-01  0.3606E-01
      2.519  0.6686E-01  0.4068E-01
      2.588  0.7391E-01  0.4579E-01
      2.658  0.7803E-01  0.5119E-01
      2.727  0.7848E-01  0.5662E-01
      2.796  0.7737E-01  0.6197E-01
      2.865  0.7615E-01  0.6723E-01
      2.934  0.7127E-01  0.7216E-01
      3.003  0.6941E-01  0.7696E-01
      3.073  0.7017E-01  0.8181E-01
      3.142  0.6676E-01  0.8643E-01
      3.211  0.6392E-01  0.9085E-01
      3.280  0.5922E-01  0.9494E-01
      3.349  0.5218E-01  0.9855E-01
      3.418  0.5271E-01  0.1022E+00
      3.487  0.5744E-01  0.1062E+00
      3.557  0.6304E-01  0.1105E+00
      3.626  0.7020E-01  0.1154E+00
      3.695  0.7754E-01  0.1207E+00
      3.764  0.8220E-01  0.1264E+00
      3.833  0.8479E-01  0.1323E+00
      3.902  0.8309E-01  0.1380E+00
      3.971  0.8159E-01  0.1437E+00
      4.041  0.8544E-01  0.1496E+00
      4.110  0.8866E-01  0.1557E+00
      4.179  0.8829E-01  0.1618E+00
      4.248  0.8796E-01  0.1679E+00
      4.317  0.9208E-01  0.1743E+00
      4.386  0.1015E+00  0.1813E+00
      4.455  0.1151E+00  0.1892E+00
      4.525  0.1275E+00  0.1981E+00
      4.594  0.1362E+00  0.2075E+00
      4.663  0.1354E+00  0.2168E+00
      4.732  0.1166E+00  0.2249E+00
      4.801  0.9553E-01  0.2315E+00
      4.870  0.8505E-01  0.2374E+00
      4.940  0.7731E-01  0.2427E+00
      5.009  0.7269E-01  0.2478E+00
      5.078  0.7034E-01  0.2526E+00
      5.147  0.6811E-01  0.2573E+00
      5.216  0.6842E-01  0.2621E+00
      5.285  0.7207E-01  0.2671E+00
      5.354  0.7961E-01  0.2726E+00
      5.424  0.8709E-01  0.2786E+00
      5.493  0.8753E-01  0.2846E+00
      5.562  0.8804E-01  0.2907E+00
      5.631  0.9256E-01  0.2971E+00
      5.700  0.9266E-01  0.3035E+00
      5.769  0.8515E-01  0.3094E+00
      5.838  0.7890E-01  0.3149E+00
      5.908  0.7952E-01  0.3204E+00
      5.977  0.7879E-01  0.3258E+00
      6.046  0.7302E-01  0.3309E+00
      6.115  0.6646E-01  0.3355E+00
      6.184  0.6599E-01  0.3400E+00
      6.253  0.7102E-01  0.3449E+00
      6.322  0.7477E-01  0.3501E+00
      6.392  0.7244E-01  0.3551E+00
      6.461  0.7343E-01  0.3602E+00
      6.530  0.8246E-01  0.3659E+00
      6.599  0.8782E-01  0.3720E+00
      6.668  0.9564E-01  0.3786E+00
      6.737  0.1162E+00  0.3866E+00
      6.807  0.1284E+00  0.3955E+00
      6.876  0.1138E+00  0.4034E+00
      6.945  0.8847E-01  0.4095E+00
      7.014  0.6343E-01  0.4139E+00
      7.083  0.4671E-01  0.4171E+00
      7.152  0.3876E-01  0.4198E+00
      7.221  0.2932E-01  0.4218E+00
      7.291  0.1603E-01  0.4229E+00
      7.360  0.7404E-02  0.4234E+00
      7.429  0.6190E-02  0.4239E+00
      7.498  0.8633E-02  0.4245E+00
      7.567  0.1341E-01  0.4254E+00
      7.636  0.1629E-01  0.4265E+00
      7.705  0.1386E-01  0.4275E+00
      7.775  0.9611E-02  0.4281E+00
      7.844  0.8061E-02  0.4287E+00
      7.913  0.9997E-02  0.4294E+00
      7.982  0.1325E-01  0.4303E+00
      8.051  0.1415E-01  0.4313E+00
      8.120  0.1271E-01  0.4322E+00
      8.190  0.1125E-01  0.4329E+00
      8.259  0.1019E-01  0.4336E+00
      8.328  0.9851E-02  0.4343E+00
      8.397  0.1060E-01  0.4351E+00
      8.466  0.1293E-01  0.4360E+00
      8.535  0.1411E-01  0.4369E+00
      8.604  0.1307E-01  0.4378E+00
      8.674  0.1170E-01  0.4386E+00
      8.743  0.9634E-02  0.4393E+00
      8.812  0.8022E-02  0.4399E+00
      8.881  0.8989E-02  0.4405E+00
      8.950  0.1253E-01  0.4414E+00
      9.019  0.1511E-01  0.4424E+00
      9.088  0.1527E-01  0.4435E+00
      9.158  0.1457E-01  0.4445E+00
      9.227  0.1139E-01  0.4452E+00
      9.296  0.7087E-02  0.4457E+00
      9.365  0.6902E-02  0.4462E+00
      9.434  0.9740E-02  0.4469E+00
      9.503  0.1194E-01  0.4477E+00
      9.572  0.1323E-01  0.4486E+00
      9.642  0.1308E-01  0.4495E+00
      9.711  0.1285E-01  0.4504E+00
      9.780  0.1248E-01  0.4513E+00
      9.849  0.1068E-01  0.4520E+00
      9.918  0.1033E-01  0.4527E+00
      9.987  0.1121E-01  0.4535E+00
     10.057  0.1168E-01  0.4543E+00
     10.126  0.1132E-01  0.4551E+00
     10.195  0.9975E-02  0.4558E+00
     10.264  0.1030E-01  0.4565E+00
     10.333  0.1212E-01  0.4573E+00
     10.402  0.1210E-01  0.4582E+00
     10.471  0.1107E-01  0.4589E+00
     10.541  0.1012E-01  0.4596E+00
     10.610  0.9455E-02  0.4603E+00
     10.679  0.9749E-02  0.4610E+00
     10.748  0.1189E-01  0.4618E+00
     10.817  0.1364E-01  0.4627E+00
     10.886  0.1165E-01  0.4635E+00
     10.955  0.9222E-02  0.4642E+00
     11.025  0.9076E-02  0.4648E+00
     11.094  0.8550E-02  0.4654E+00
     11.163  0.8794E-02  0.4660E+00
     11.232  0.1101E-01  0.4668E+00
     11.301  0.1224E-01  0.4676E+00
     11.370  0.1097E-01  0.4684E+00
     11.439  0.8648E-02  0.4690E+00
     11.509  0.7751E-02  0.4695E+00
     11.578  0.1048E-01  0.4702E+00
     11.647  0.1766E-01  0.4715E+00
     11.716  0.2293E-01  0.4730E+00
     11.785  0.2067E-01  0.4745E+00
     11.854  0.1558E-01  0.4755E+00
     11.924  0.1284E-01  0.4764E+00
     11.993  0.1311E-01  0.4773E+00
     12.062  0.1485E-01  0.4784E+00
     12.131  0.1542E-01  0.4794E+00
     12.200  0.1498E-01  0.4805E+00
     12.269  0.1460E-01  0.4815E+00
     12.338  0.1311E-01  0.4824E+00
     12.408  0.9881E-02  0.4831E+00
     12.477  0.7100E-02  0.4836E+00
     12.546  0.9400E-02  0.4842E+00
     12.615  0.1359E-01  0.4852E+00
     12.684  0.1281E-01  0.4860E+00
     12.753  0.1065E-01  0.4868E+00
     12.822  0.1146E-01  0.4876E+00
     12.892  0.1157E-01  0.4884E+00
     12.961  0.9352E-02  0.4890E+00
     13.030  0.8106E-02  0.4896E+00
     13.099  0.8554E-02  0.4902E+00
     13.168  0.1004E-01  0.4909E+00
     13.237  0.1220E-01  0.4917E+00
     13.306  0.1396E-01  0.4927E+00
     13.376  0.1401E-01  0.4936E+00
     13.445  0.1304E-01  0.4945E+00
     13.514  0.1117E-01  0.4953E+00
     13.583  0.1060E-01  0.4960E+00
     13.652  0.1311E-01  0.4970E+00
     13.721  0.1607E-01  0.4981E+00
     13.791  0.1730E-01  0.4993E+00
     13.860  0.1400E-01  0.5002E+00
     13.929  0.9857E-02  0.5009E+00
     13.998  0.9866E-02  0.5016E+00
     14.067  0.1311E-01  0.5025E+00
     14.136  0.1596E-01  0.5036E+00
     14.205  0.1658E-01  0.5047E+00
     14.275  0.1637E-01  0.5059E+00
     14.344  0.1662E-01  0.5070E+00
     14.413  0.1739E-01  0.5082E+00
     14.482  0.1583E-01  0.5093E+00
     14.551  0.1331E-01  0.5102E+00
     14.620  0.1086E-01  0.5110E+00
     14.689  0.8660E-02  0.5116E+00
     14.759  0.8334E-02  0.5122E+00
     14.828  0.1046E-01  0.5129E+00
     14.897  0.1361E-01  0.5138E+00
     14.966  0.1449E-01  0.5148E+00
     15.035  0.1080E-01  0.5156E+00
     15.104  0.8103E-02  0.5161E+00
     15.173  0.7961E-02  0.5167E+00
     15.243  0.8434E-02  0.5173E+00
     15.312  0.9876E-02  0.5180E+00
     15.381  0.1251E-01  0.5188E+00
     15.450  0.1362E-01  0.5198E+00
     15.519  0.1230E-01  0.5206E+00
     15.588  0.1065E-01  0.5214E+00
     15.658  0.9326E-02  0.5220E+00
     15.727  0.9949E-02  0.5227E+00
     15.796  0.1210E-01  0.5235E+00
     15.865  0.1447E-01  0.5245E+00
     15.934  0.1427E-01  0.5255E+00
     16.003  0.9755E-02  0.5262E+00
     16.072  0.7215E-02  0.5267E+00
     16.142  0.9272E-02  0.5273E+00
     16.211  0.1083E-01  0.5281E+00
     16.280  0.9440E-02  0.5287E+00
     16.349  0.8024E-02  0.5293E+00
     16.418  0.9821E-02  0.5300E+00
     16.487  0.1506E-01  0.5310E+00
     16.556  0.1763E-01  0.5322E+00
     16.626  0.1344E-01  0.5332E+00
     16.695  0.9111E-02  0.5338E+00
     16.764  0.8790E-02  0.5344E+00
     16.833  0.8280E-02  0.5350E+00
     16.902  0.6691E-02  0.5354E+00
     16.971  0.6123E-02  0.5358E+00
     17.040  0.7404E-02  0.5364E+00
     17.110  0.9702E-02  0.5370E+00
     17.179  0.9240E-02  0.5377E+00
     17.248  0.5491E-02  0.5381E+00
     17.317  0.2375E-02  0.5382E+00
     17.386  0.1542E-02  0.5383E+00
     17.455  0.2228E-02  0.5385E+00
     17.525  0.2732E-02  0.5387E+00
     17.594  0.2935E-02  0.5389E+00
     17.663  0.3255E-02  0.5391E+00
     17.732  0.3135E-02  0.5393E+00
     17.801  0.2577E-02  0.5395E+00
     17.870  0.2010E-02  0.5396E+00
     17.939  0.1332E-02  0.5397E+00
     18.009  0.1285E-02  0.5398E+00
     18.078  0.1526E-02  0.5399E+00
     18.147  0.9527E-03  0.5400E+00
     18.216  0.2710E-03  0.5400E+00
     18.285  0.3652E-04  0.5400E+00
     18.354  0.2449E-05  0.5400E+00
     18.423  0.8155E-07  0.5400E+00
     18.493  0.1265E-08  0.5400E+00
     18.562  0.8476E-11  0.5400E+00
     18.631  0.2334E-13  0.5400E+00
     18.700  0.2563E-16  0.5400E+00
     18.769  0.0000E+00  0.5400E+00
     18.838  0.0000E+00  0.5400E+00
     18.908  0.0000E+00  0.5400E+00
     18.977  0.0000E+00  0.5400E+00
     19.046  0.0000E+00  0.5400E+00
     19.115  0.0000E+00  0.5400E+00
