unknown system                          
           1
     4.142513   -0.000000   -0.000000
    -0.000000    4.142513    0.000000
    -0.000000    0.000000    4.142513
   Au
   4
Direct configuration=     1
   1.00000000  0.00000000  0.00000000
   0.00000000  0.50000000  0.50000000
   0.50000000  1.00000000  0.50000000
   0.50000000  0.50000000  1.00000000
