   4   4   0   0
  0.1870425E+02  0.4213731E-09  0.4213731E-09  0.4213731E-09  0.2000000E-15
  1.000000000000000E-004
  CAR 
 unknown system                          
     17.96062739     -1.91273992  301      8.03218552      1.00000000
     -1.913  0.0000E+00  0.0000E+00
     -1.846  0.0000E+00  0.0000E+00
     -1.780  0.0000E+00  0.0000E+00
     -1.714  0.0000E+00  0.0000E+00
     -1.648  0.0000E+00  0.0000E+00
     -1.582  0.0000E+00  0.0000E+00
     -1.515  0.0000E+00  0.0000E+00
     -1.449  0.1524E-17  0.1010E-18
     -1.383  0.1398E-14  0.9272E-16
     -1.317  0.5486E-12  0.3643E-13
     -1.250  0.9435E-10  0.6287E-11
     -1.184  0.7310E-08  0.4905E-09
     -1.118  0.2649E-06  0.1804E-07
     -1.052  0.4699E-05  0.3293E-06
     -0.985  0.4277E-04  0.3163E-05
     -0.919  0.2083E-03  0.1696E-04
     -0.853  0.5703E-03  0.5474E-04
     -0.787  0.9864E-03  0.1201E-03
     -0.720  0.1391E-02  0.2122E-03
     -0.654  0.1810E-02  0.3321E-03
     -0.588  0.1925E-02  0.4596E-03
     -0.522  0.2052E-02  0.5956E-03
     -0.455  0.2544E-02  0.7642E-03
     -0.389  0.2805E-02  0.9500E-03
     -0.323  0.2879E-02  0.1141E-02
     -0.257  0.2989E-02  0.1339E-02
     -0.190  0.2922E-02  0.1532E-02
     -0.124  0.3370E-02  0.1755E-02
     -0.058  0.4071E-02  0.2025E-02
      0.008  0.4267E-02  0.2308E-02
      0.075  0.3979E-02  0.2571E-02
      0.141  0.3447E-02  0.2800E-02
      0.207  0.3962E-02  0.3062E-02
      0.273  0.5187E-02  0.3406E-02
      0.340  0.5551E-02  0.3774E-02
      0.406  0.5212E-02  0.4119E-02
      0.472  0.4916E-02  0.4445E-02
      0.538  0.5293E-02  0.4795E-02
      0.605  0.5851E-02  0.5183E-02
      0.671  0.5955E-02  0.5577E-02
      0.737  0.6070E-02  0.5979E-02
      0.803  0.6806E-02  0.6430E-02
      0.870  0.7992E-02  0.6960E-02
      0.936  0.8046E-02  0.7493E-02
      1.002  0.7463E-02  0.7987E-02
      1.068  0.7218E-02  0.8465E-02
      1.135  0.7944E-02  0.8991E-02
      1.201  0.1041E-01  0.9681E-02
      1.267  0.1240E-01  0.1050E-01
      1.333  0.1181E-01  0.1128E-01
      1.399  0.1224E-01  0.1209E-01
      1.466  0.1725E-01  0.1324E-01
      1.532  0.2335E-01  0.1478E-01
      1.598  0.2751E-01  0.1661E-01
      1.664  0.2894E-01  0.1852E-01
      1.731  0.2943E-01  0.2047E-01
      1.797  0.3424E-01  0.2274E-01
      1.863  0.4183E-01  0.2551E-01
      1.929  0.4787E-01  0.2868E-01
      1.996  0.5385E-01  0.3225E-01
      2.062  0.6200E-01  0.3636E-01
      2.128  0.7132E-01  0.4108E-01
      2.194  0.7846E-01  0.4628E-01
      2.261  0.8318E-01  0.5179E-01
      2.327  0.8382E-01  0.5734E-01
      2.393  0.8243E-01  0.6280E-01
      2.459  0.8060E-01  0.6814E-01
      2.526  0.7596E-01  0.7317E-01
      2.592  0.7447E-01  0.7811E-01
      2.658  0.7399E-01  0.8301E-01
      2.724  0.7038E-01  0.8767E-01
      2.791  0.6710E-01  0.9212E-01
      2.857  0.6095E-01  0.9615E-01
      2.923  0.5618E-01  0.9988E-01
      2.989  0.5868E-01  0.1038E+00
      3.056  0.6414E-01  0.1080E+00
      3.122  0.7150E-01  0.1127E+00
      3.188  0.8027E-01  0.1181E+00
      3.254  0.8778E-01  0.1239E+00
      3.321  0.9228E-01  0.1300E+00
      3.387  0.9245E-01  0.1361E+00
      3.453  0.9031E-01  0.1421E+00
      3.519  0.9235E-01  0.1482E+00
      3.586  0.9596E-01  0.1546E+00
      3.652  0.9632E-01  0.1610E+00
      3.718  0.9636E-01  0.1673E+00
      3.784  0.1006E+00  0.1740E+00
      3.851  0.1105E+00  0.1813E+00
      3.917  0.1259E+00  0.1897E+00
      3.983  0.1413E+00  0.1990E+00
      4.049  0.1494E+00  0.2089E+00
      4.116  0.1426E+00  0.2184E+00
      4.182  0.1201E+00  0.2263E+00
      4.248  0.9987E-01  0.2329E+00
      4.314  0.8924E-01  0.2388E+00
      4.380  0.8271E-01  0.2443E+00
      4.447  0.7911E-01  0.2496E+00
      4.513  0.7595E-01  0.2546E+00
      4.579  0.7447E-01  0.2595E+00
      4.645  0.7726E-01  0.2647E+00
      4.712  0.8425E-01  0.2702E+00
      4.778  0.9281E-01  0.2764E+00
      4.844  0.9708E-01  0.2828E+00
      4.910  0.9809E-01  0.2893E+00
      4.977  0.1003E+00  0.2960E+00
      5.043  0.1004E+00  0.3026E+00
      5.109  0.9438E-01  0.3089E+00
      5.175  0.8786E-01  0.3147E+00
      5.242  0.8708E-01  0.3204E+00
      5.308  0.8590E-01  0.3261E+00
      5.374  0.8033E-01  0.3315E+00
      5.440  0.7462E-01  0.3364E+00
      5.507  0.7434E-01  0.3413E+00
      5.573  0.7853E-01  0.3465E+00
      5.639  0.8082E-01  0.3519E+00
      5.705  0.8095E-01  0.3572E+00
      5.772  0.8705E-01  0.3630E+00
      5.838  0.9502E-01  0.3693E+00
      5.904  0.1025E+00  0.3761E+00
      5.970  0.1198E+00  0.3840E+00
      6.037  0.1370E+00  0.3931E+00
      6.103  0.1296E+00  0.4017E+00
      6.169  0.1028E+00  0.4085E+00
      6.235  0.7324E-01  0.4133E+00
      6.302  0.5083E-01  0.4167E+00
      6.368  0.3731E-01  0.4192E+00
      6.434  0.2838E-01  0.4211E+00
      6.500  0.1973E-01  0.4224E+00
      6.567  0.1107E-01  0.4231E+00
      6.633  0.7196E-02  0.4236E+00
      6.699  0.8601E-02  0.4242E+00
      6.765  0.1273E-01  0.4250E+00
      6.832  0.1539E-01  0.4260E+00
      6.898  0.1370E-01  0.4269E+00
      6.964  0.1065E-01  0.4276E+00
      7.030  0.8939E-02  0.4282E+00
      7.097  0.9697E-02  0.4289E+00
      7.163  0.1318E-01  0.4297E+00
      7.229  0.1558E-01  0.4308E+00
      7.295  0.1400E-01  0.4317E+00
      7.361  0.1134E-01  0.4324E+00
      7.428  0.9161E-02  0.4331E+00
      7.494  0.8239E-02  0.4336E+00
      7.560  0.1003E-01  0.4343E+00
      7.626  0.1458E-01  0.4352E+00
      7.693  0.1705E-01  0.4364E+00
      7.759  0.1460E-01  0.4373E+00
      7.825  0.1156E-01  0.4381E+00
      7.891  0.9909E-02  0.4387E+00
      7.958  0.8822E-02  0.4393E+00
      8.024  0.8863E-02  0.4399E+00
      8.090  0.1068E-01  0.4406E+00
      8.156  0.1331E-01  0.4415E+00
      8.223  0.1493E-01  0.4425E+00
      8.289  0.1528E-01  0.4435E+00
      8.355  0.1475E-01  0.4445E+00
      8.421  0.1209E-01  0.4453E+00
      8.488  0.8736E-02  0.4459E+00
      8.554  0.8424E-02  0.4464E+00
      8.620  0.1009E-01  0.4471E+00
      8.686  0.1135E-01  0.4478E+00
      8.753  0.1266E-01  0.4487E+00
      8.819  0.1345E-01  0.4496E+00
      8.885  0.1291E-01  0.4504E+00
      8.951  0.1221E-01  0.4512E+00
      9.018  0.1160E-01  0.4520E+00
      9.084  0.1077E-01  0.4527E+00
      9.150  0.1081E-01  0.4534E+00
      9.216  0.1267E-01  0.4543E+00
      9.283  0.1314E-01  0.4551E+00
      9.349  0.1122E-01  0.4559E+00
      9.415  0.1072E-01  0.4566E+00
      9.481  0.1113E-01  0.4573E+00
      9.548  0.1099E-01  0.4581E+00
      9.614  0.1143E-01  0.4588E+00
      9.680  0.1177E-01  0.4596E+00
      9.746  0.1123E-01  0.4603E+00
      9.813  0.1087E-01  0.4611E+00
      9.879  0.1215E-01  0.4619E+00
      9.945  0.1294E-01  0.4627E+00
     10.011  0.1109E-01  0.4635E+00
     10.078  0.9399E-02  0.4641E+00
     10.144  0.9605E-02  0.4647E+00
     10.210  0.1095E-01  0.4654E+00
     10.276  0.1192E-01  0.4662E+00
     10.343  0.1189E-01  0.4670E+00
     10.409  0.1114E-01  0.4678E+00
     10.475  0.1036E-01  0.4685E+00
     10.541  0.1020E-01  0.4691E+00
     10.607  0.1354E-01  0.4700E+00
     10.674  0.2014E-01  0.4714E+00
     10.740  0.2238E-01  0.4728E+00
     10.806  0.1896E-01  0.4741E+00
     10.872  0.1474E-01  0.4751E+00
     10.939  0.1297E-01  0.4759E+00
     11.005  0.1471E-01  0.4769E+00
     11.071  0.1659E-01  0.4780E+00
     11.137  0.1488E-01  0.4790E+00
     11.204  0.1319E-01  0.4799E+00
     11.270  0.1437E-01  0.4808E+00
     11.336  0.1437E-01  0.4818E+00
     11.402  0.1174E-01  0.4825E+00
     11.469  0.8747E-02  0.4831E+00
     11.535  0.8290E-02  0.4837E+00
     11.601  0.1095E-01  0.4844E+00
     11.667  0.1341E-01  0.4853E+00
     11.734  0.1329E-01  0.4862E+00
     11.800  0.1183E-01  0.4870E+00
     11.866  0.1001E-01  0.4876E+00
     11.932  0.8974E-02  0.4882E+00
     11.999  0.8404E-02  0.4888E+00
     12.065  0.8303E-02  0.4893E+00
     12.131  0.9848E-02  0.4900E+00
     12.197  0.1185E-01  0.4908E+00
     12.264  0.1286E-01  0.4916E+00
     12.330  0.1321E-01  0.4925E+00
     12.396  0.1338E-01  0.4934E+00
     12.462  0.1379E-01  0.4943E+00
     12.529  0.1285E-01  0.4951E+00
     12.595  0.1057E-01  0.4958E+00
     12.661  0.1165E-01  0.4966E+00
     12.727  0.1603E-01  0.4977E+00
     12.794  0.1741E-01  0.4988E+00
     12.860  0.1537E-01  0.4998E+00
     12.926  0.1302E-01  0.5007E+00
     12.992  0.1219E-01  0.5015E+00
     13.059  0.1295E-01  0.5024E+00
     13.125  0.1475E-01  0.5033E+00
     13.191  0.1754E-01  0.5045E+00
     13.257  0.1814E-01  0.5057E+00
     13.324  0.1606E-01  0.5068E+00
     13.390  0.1659E-01  0.5079E+00
     13.456  0.1762E-01  0.5090E+00
     13.522  0.1496E-01  0.5100E+00
     13.588  0.1098E-01  0.5108E+00
     13.655  0.8465E-02  0.5113E+00
     13.721  0.8178E-02  0.5119E+00
     13.787  0.9641E-02  0.5125E+00
     13.853  0.1206E-01  0.5133E+00
     13.920  0.1449E-01  0.5143E+00
     13.986  0.1385E-01  0.5152E+00
     14.052  0.1076E-01  0.5159E+00
     14.118  0.9173E-02  0.5165E+00
     14.185  0.8624E-02  0.5171E+00
     14.251  0.8345E-02  0.5176E+00
     14.317  0.1081E-01  0.5183E+00
     14.383  0.1434E-01  0.5193E+00
     14.450  0.1427E-01  0.5202E+00
     14.516  0.1227E-01  0.5210E+00
     14.582  0.1137E-01  0.5218E+00
     14.648  0.1078E-01  0.5225E+00
     14.715  0.1043E-01  0.5232E+00
     14.781  0.1181E-01  0.5240E+00
     14.847  0.1379E-01  0.5249E+00
     14.913  0.1251E-01  0.5257E+00
     14.980  0.8910E-02  0.5263E+00
     15.046  0.8207E-02  0.5269E+00
     15.112  0.1014E-01  0.5275E+00
     15.178  0.1034E-01  0.5282E+00
     15.245  0.8732E-02  0.5288E+00
     15.311  0.8755E-02  0.5294E+00
     15.377  0.1187E-01  0.5302E+00
     15.443  0.1695E-01  0.5313E+00
     15.510  0.1816E-01  0.5325E+00
     15.576  0.1315E-01  0.5334E+00
     15.642  0.8799E-02  0.5339E+00
     15.708  0.8526E-02  0.5345E+00
     15.775  0.8370E-02  0.5351E+00
     15.841  0.6902E-02  0.5355E+00
     15.907  0.6206E-02  0.5359E+00
     15.973  0.7705E-02  0.5364E+00
     16.040  0.1024E-01  0.5371E+00
     16.106  0.9266E-02  0.5377E+00
     16.172  0.5238E-02  0.5381E+00
     16.238  0.2324E-02  0.5382E+00
     16.305  0.1575E-02  0.5383E+00
     16.371  0.2182E-02  0.5385E+00
     16.437  0.2709E-02  0.5387E+00
     16.503  0.3033E-02  0.5389E+00
     16.569  0.3374E-02  0.5391E+00
     16.636  0.3303E-02  0.5393E+00
     16.702  0.2822E-02  0.5395E+00
     16.768  0.2126E-02  0.5396E+00
     16.834  0.1385E-02  0.5397E+00
     16.901  0.1369E-02  0.5398E+00
     16.967  0.1560E-02  0.5399E+00
     17.033  0.9550E-03  0.5400E+00
     17.099  0.2677E-03  0.5400E+00
     17.166  0.3375E-04  0.5400E+00
     17.232  0.1904E-05  0.5400E+00
     17.298  0.4785E-07  0.5400E+00
     17.364  0.5339E-09  0.5400E+00
     17.431  0.2634E-11  0.5400E+00
     17.497  0.5718E-14  0.5400E+00
     17.563  0.5502E-17  0.5400E+00
     17.629  0.0000E+00  0.5400E+00
     17.696  0.0000E+00  0.5400E+00
     17.762  0.0000E+00  0.5400E+00
     17.828  0.0000E+00  0.5400E+00
     17.894  0.0000E+00  0.5400E+00
     17.961  0.0000E+00  0.5400E+00
