 running on   24 total cores
 distrk:  each k-point on   24 cores,    1 groups
 distr:  one band on    8 cores,    3 groups
 using from now: INCAR     
 vasp.5.4.4.18Apr17-6-g9f103f2a35 (build Jan 14 2019 14:48:31) complex          
  
 POSCAR found type information on POSCAR  Au
 POSCAR found :  1 types and       4 ions
 scaLAPACK will be used
 LDA part: xc-table for Pade appr. of Perdew
 POSCAR found type information on POSCAR  Au
 POSCAR found :  1 types and       4 ions
 POSCAR, INCAR and KPOINTS ok, starting setup
 FFT: planning ...
 WAVECAR not read
 entering main loop
       N       E                     dE             d eps       ncg     rms          rms(c)
DAV:   1     0.270899422831E+03    0.27090E+03   -0.22454E+04 91791   0.151E+03
DAV:   2    -0.886867402569E+01   -0.27977E+03   -0.27155E+03106155   0.322E+02
DAV:   3    -0.138368625544E+02   -0.49682E+01   -0.49331E+01101196   0.451E+01
DAV:   4    -0.138670648872E+02   -0.30202E-01   -0.30186E-01104769   0.364E+00
DAV:   5    -0.138673545712E+02   -0.28968E-03   -0.28967E-03106587   0.373E-01    0.141E+01
RMM:   6    -0.128944786604E+02    0.97288E+00   -0.26519E+00 91160   0.106E+01    0.937E+00
RMM:   7    -0.128442330040E+02    0.50246E-01   -0.27102E-01 91244   0.321E+00    0.471E+00
RMM:   8    -0.128374833951E+02    0.67496E-02   -0.11271E-02 91200   0.685E-01    0.514E-01
RMM:   9    -0.128373385203E+02    0.14487E-03   -0.36316E-04 91180   0.110E-01    0.408E-02
RMM:  10    -0.128373572219E+02   -0.18702E-04   -0.23557E-05 91218   0.364E-02    0.243E-02
RMM:  11    -0.128373585900E+02   -0.13681E-05   -0.10643E-06 50742   0.589E-03    0.540E-04
RMM:  12    -0.128373584763E+02    0.11368E-06   -0.14468E-07 44519   0.241E-03
   1 F= -.12837358E+02 E0= -.12834921E+02  d E =-.128374E+02
 curvature:   0.00 expect dE= 0.000E+00 dE for cont linesearch  0.000E+00
 trial: gam= 0.00000 g(F)=  0.100E-13 g(S)=  0.000E+00 ort = 0.000E+00 (trialstep = 0.100E+01)
 search vector abs. value=  0.100E-09
 reached required accuracy - stopping structural energy minimisation
