   2   2   0   0
  0.8150244E+02  0.2493103E-09  0.2493103E-09  0.3028239E-08  0.5000000E-15
  1.000000000000000E-004
  CAR 
 unknown system                          
     18.37367474    -24.44178882  301     -3.59601000      1.00000000
    -24.442  0.0000E+00  0.0000E+00
    -24.299  0.0000E+00  0.0000E+00
    -24.156  0.0000E+00  0.0000E+00
    -24.014  0.0000E+00  0.0000E+00
    -23.871  0.0000E+00  0.0000E+00
    -23.728  0.0000E+00  0.0000E+00
    -23.585  0.0000E+00  0.0000E+00
    -23.443  0.0000E+00  0.0000E+00
    -23.300  0.0000E+00  0.0000E+00
    -23.157  0.0000E+00  0.0000E+00
    -23.015  0.0000E+00  0.0000E+00
    -22.872  0.0000E+00  0.0000E+00
    -22.729  0.3856E-13  0.5503E-14
    -22.586  0.9933E-05  0.1418E-05
    -22.444  0.2207E-02  0.3165E-03
    -22.301  0.2045E-02  0.6084E-03
    -22.158  0.4829E-02  0.1298E-02
    -22.016  0.2540E-02  0.1660E-02
    -21.873  0.2004E-02  0.1946E-02
    -21.730  0.4116E-02  0.2533E-02
    -21.587  0.3798E-02  0.3075E-02
    -21.445  0.3033E-02  0.3508E-02
    -21.302  0.2500E-02  0.3865E-02
    -21.159  0.2124E-02  0.4168E-02
    -21.017  0.4125E-02  0.4757E-02
    -20.874  0.3965E-02  0.5323E-02
    -20.731  0.3562E-02  0.5831E-02
    -20.588  0.3004E-02  0.6260E-02
    -20.446  0.2850E-02  0.6667E-02
    -20.303  0.8960E-03  0.6795E-02
    -20.160  0.3546E-02  0.7301E-02
    -20.018  0.6363E-02  0.8209E-02
    -19.875  0.3448E-02  0.8701E-02
    -19.732  0.1390E-02  0.8899E-02
    -19.589  0.4551E-02  0.9549E-02
    -19.447  0.2447E-02  0.9898E-02
    -19.304  0.4446E-02  0.1053E-01
    -19.161  0.1623E-03  0.1056E-01
    -19.018  0.8838E-03  0.1068E-01
    -18.876  0.9838E-02  0.1209E-01
    -18.733  0.3690E-02  0.1261E-01
    -18.590  0.1354E-02  0.1281E-01
    -18.448  0.3665E-02  0.1333E-01
    -18.305  0.2328E-02  0.1366E-01
    -18.162  0.5460E-02  0.1444E-01
    -18.019  0.2428E-02  0.1479E-01
    -17.877  0.3141E-02  0.1524E-01
    -17.734  0.3790E-03  0.1529E-01
    -17.591  0.7039E-02  0.1629E-01
    -17.449  0.7898E-02  0.1742E-01
    -17.306  0.5803E-02  0.1825E-01
    -17.163  0.5906E-03  0.1833E-01
    -17.020  0.2913E-03  0.1837E-01
    -16.878  0.5391E-02  0.1914E-01
    -16.735  0.1572E-03  0.1917E-01
    -16.592  0.1616E-04  0.1917E-01
    -16.450  0.1834E-02  0.1943E-01
    -16.307  0.3088E-02  0.1987E-01
    -16.164  0.3149E-02  0.2032E-01
    -16.021  0.3605E-02  0.2084E-01
    -15.879  0.3628E-02  0.2135E-01
    -15.736  0.2028E-02  0.2164E-01
    -15.593  0.3133E-02  0.2209E-01
    -15.451  0.4053E-02  0.2267E-01
    -15.308  0.9231E-02  0.2399E-01
    -15.165  0.2590E-02  0.2436E-01
    -15.022  0.2571E-02  0.2472E-01
    -14.880  0.1702E-02  0.2497E-01
    -14.737  0.7787E-02  0.2608E-01
    -14.594  0.2435E-03  0.2611E-01
    -14.452  0.3077E-03  0.2616E-01
    -14.309  0.7219E-02  0.2719E-01
    -14.166  0.3809E-02  0.2773E-01
    -14.023  0.1977E-02  0.2801E-01
    -13.881  0.3061E-02  0.2845E-01
    -13.738  0.1152E-02  0.2861E-01
    -13.595  0.3424E-02  0.2910E-01
    -13.452  0.4826E-03  0.2917E-01
    -13.310  0.6636E-02  0.3012E-01
    -13.167  0.7693E-02  0.3121E-01
    -13.024  0.3050E-02  0.3165E-01
    -12.882  0.3949E-03  0.3171E-01
    -12.739  0.4876E-02  0.3240E-01
    -12.596  0.7604E-03  0.3251E-01
    -12.453  0.4549E-02  0.3316E-01
    -12.311  0.1831E-02  0.3342E-01
    -12.168  0.7255E-02  0.3446E-01
    -12.025  0.5114E-02  0.3519E-01
    -11.883  0.2676E-02  0.3557E-01
    -11.740  0.8237E-02  0.3674E-01
    -11.597  0.1405E-02  0.3694E-01
    -11.454  0.5350E-03  0.3702E-01
    -11.312  0.6687E-02  0.3798E-01
    -11.169  0.7475E-02  0.3904E-01
    -11.026  0.1192E-02  0.3921E-01
    -10.884  0.4384E-02  0.3984E-01
    -10.741  0.1665E-02  0.4008E-01
    -10.598  0.1105E-01  0.4165E-01
    -10.455  0.5222E-02  0.4240E-01
    -10.313  0.7534E-02  0.4347E-01
    -10.170  0.1113E-01  0.4506E-01
    -10.027  0.1053E-01  0.4657E-01
     -9.885  0.5385E-02  0.4733E-01
     -9.742  0.8204E-02  0.4851E-01
     -9.599  0.1170E-01  0.5017E-01
     -9.456  0.1413E-01  0.5219E-01
     -9.314  0.6618E-02  0.5314E-01
     -9.171  0.8995E-02  0.5442E-01
     -9.028  0.4286E-02  0.5503E-01
     -8.886  0.1163E-01  0.5669E-01
     -8.743  0.9257E-02  0.5801E-01
     -8.600  0.1026E-01  0.5947E-01
     -8.457  0.2100E-02  0.5977E-01
     -8.315  0.7304E-02  0.6082E-01
     -8.172  0.5643E-02  0.6162E-01
     -8.029  0.5239E-02  0.6237E-01
     -7.886  0.2702E-02  0.6276E-01
     -7.744  0.1410E-01  0.6477E-01
     -7.601  0.6412E-02  0.6568E-01
     -7.458  0.1283E-02  0.6587E-01
     -7.316  0.9667E-02  0.6725E-01
     -7.173  0.3914E-02  0.6781E-01
     -7.030  0.6058E-02  0.6867E-01
     -6.887  0.4668E-02  0.6934E-01
     -6.745  0.2838E-02  0.6974E-01
     -6.602  0.6719E-02  0.7070E-01
     -6.459  0.9309E-02  0.7203E-01
     -6.317  0.5316E-02  0.7279E-01
     -6.174  0.3733E-02  0.7332E-01
     -6.031  0.2143E-02  0.7363E-01
     -5.888  0.4477E-02  0.7426E-01
     -5.746  0.5641E-02  0.7507E-01
     -5.603  0.2969E-02  0.7549E-01
     -5.460  0.2620E-02  0.7587E-01
     -5.318  0.3237E-02  0.7633E-01
     -5.175  0.1344E-01  0.7825E-01
     -5.032  0.6043E-03  0.7833E-01
     -4.889  0.2615E-07  0.7833E-01
     -4.747  0.1462E-02  0.7854E-01
     -4.604  0.2474E-02  0.7890E-01
     -4.461  0.1862E-02  0.7916E-01
     -4.319  0.1542E-03  0.7918E-01
     -4.176  0.1820E-02  0.7944E-01
     -4.033  0.1748E-04  0.7945E-01
     -3.890  0.3239E-02  0.7991E-01
     -3.748  0.6495E-03  0.8000E-01
     -3.605  0.1097E-08  0.8000E-01
     -3.462  0.0000E+00  0.8000E-01
     -3.319  0.0000E+00  0.8000E-01
     -3.177  0.0000E+00  0.8000E-01
     -3.034  0.0000E+00  0.8000E-01
     -2.891  0.1212E-15  0.8000E-01
     -2.749  0.1026E-05  0.8000E-01
     -2.606  0.2785E-02  0.8040E-01
     -2.463  0.1107E-02  0.8056E-01
     -2.320  0.1412E-02  0.8076E-01
     -2.178  0.5339E-03  0.8083E-01
     -2.035  0.6184E-03  0.8092E-01
     -1.892  0.5090E-02  0.8165E-01
     -1.750  0.1385E-03  0.8167E-01
     -1.607  0.5031E-02  0.8239E-01
     -1.464  0.8571E-02  0.8361E-01
     -1.321  0.6015E-02  0.8447E-01
     -1.179  0.3743E-02  0.8500E-01
     -1.036  0.3682E-02  0.8553E-01
     -0.893  0.4055E-02  0.8611E-01
     -0.751  0.3674E-04  0.8611E-01
     -0.608  0.3589E-02  0.8662E-01
     -0.465  0.4196E-02  0.8722E-01
     -0.322  0.1323E-04  0.8722E-01
     -0.180  0.3543E-02  0.8773E-01
     -0.037  0.4003E-02  0.8830E-01
      0.106  0.3415E-02  0.8879E-01
      0.248  0.5010E-02  0.8950E-01
      0.391  0.3794E-02  0.9004E-01
      0.534  0.5551E-02  0.9084E-01
      0.677  0.1965E-02  0.9112E-01
      0.819  0.6538E-02  0.9205E-01
      0.962  0.5967E-02  0.9290E-01
      1.105  0.5049E-02  0.9362E-01
      1.247  0.1204E-01  0.9534E-01
      1.390  0.6665E-02  0.9629E-01
      1.533  0.1234E-01  0.9805E-01
      1.676  0.9430E-02  0.9940E-01
      1.818  0.1547E-01  0.1016E+00
      1.961  0.1053E-01  0.1031E+00
      2.104  0.1898E-01  0.1058E+00
      2.247  0.1494E-01  0.1080E+00
      2.389  0.1178E-01  0.1096E+00
      2.532  0.1284E-01  0.1115E+00
      2.675  0.1823E-01  0.1141E+00
      2.817  0.2114E-01  0.1171E+00
      2.960  0.1561E-01  0.1193E+00
      3.103  0.1594E-01  0.1216E+00
      3.246  0.1379E-01  0.1236E+00
      3.388  0.1859E-01  0.1262E+00
      3.531  0.2055E-01  0.1291E+00
      3.674  0.2285E-01  0.1324E+00
      3.816  0.2524E-01  0.1360E+00
      3.959  0.2011E-01  0.1389E+00
      4.102  0.2826E-01  0.1429E+00
      4.245  0.2286E-01  0.1462E+00
      4.387  0.3389E-01  0.1510E+00
      4.530  0.2034E-01  0.1539E+00
      4.673  0.3506E-01  0.1589E+00
      4.815  0.2284E-01  0.1622E+00
      4.958  0.3813E-01  0.1676E+00
      5.101  0.3329E-01  0.1724E+00
      5.244  0.3090E-01  0.1768E+00
      5.386  0.3509E-01  0.1818E+00
      5.529  0.2580E-01  0.1855E+00
      5.672  0.3055E-01  0.1898E+00
      5.814  0.3383E-01  0.1947E+00
      5.957  0.3443E-01  0.1996E+00
      6.100  0.2544E-01  0.2032E+00
      6.243  0.3594E-01  0.2083E+00
      6.385  0.2215E-01  0.2115E+00
      6.528  0.2657E-01  0.2153E+00
      6.671  0.4204E-01  0.2213E+00
      6.813  0.2716E-01  0.2252E+00
      6.956  0.2941E-01  0.2294E+00
      7.099  0.2318E-01  0.2327E+00
      7.242  0.3634E-01  0.2378E+00
      7.384  0.3841E-01  0.2433E+00
      7.527  0.3805E-01  0.2488E+00
      7.670  0.4624E-01  0.2554E+00
      7.813  0.3665E-01  0.2606E+00
      7.955  0.3379E-01  0.2654E+00
      8.098  0.1737E-01  0.2679E+00
      8.241  0.3895E-01  0.2735E+00
      8.383  0.3095E-01  0.2779E+00
      8.526  0.3537E-01  0.2829E+00
      8.669  0.3507E-01  0.2879E+00
      8.812  0.4413E-01  0.2942E+00
      8.954  0.3456E-01  0.2992E+00
      9.097  0.4659E-01  0.3058E+00
      9.240  0.2743E-01  0.3097E+00
      9.382  0.4010E-01  0.3154E+00
      9.525  0.2468E-01  0.3190E+00
      9.668  0.5024E-01  0.3261E+00
      9.811  0.3830E-01  0.3316E+00
      9.953  0.4772E-01  0.3384E+00
     10.096  0.3886E-01  0.3440E+00
     10.239  0.2854E-01  0.3480E+00
     10.381  0.3578E-01  0.3531E+00
     10.524  0.3900E-01  0.3587E+00
     10.667  0.4310E-01  0.3649E+00
     10.810  0.3059E-01  0.3692E+00
     10.952  0.5625E-01  0.3772E+00
     11.095  0.3150E-01  0.3817E+00
     11.238  0.4117E-01  0.3876E+00
     11.380  0.4050E-01  0.3934E+00
     11.523  0.2445E-01  0.3969E+00
     11.666  0.3706E-01  0.4022E+00
     11.809  0.3010E-01  0.4065E+00
     11.951  0.4423E-01  0.4128E+00
     12.094  0.3285E-01  0.4175E+00
     12.237  0.3244E-01  0.4221E+00
     12.380  0.4220E-01  0.4281E+00
     12.522  0.4412E-01  0.4344E+00
     12.665  0.4261E-01  0.4405E+00
     12.808  0.2242E-01  0.4437E+00
     12.950  0.2745E-01  0.4476E+00
     13.093  0.2823E-01  0.4516E+00
     13.236  0.2232E-01  0.4548E+00
     13.379  0.2524E-01  0.4584E+00
     13.521  0.2395E-01  0.4619E+00
     13.664  0.2995E-01  0.4661E+00
     13.807  0.2087E-01  0.4691E+00
     13.949  0.2048E-01  0.4720E+00
     14.092  0.1116E-01  0.4736E+00
     14.235  0.1143E-01  0.4753E+00
     14.378  0.1713E-03  0.4753E+00
     14.520  0.5797E-02  0.4761E+00
     14.663  0.5959E-02  0.4770E+00
     14.806  0.3874E-02  0.4775E+00
     14.948  0.5657E-02  0.4783E+00
     15.091  0.2060E-02  0.4786E+00
     15.234  0.1171E-06  0.4786E+00
     15.377  0.0000E+00  0.4786E+00
     15.519  0.0000E+00  0.4786E+00
     15.662  0.0000E+00  0.4786E+00
     15.805  0.5410E-09  0.4786E+00
     15.947  0.5271E-03  0.4787E+00
     16.090  0.3360E-02  0.4792E+00
     16.233  0.1444E-02  0.4794E+00
     16.376  0.7850E-03  0.4795E+00
     16.518  0.3596E-02  0.4800E+00
     16.661  0.1986E-04  0.4800E+00
     16.804  0.7712E-13  0.4800E+00
     16.946  0.0000E+00  0.4800E+00
     17.089  0.0000E+00  0.4800E+00
     17.232  0.0000E+00  0.4800E+00
     17.375  0.0000E+00  0.4800E+00
     17.517  0.0000E+00  0.4800E+00
     17.660  0.0000E+00  0.4800E+00
     17.803  0.0000E+00  0.4800E+00
     17.946  0.0000E+00  0.4800E+00
     18.088  0.0000E+00  0.4800E+00
     18.231  0.0000E+00  0.4800E+00
     18.374  0.0000E+00  0.4800E+00
