       N       E                     dE             d eps       ncg     rms          rms(c)
RMM:   1     0.993794490385E+02    0.99379E+02   -0.14982E+03  1008   0.228E+02
RMM:   2     0.521668450545E+02   -0.47213E+02   -0.25117E+02  1008   0.424E+01
RMM:   3     0.923427680819E+01   -0.42933E+02   -0.21399E+02  1008   0.366E+01
RMM:   4    -0.135406990609E+02   -0.22775E+02   -0.13056E+02  1008   0.342E+01
RMM:   5    -0.182525993899E+02   -0.47119E+01   -0.36900E+01  1008   0.213E+01
RMM:   6    -0.192797103300E+02   -0.10271E+01   -0.83773E+00  1008   0.109E+01
RMM:   7    -0.195119002872E+02   -0.23219E+00   -0.19375E+00  1008   0.548E+00
RMM:   8    -0.195734538768E+02   -0.61554E-01   -0.50132E-01  1008   0.282E+00
RMM:   9    -0.195957754142E+02   -0.22322E-01   -0.19396E-01  2023   0.150E+00
RMM:  10    -0.196000112198E+02   -0.42358E-02   -0.36324E-02  2072   0.536E-01
RMM:  11    -0.196001813457E+02   -0.17013E-03   -0.12956E-03  2030   0.102E-01
RMM:  12    -0.196002117060E+02   -0.30360E-04   -0.24261E-04  2053   0.405E-02    0.878E+00
RMM:  13    -0.187952166896E+02    0.80500E+00   -0.40217E-01  2016   0.176E+00    0.570E+00
RMM:  14    -0.184912344870E+02    0.30398E+00   -0.85007E-01  2016   0.250E+00    0.108E+00
RMM:  15    -0.184727087031E+02    0.18526E-01   -0.22407E-02  2025   0.534E-01    0.125E-01
RMM:  16    -0.184712258903E+02    0.14828E-02   -0.42708E-04  2022   0.800E-02    0.821E-02
RMM:  17    -0.184701445019E+02    0.10814E-02   -0.53734E-04  2016   0.583E-02    0.612E-02
RMM:  18    -0.184701045777E+02    0.39924E-04   -0.16024E-04  2016   0.478E-02    0.534E-02
RMM:  19    -0.184705691089E+02   -0.46453E-03   -0.14999E-04  2016   0.312E-02    0.157E-02
RMM:  20    -0.184708577630E+02   -0.28865E-03   -0.62465E-06  2021   0.675E-03    0.178E-02
RMM:  21    -0.184713822937E+02   -0.52453E-03   -0.42305E-05  2016   0.136E-02    0.641E-03
RMM:  22    -0.184714758445E+02   -0.93551E-04   -0.28004E-06  2016   0.324E-03    0.157E-03
RMM:  23    -0.184714899653E+02   -0.14121E-04   -0.26657E-07  2013   0.140E-03    0.915E-04
RMM:  24    -0.184715032920E+02   -0.13327E-04   -0.11540E-07  1886   0.624E-04    0.248E-04
RMM:  25    -0.184715051308E+02   -0.18389E-05   -0.20562E-09  1786   0.152E-04    0.227E-04
RMM:  26    -0.184715068558E+02   -0.17249E-05   -0.11252E-08  1826   0.262E-04    0.287E-04
RMM:  27    -0.184715077160E+02   -0.86017E-06   -0.45261E-09  1814   0.194E-04    0.195E-04
RMM:  28    -0.184715078471E+02   -0.13116E-06    0.00000E+00  1629   0.616E-05    0.879E-05
RMM:  29    -0.184715078986E+02   -0.51503E-07   -0.53618E-10  1693   0.941E-05
   1 F= -.18579813E+02 E0= -.18579813E+02  d E =-.185798E+02
