<?xml version="1.0" encoding="ISO-8859-1"?>
<modeling>
 <generator>
  <i name="program" type="string">vasp </i>
  <i name="version" type="string">5.4.4.18Apr17-6-g9f103f2a35  </i>
  <i name="subversion" type="string">(build Jan 14 2019 14:48:31) complex            parallel </i>
  <i name="platform" type="string">LinuxIFC </i>
  <i name="date" type="string">2019 09 10 </i>
  <i name="time" type="string">15:54:33 </i>
 </generator>
 <incar>
  <i type="int" name="ISTART">     1</i>
  <i type="string" name="PREC">high</i>
  <i type="string" name="ALGO">very</i>
  <i type="int" name="NELM">    40</i>
  <i type="int" name="IBRION">     2</i>
  <i name="EDIFF">      0.00000010</i>
  <i name="EDIFFG">     -0.01000000</i>
  <i type="int" name="NSW">   100</i>
  <i type="logical" name="LREAL"> F  </i>
  <i type="int" name="ISMEAR">     0</i>
  <i name="SIGMA">      0.05000000</i>
  <i type="logical" name="LWAVE"> F  </i>
  <i type="logical" name="LCHARG"> F  </i>
  <v type="int" name="KPOINT_BSE">    -1     0     0     0</v>
  <i type="int" name="NELM">    40</i>
 </incar>
 <structure name="primitive_cell" >
  <crystal>
   <varray name="basis" >
    <v>       1.24654898      -2.15909160       0.00000000 </v>
    <v>       1.24654898       2.15909160       0.00000000 </v>
    <v>       0.00000000       0.00000000      30.28239374 </v>
   </varray>
   <i name="volume">    163.00488276 </i>
   <varray name="rec_basis" >
    <v>       0.40110738      -0.23157887       0.00000000 </v>
    <v>       0.40110738       0.23157887       0.00000000 </v>
    <v>       0.00000000       0.00000000       0.03302249 </v>
   </varray>
  </crystal>
  <varray name="positions" >
   <v>       0.00000262      -0.00000262      -0.50000000 </v>
   <v>      -0.33333262       0.33333262      -0.50000000 </v>
  </varray>
 </structure>
 <varray name="primitive_index" >
  <v type="int" >        1 </v>
  <v type="int" >        2 </v>
 </varray>
 <kpoints>
  <generation param="Monkhorst-Pack">
   <v type="int" name="divisions">      12       12        1 </v>
   <v name="usershift">      0.00000000       0.00000000       0.00000000 </v>
   <v name="genvec1">      0.08333333       0.00000000       0.00000000 </v>
   <v name="genvec2">      0.00000000       0.08333333       0.00000000 </v>
   <v name="genvec3">      0.00000000       0.00000000       1.00000000 </v>
   <v name="shift">      0.50000000       0.50000000       0.00000000 </v>
  </generation>
  <varray name="kpointlist" >
   <v>       0.04166667       0.04166667       0.00000000 </v>
   <v>       0.12500000       0.04166667       0.00000000 </v>
   <v>       0.20833333       0.04166667       0.00000000 </v>
   <v>       0.29166667       0.04166667       0.00000000 </v>
   <v>       0.37500000       0.04166667       0.00000000 </v>
   <v>       0.45833333       0.04166667       0.00000000 </v>
   <v>      -0.45833333       0.04166667       0.00000000 </v>
   <v>      -0.37500000       0.04166667       0.00000000 </v>
   <v>      -0.29166667       0.04166667       0.00000000 </v>
   <v>      -0.20833333       0.04166667       0.00000000 </v>
   <v>      -0.12500000       0.04166667       0.00000000 </v>
   <v>      -0.04166667       0.04166667       0.00000000 </v>
   <v>       0.12500000       0.12500000       0.00000000 </v>
   <v>       0.20833333       0.12500000       0.00000000 </v>
   <v>       0.29166667       0.12500000       0.00000000 </v>
   <v>       0.37500000       0.12500000       0.00000000 </v>
   <v>       0.45833333       0.12500000       0.00000000 </v>
   <v>      -0.45833333       0.12500000       0.00000000 </v>
   <v>      -0.37500000       0.12500000       0.00000000 </v>
   <v>      -0.29166667       0.12500000       0.00000000 </v>
   <v>      -0.20833333       0.12500000       0.00000000 </v>
   <v>      -0.12500000       0.12500000       0.00000000 </v>
   <v>       0.20833333       0.20833333       0.00000000 </v>
   <v>       0.29166667       0.20833333       0.00000000 </v>
   <v>       0.37500000       0.20833333       0.00000000 </v>
   <v>       0.45833333       0.20833333       0.00000000 </v>
   <v>      -0.45833333       0.20833333       0.00000000 </v>
   <v>      -0.37500000       0.20833333       0.00000000 </v>
   <v>      -0.29166667       0.20833333       0.00000000 </v>
   <v>      -0.20833333       0.20833333       0.00000000 </v>
   <v>       0.29166667       0.29166667       0.00000000 </v>
   <v>       0.37500000       0.29166667       0.00000000 </v>
   <v>       0.45833333       0.29166667       0.00000000 </v>
   <v>      -0.45833333       0.29166667       0.00000000 </v>
   <v>      -0.37500000       0.29166667       0.00000000 </v>
   <v>      -0.29166667       0.29166667       0.00000000 </v>
   <v>       0.37500000       0.37500000       0.00000000 </v>
   <v>       0.45833333       0.37500000       0.00000000 </v>
   <v>      -0.45833333       0.37500000       0.00000000 </v>
   <v>      -0.37500000       0.37500000       0.00000000 </v>
   <v>       0.45833333       0.45833333       0.00000000 </v>
   <v>      -0.45833333       0.45833333       0.00000000 </v>
  </varray>
  <varray name="weights" >
   <v>       0.01388889 </v>
   <v>       0.02777778 </v>
   <v>       0.02777778 </v>
   <v>       0.02777778 </v>
   <v>       0.02777778 </v>
   <v>       0.02777778 </v>
   <v>       0.02777778 </v>
   <v>       0.02777778 </v>
   <v>       0.02777778 </v>
   <v>       0.02777778 </v>
   <v>       0.02777778 </v>
   <v>       0.01388889 </v>
   <v>       0.01388889 </v>
   <v>       0.02777778 </v>
   <v>       0.02777778 </v>
   <v>       0.02777778 </v>
   <v>       0.02777778 </v>
   <v>       0.02777778 </v>
   <v>       0.02777778 </v>
   <v>       0.02777778 </v>
   <v>       0.02777778 </v>
   <v>       0.01388889 </v>
   <v>       0.01388889 </v>
   <v>       0.02777778 </v>
   <v>       0.02777778 </v>
   <v>       0.02777778 </v>
   <v>       0.02777778 </v>
   <v>       0.02777778 </v>
   <v>       0.02777778 </v>
   <v>       0.01388889 </v>
   <v>       0.01388889 </v>
   <v>       0.02777778 </v>
   <v>       0.02777778 </v>
   <v>       0.02777778 </v>
   <v>       0.02777778 </v>
   <v>       0.01388889 </v>
   <v>       0.01388889 </v>
   <v>       0.02777778 </v>
   <v>       0.02777778 </v>
   <v>       0.01388889 </v>
   <v>       0.01388889 </v>
   <v>       0.01388889 </v>
  </varray>
 </kpoints>
 <parameters>
  <separator name="general" >
   <i type="string" name="SYSTEM">unknown system</i>
   <i type="logical" name="LCOMPAT"> F  </i>
  </separator>
  <separator name="electronic" >
   <i type="string" name="PREC">high</i>
   <i name="ENMAX">    875.00000000</i>
   <i name="ENAUG">    946.76800000</i>
   <i name="EDIFF">      0.00000010</i>
   <i type="int" name="IALGO">    48</i>
   <i type="int" name="IWAVPR">    11</i>
   <i type="int" name="NBANDS">    24</i>
   <i name="NELECT">      8.00000000</i>
   <i type="int" name="TURBO">     0</i>
   <i type="int" name="IRESTART">     0</i>
   <i type="int" name="NREBOOT">     0</i>
   <i type="int" name="NMIN">     0</i>
   <i name="EREF">      0.00000000</i>
   <separator name="electronic smearing" >
    <i type="int" name="ISMEAR">     0</i>
    <i name="SIGMA">      0.05000000</i>
    <i name="KSPACING">      0.50000000</i>
    <i type="logical" name="KGAMMA"> T  </i>
   </separator>
   <separator name="electronic projectors" >
    <i type="logical" name="LREAL"> F  </i>
    <v name="ROPT">      0.00000000</v>
    <i type="int" name="LMAXPAW">  -100</i>
    <i type="int" name="LMAXMIX">     2</i>
    <i type="logical" name="NLSPLINE"> F  </i>
   </separator>
   <separator name="electronic startup" >
    <i type="int" name="ISTART">     0</i>
    <i type="int" name="ICHARG">     2</i>
    <i type="int" name="INIWAV">     1</i>
   </separator>
   <separator name="electronic spin" >
    <i type="int" name="ISPIN">     1</i>
    <i type="logical" name="LNONCOLLINEAR"> F  </i>
    <v name="MAGMOM">      1.00000000      1.00000000</v>
    <i name="NUPDOWN">     -1.00000000</i>
    <i type="logical" name="LSORBIT"> F  </i>
    <v name="SAXIS">      0.00000000      0.00000000      1.00000000</v>
    <i type="logical" name="LSPIRAL"> F  </i>
    <v name="QSPIRAL">      0.00000000      0.00000000      0.00000000</v>
    <i type="logical" name="LZEROZ"> F  </i>
   </separator>
   <separator name="electronic exchange-correlation" >
    <i type="logical" name="LASPH"> F  </i>
    <i type="logical" name="LMETAGGA"> F  </i>
   </separator>
   <separator name="electronic convergence" >
    <i type="int" name="NELM">    40</i>
    <i type="int" name="NELMDL">     0</i>
    <i type="int" name="NELMIN">     2</i>
    <i name="ENINI">    875.00000000</i>
    <separator name="electronic convergence detail" >
     <i type="logical" name="LDIAG"> T  </i>
     <i type="logical" name="LSUBROT"> F  </i>
     <i name="WEIMIN">      0.00100000</i>
     <i name="EBREAK">      0.00000000</i>
     <i name="DEPER">      0.30000000</i>
     <i type="int" name="NRMM">     4</i>
     <i name="TIME">      0.40000000</i>
    </separator>
   </separator>
   <separator name="electronic mixer" >
    <i name="AMIX">      0.40000000</i>
    <i name="BMIX">      1.00000000</i>
    <i name="AMIN">      0.10000000</i>
    <i name="AMIX_MAG">      1.60000000</i>
    <i name="BMIX_MAG">      1.00000000</i>
    <separator name="electronic mixer details" >
     <i type="int" name="IMIX">     4</i>
     <i type="logical" name="MIXFIRST"> F  </i>
     <i type="int" name="MAXMIX">   -45</i>
     <i name="WC">    100.00000000</i>
     <i type="int" name="INIMIX">     1</i>
     <i type="int" name="MIXPRE">     1</i>
     <i type="int" name="MREMOVE">     5</i>
    </separator>
   </separator>
   <separator name="electronic dipolcorrection" >
    <i type="logical" name="LDIPOL"> F  </i>
    <i type="logical" name="LMONO"> F  </i>
    <i type="int" name="IDIPOL">     0</i>
    <i name="EPSILON">      1.00000000</i>
    <v name="DIPOL">   -100.00000000   -100.00000000   -100.00000000</v>
    <i name="EFIELD">      0.00000000</i>
   </separator>
  </separator>
  <separator name="grids" >
   <i type="int" name="NGX">    24</i>
   <i type="int" name="NGY">    24</i>
   <i type="int" name="NGZ">   294</i>
   <i type="int" name="NGXF">    36</i>
   <i type="int" name="NGYF">    36</i>
   <i type="int" name="NGZF">   420</i>
   <i type="logical" name="ADDGRID"> F  </i>
  </separator>
  <separator name="ionic" >
   <i type="int" name="NSW">   100</i>
   <i type="int" name="IBRION">     2</i>
   <i type="int" name="MDALGO">     0</i>
   <i type="int" name="ISIF">     2</i>
   <i name="PSTRESS">      0.00000000</i>
   <i name="EDIFFG">     -0.01000000</i>
   <i type="int" name="NFREE">     1</i>
   <i name="POTIM">      0.50000000</i>
   <i name="SMASS">     -3.00000000</i>
   <i name="SCALEE">      1.00000000</i>
  </separator>
  <separator name="ionic md" >
   <i name="TEBEG">      0.00010000</i>
   <i name="TEEND">      0.00010000</i>
   <i type="int" name="NBLOCK">     1</i>
   <i type="int" name="KBLOCK">   100</i>
   <i type="int" name="NPACO">   256</i>
   <i name="APACO">     16.00000000</i>
  </separator>
  <separator name="symmetry" >
   <i type="int" name="ISYM">     2</i>
   <i name="SYMPREC">      0.00001000</i>
  </separator>
  <separator name="dos" >
   <i type="int" name="LORBIT">     0</i>
   <v name="RWIGS">     -1.00000000</v>
   <i type="int" name="NEDOS">   301</i>
   <i name="EMIN">     10.00000000</i>
   <i name="EMAX">    -10.00000000</i>
   <i name="EFERMI">      0.00000000</i>
  </separator>
  <separator name="writing" >
   <i type="int" name="NWRITE">     2</i>
   <i type="logical" name="LWAVE"> F  </i>
   <i type="logical" name="LDOWNSAMPLE"> F  </i>
   <i type="logical" name="LCHARG"> F  </i>
   <i type="logical" name="LPARD"> F  </i>
   <i type="logical" name="LVTOT"> F  </i>
   <i type="logical" name="LVHAR"> F  </i>
   <i type="logical" name="LELF"> F  </i>
   <i type="logical" name="LOPTICS"> F  </i>
   <v name="STM">      0.00000000      0.00000000      0.00000000      0.00000000      0.00000000      0.00000000      0.00000000</v>
  </separator>
  <separator name="performance" >
   <i type="int" name="NPAR">    24</i>
   <i type="int" name="NSIM">     4</i>
   <i type="int" name="NBLK">    -1</i>
   <i type="logical" name="LPLANE"> T  </i>
   <i type="logical" name="LSCALAPACK"> T  </i>
   <i type="logical" name="LSCAAWARE"> F  </i>
   <i type="logical" name="LSCALU"> F  </i>
   <i type="logical" name="LASYNC"> F  </i>
   <i type="logical" name="LORBITALREAL"> F  </i>
  </separator>
  <separator name="miscellaneous" >
   <i type="int" name="IDIOT">     3</i>
   <i type="int" name="ISPECIAL">     0</i>
   <i type="logical" name="LMUSIC"> F  </i>
   <v name="POMASS">     12.01100000</v>
   <v name="DARWINR">      0.00000000</v>
   <v name="DARWINV">      1.00000000</v>
   <i type="logical" name="LCORR"> T  </i>
  </separator>
  <i type="logical" name="GGA_COMPAT"> T  </i>
  <i type="logical" name="LBERRY"> F  </i>
  <i type="int" name="ICORELEVEL">     0</i>
  <i type="logical" name="LDAU"> F  </i>
  <i type="int" name="I_CONSTRAINED_M">     0</i>
  <separator name="electronic exchange-correlation" >
   <i type="string" name="GGA">--</i>
   <i type="int" name="VOSKOWN">     0</i>
   <i type="logical" name="LHFCALC"> F  </i>
   <i type="string" name="PRECFOCK"></i>
   <i type="logical" name="LSYMGRAD"> F  </i>
   <i type="logical" name="LHFONE"> F  </i>
   <i type="logical" name="LRHFCALC"> F  </i>
   <i type="logical" name="LTHOMAS"> F  </i>
   <i type="logical" name="LMODELHF"> F  </i>
   <i name="ENCUT4O">     -1.00000000</i>
   <i type="int" name="EXXOEP">     0</i>
   <i type="int" name="FOURORBIT">     0</i>
   <i name="AEXX">      0.00000000</i>
   <i name="HFALPHA">      0.00000000</i>
   <i name="MCALPHA">      0.00000000</i>
   <i name="ALDAX">      1.00000000</i>
   <i name="AGGAX">      1.00000000</i>
   <i name="ALDAC">      1.00000000</i>
   <i name="AGGAC">      1.00000000</i>
   <i type="int" name="NKREDX">     1</i>
   <i type="int" name="NKREDY">     1</i>
   <i type="int" name="NKREDZ">     1</i>
   <i type="logical" name="SHIFTRED"> F  </i>
   <i type="logical" name="ODDONLY"> F  </i>
   <i type="logical" name="EVENONLY"> F  </i>
   <i type="int" name="LMAXFOCK">     0</i>
   <i type="int" name="NMAXFOCKAE">     0</i>
   <i type="logical" name="LFOCKAEDFT"> F  </i>
   <i name="HFSCREEN">      0.00000000</i>
   <i name="HFSCREENC">      0.00000000</i>
   <i type="int" name="NBANDSGWLOW">     0</i>
  </separator>
  <separator name="vdW DFT" >
   <i type="logical" name="LUSE_VDW"> F  </i>
   <i name="Zab_VDW">     -0.84910000</i>
   <i name="PARAM1">      0.12340000</i>
   <i name="PARAM2">      1.00000000</i>
   <i name="PARAM3">      0.00000000</i>
  </separator>
  <separator name="model GW" >
   <i type="int" name="MODEL_GW">     0</i>
   <i name="MODEL_EPS0">     48.90146483</i>
   <i name="MODEL_ALPHA">      1.00000000</i>
  </separator>
  <separator name="linear response parameters" >
   <i type="logical" name="LEPSILON"> F  </i>
   <i type="logical" name="LRPA"> F  </i>
   <i type="logical" name="LNABLA"> F  </i>
   <i type="logical" name="LVEL"> F  </i>
   <i type="int" name="KINTER">     0</i>
   <i name="CSHIFT">      0.10000000</i>
   <i name="OMEGAMAX">     -1.00000000</i>
   <i name="DEG_THRESHOLD">      0.00200000</i>
   <i name="RTIME">     -0.10000000</i>
   <i name="WPLASMAI">      0.00000000</i>
   <v name="DFIELD">      0.00000000      0.00000000      0.00000000</v>
   <v name="WPLASMA">      0.00000000      0.00000000      0.00000000      0.00000000      0.00000000      0.00000000      0.00000000      0.00000000      0.00000000</v>
  </separator>
  <separator name="orbital magnetization" >
   <i type="logical" name="NUCIND"> F  </i>
   <v name="MAGPOS">      0.00000000      0.00000000      0.00000000</v>
   <i type="logical" name="LNICSALL"> T  </i>
   <i type="logical" name="ORBITALMAG"> F  </i>
   <i type="logical" name="LMAGBLOCH"> F  </i>
   <i type="logical" name="LCHIMAG"> F  </i>
   <i type="logical" name="LGAUGE"> T  </i>
   <i type="int" name="MAGATOM">     0</i>
   <v name="MAGDIPOL">      0.00000000      0.00000000      0.00000000</v>
   <v name="AVECCONST">      0.00000000      0.00000000      0.00000000</v>
  </separator>
  <separator name="response functions" >
   <i type="logical" name="LADDER"> F  </i>
   <i type="logical" name="LRPAFORCE"> F  </i>
   <i type="logical" name="LFXC"> F  </i>
   <i type="logical" name="LHARTREE"> T  </i>
   <i type="int" name="IBSE">     0</i>
   <v type="int" name="KPOINT">    -1     0     0     0</v>
   <i type="logical" name="LTCTE"> F  </i>
   <i type="logical" name="LTETE"> F  </i>
   <i type="logical" name="LTRIPLET"> F  </i>
   <i type="logical" name="LFXCEPS"> F  </i>
   <i type="logical" name="LFXHEG"> F  </i>
   <i type="int" name="NATURALO">     2</i>
   <i type="logical" name="L2ORDER"> F  </i>
   <i type="logical" name="LMP2LT"> F  </i>
   <i type="logical" name="LUSEW"> F  </i>
   <i name="ENCUTGW">     -2.00000000</i>
   <i name="ENCUTGWSOFT">     -2.00000000</i>
   <i name="ENCUTLF">     -1.00000000</i>
   <i type="int" name="LMAXMP2">    -1</i>
   <i name="SCISSOR">      0.00000000</i>
   <i type="int" name="NOMEGA">     0</i>
   <i type="int" name="NOMEGAR">     0</i>
   <i type="int" name="NBANDSGW">    -1</i>
   <i type="int" name="NBANDSO">    -1</i>
   <i type="int" name="NBANDSV">    -1</i>
   <i type="int" name="NELM">    40</i>
   <i type="int" name="NELMHF">     1</i>
   <i type="int" name="DIM">     3</i>
   <i type="int" name="ANTIRES">     0</i>
   <i name="OMEGAMAX">    -30.00000000</i>
   <i name="OMEGAMIN">    -30.00000000</i>
   <i name="OMEGATL">   -200.00000000</i>
   <i type="int" name="OMEGAGRID">   140</i>
   <i name="CSHIFT">     -0.10000000</i>
   <i type="logical" name="SELFENERGY"> F  </i>
   <i type="logical" name="LSPECTRAL"> F  </i>
   <i type="logical" name="LSPECTRALGW"> F  </i>
   <i type="logical" name="LSINGLES"> F  </i>
   <i type="logical" name="LFERMIGW"> F  </i>
   <i type="logical" name="ODDONLYGW"> F  </i>
   <i type="logical" name="EVENONLYGW"> F  </i>
   <i type="int" name="NKREDLFX">     1</i>
   <i type="int" name="NKREDLFY">     1</i>
   <i type="int" name="NKREDLFZ">     1</i>
   <i type="int" name="MAXMEM">  2800</i>
   <i type="int" name="TELESCOPE">     0</i>
   <i type="int" name="TAUPAR">     1</i>
   <i type="int" name="OMEGAPAR">    -1</i>
   <i name="LAMBDA">      1.00000000</i>
  </separator>
  <separator name="External order field" >
   <i name="OFIELD_KAPPA">      0.00000000</i>
   <v name="OFIELD_K">      0.00000000      0.00000000      0.00000000</v>
   <i name="OFIELD_Q6_NEAR">      0.00000000</i>
   <i name="OFIELD_Q6_FAR">      0.00000000</i>
   <i name="OFIELD_A">      0.00000000</i>
  </separator>
 </parameters>
 <atominfo>
  <atoms>       2 </atoms>
  <types>       1 </types>
  <array name="atoms" >
   <dimension dim="1">ion</dimension>
   <field type="string">element</field>
   <field type="int">atomtype</field>
   <set>
    <rc><c>C </c><c>   1</c></rc>
    <rc><c>C </c><c>   1</c></rc>
   </set>
  </array>
  <array name="atomtypes" >
   <dimension dim="1">type</dimension>
   <field type="int">atomspertype</field>
   <field type="string">element</field>
   <field>mass</field>
   <field>valence</field>
   <field type="string">pseudopotential</field>
   <set>
    <rc><c>   2</c><c>C </c><c>     12.01100000</c><c>      4.00000000</c><c>  PAW_PBE C_h 06Feb2004                 </c></rc>
   </set>
  </array>
 </atominfo>
 <structure name="initialpos" >
  <crystal>
   <varray name="basis" >
    <v>       1.24654898      -2.15909160       0.00000000 </v>
    <v>       1.24654898       2.15909160       0.00000000 </v>
    <v>       0.00000000       0.00000000      30.28239374 </v>
   </varray>
   <i name="volume">    163.00488276 </i>
   <varray name="rec_basis" >
    <v>       0.40110738      -0.23157887       0.00000000 </v>
    <v>       0.40110738       0.23157887       0.00000000 </v>
    <v>       0.00000000       0.00000000       0.03302249 </v>
   </varray>
  </crystal>
  <varray name="positions" >
   <v>       0.00000262       0.99999738       0.50000000 </v>
   <v>       0.66666738       0.33333262       0.50000000 </v>
  </varray>
 </structure>
 <calculation>
  <scstep>
   <time name="diag">    0.65    0.79</time>
   <time name="diis">    1.22    1.26</time>
   <time name="orth">    0.03    0.03</time>
   <time name="total">    1.96    2.19</time>
   <energy>
    <i name="alphaZ">      1.34525403 </i>
    <i name="ewald">   2182.75387220 </i>
    <i name="hartreedc">  -2390.71101169 </i>
    <i name="XCdc">     14.35363491 </i>
    <i name="pawpsdc">    228.69403340 </i>
    <i name="pawaedc">   -218.18290438 </i>
    <i name="eentropy">     -0.00293705 </i>
    <i name="bandstr">    -13.17368555 </i>
    <i name="atom">    294.30319316 </i>
    <i name="e_fr_energy">     99.37944904 </i>
    <i name="e_wo_entrp">     99.38238609 </i>
    <i name="e_0_energy">     99.38091756 </i>
   </energy>
  </scstep>
  <scstep>
   <time name="diag">    0.63    0.64</time>
   <time name="diis">    1.22    1.23</time>
   <time name="orth">    0.03    0.03</time>
   <time name="total">    1.88    1.90</time>
   <energy>
    <i name="e_fr_energy">     52.16684505 </i>
    <i name="e_wo_entrp">     52.16970762 </i>
    <i name="e_0_energy">     52.16827634 </i>
   </energy>
  </scstep>
  <scstep>
   <time name="diag">    0.63    0.64</time>
   <time name="diis">    1.22    1.22</time>
   <time name="orth">    0.03    0.03</time>
   <time name="total">    1.88    1.89</time>
   <energy>
    <i name="e_fr_energy">      9.23427681 </i>
    <i name="e_wo_entrp">      9.23640543 </i>
    <i name="e_0_energy">      9.23534112 </i>
   </energy>
  </scstep>
  <scstep>
   <time name="diag">    0.63    0.64</time>
   <time name="diis">    1.22    1.22</time>
   <time name="orth">    0.03    0.03</time>
   <time name="total">    1.88    1.89</time>
   <energy>
    <i name="e_fr_energy">    -13.54069906 </i>
    <i name="e_wo_entrp">    -13.54069906 </i>
    <i name="e_0_energy">    -13.54069906 </i>
   </energy>
  </scstep>
  <scstep>
   <time name="diag">    0.63    0.64</time>
   <time name="diis">    1.22    1.22</time>
   <time name="orth">    0.03    0.03</time>
   <time name="total">    1.88    1.90</time>
   <energy>
    <i name="e_fr_energy">    -18.25259939 </i>
    <i name="e_wo_entrp">    -18.25259939 </i>
    <i name="e_0_energy">    -18.25259939 </i>
   </energy>
  </scstep>
  <scstep>
   <time name="diag">    0.63    0.64</time>
   <time name="diis">    1.22    1.23</time>
   <time name="orth">    0.03    0.03</time>
   <time name="total">    1.88    1.90</time>
   <energy>
    <i name="e_fr_energy">    -19.27971033 </i>
    <i name="e_wo_entrp">    -19.27971033 </i>
    <i name="e_0_energy">    -19.27971033 </i>
   </energy>
  </scstep>
  <scstep>
   <time name="diag">    0.63    0.64</time>
   <time name="diis">    1.23    1.23</time>
   <time name="orth">    0.03    0.03</time>
   <time name="total">    1.89    1.90</time>
   <energy>
    <i name="e_fr_energy">    -19.51190029 </i>
    <i name="e_wo_entrp">    -19.51190029 </i>
    <i name="e_0_energy">    -19.51190029 </i>
   </energy>
  </scstep>
  <scstep>
   <time name="diag">    0.63    0.64</time>
   <time name="diis">    1.21    1.22</time>
   <time name="orth">    0.03    0.03</time>
   <time name="total">    1.88    1.88</time>
   <energy>
    <i name="e_fr_energy">    -19.57345388 </i>
    <i name="e_wo_entrp">    -19.57345388 </i>
    <i name="e_0_energy">    -19.57345388 </i>
   </energy>
  </scstep>
  <scstep>
   <time name="diag">    0.63    0.64</time>
   <time name="diis">    2.28    2.34</time>
   <time name="orth">    0.03    0.03</time>
   <time name="total">    2.94    3.01</time>
   <energy>
    <i name="e_fr_energy">    -19.59577541 </i>
    <i name="e_wo_entrp">    -19.59577541 </i>
    <i name="e_0_energy">    -19.59577541 </i>
   </energy>
  </scstep>
  <scstep>
   <time name="diag">    0.63    0.64</time>
   <time name="diis">    2.58    2.59</time>
   <time name="orth">    0.03    0.03</time>
   <time name="total">    3.24    3.26</time>
   <energy>
    <i name="e_fr_energy">    -19.60001122 </i>
    <i name="e_wo_entrp">    -19.60001122 </i>
    <i name="e_0_energy">    -19.60001122 </i>
   </energy>
  </scstep>
  <scstep>
   <time name="diag">    0.63    0.64</time>
   <time name="diis">    2.30    2.31</time>
   <time name="orth">    0.03    0.03</time>
   <time name="total">    2.96    2.98</time>
   <energy>
    <i name="e_fr_energy">    -19.60018135 </i>
    <i name="e_wo_entrp">    -19.60018135 </i>
    <i name="e_0_energy">    -19.60018135 </i>
   </energy>
  </scstep>
  <scstep>
   <time name="diag">    0.63    0.64</time>
   <time name="diis">    2.53    2.53</time>
   <time name="orth">    0.03    0.03</time>
   <time name="total">    3.37    3.42</time>
   <energy>
    <i name="e_fr_energy">    -19.60021171 </i>
    <i name="e_wo_entrp">    -19.60021171 </i>
    <i name="e_0_energy">    -19.60021171 </i>
   </energy>
  </scstep>
  <scstep>
   <time name="diag">    0.62    0.62</time>
   <time name="diis">    2.22    2.22</time>
   <time name="orth">    0.03    0.03</time>
   <time name="total">    3.06    3.10</time>
   <energy>
    <i name="e_fr_energy">    -18.79521669 </i>
    <i name="e_wo_entrp">    -18.79521669 </i>
    <i name="e_0_energy">    -18.79521669 </i>
   </energy>
  </scstep>
  <scstep>
   <time name="diag">    0.62    0.62</time>
   <time name="diis">    2.24    2.25</time>
   <time name="orth">    0.03    0.03</time>
   <time name="total">    3.08    3.10</time>
   <energy>
    <i name="e_fr_energy">    -18.49123449 </i>
    <i name="e_wo_entrp">    -18.49123449 </i>
    <i name="e_0_energy">    -18.49123449 </i>
   </energy>
  </scstep>
  <scstep>
   <time name="diag">    0.62    0.62</time>
   <time name="diis">    2.32    2.32</time>
   <time name="orth">    0.03    0.03</time>
   <time name="total">    3.16    3.18</time>
   <energy>
    <i name="e_fr_energy">    -18.47270870 </i>
    <i name="e_wo_entrp">    -18.47270870 </i>
    <i name="e_0_energy">    -18.47270870 </i>
   </energy>
  </scstep>
  <scstep>
   <time name="diag">    0.61    0.62</time>
   <time name="diis">    2.29    2.30</time>
   <time name="orth">    0.03    0.03</time>
   <time name="total">    3.12    3.15</time>
   <energy>
    <i name="e_fr_energy">    -18.47122589 </i>
    <i name="e_wo_entrp">    -18.47122589 </i>
    <i name="e_0_energy">    -18.47122589 </i>
   </energy>
  </scstep>
  <scstep>
   <time name="diag">    0.62    0.62</time>
   <time name="diis">    2.26    2.26</time>
   <time name="orth">    0.03    0.03</time>
   <time name="total">    3.09    3.11</time>
   <energy>
    <i name="e_fr_energy">    -18.47014450 </i>
    <i name="e_wo_entrp">    -18.47014450 </i>
    <i name="e_0_energy">    -18.47014450 </i>
   </energy>
  </scstep>
  <scstep>
   <time name="diag">    0.62    0.62</time>
   <time name="diis">    2.20    2.28</time>
   <time name="orth">    0.05    0.05</time>
   <time name="total">    3.05    3.17</time>
   <energy>
    <i name="e_fr_energy">    -18.47010458 </i>
    <i name="e_wo_entrp">    -18.47010458 </i>
    <i name="e_0_energy">    -18.47010458 </i>
   </energy>
  </scstep>
  <scstep>
   <time name="diag">    0.62    0.66</time>
   <time name="diis">    2.23    2.28</time>
   <time name="orth">    0.03    0.03</time>
   <time name="total">    3.07    3.19</time>
   <energy>
    <i name="e_fr_energy">    -18.47056911 </i>
    <i name="e_wo_entrp">    -18.47056911 </i>
    <i name="e_0_energy">    -18.47056911 </i>
   </energy>
  </scstep>
  <scstep>
   <time name="diag">    0.62    0.62</time>
   <time name="diis">    2.31    2.32</time>
   <time name="orth">    0.03    0.03</time>
   <time name="total">    3.15    3.17</time>
   <energy>
    <i name="e_fr_energy">    -18.47085776 </i>
    <i name="e_wo_entrp">    -18.47085776 </i>
    <i name="e_0_energy">    -18.47085776 </i>
   </energy>
  </scstep>
  <scstep>
   <time name="diag">    0.62    0.62</time>
   <time name="diis">    2.28    2.29</time>
   <time name="orth">    0.03    0.03</time>
   <time name="total">    3.12    3.14</time>
   <energy>
    <i name="e_fr_energy">    -18.47138229 </i>
    <i name="e_wo_entrp">    -18.47138229 </i>
    <i name="e_0_energy">    -18.47138229 </i>
   </energy>
  </scstep>
  <scstep>
   <time name="diag">    0.62    0.62</time>
   <time name="diis">    2.26    2.27</time>
   <time name="orth">    0.03    0.03</time>
   <time name="total">    3.10    3.12</time>
   <energy>
    <i name="e_fr_energy">    -18.47147584 </i>
    <i name="e_wo_entrp">    -18.47147584 </i>
    <i name="e_0_energy">    -18.47147584 </i>
   </energy>
  </scstep>
  <scstep>
   <time name="diag">    0.62    0.62</time>
   <time name="diis">    2.26    2.26</time>
   <time name="orth">    0.03    0.03</time>
   <time name="total">    3.10    3.14</time>
   <energy>
    <i name="e_fr_energy">    -18.47148997 </i>
    <i name="e_wo_entrp">    -18.47148997 </i>
    <i name="e_0_energy">    -18.47148997 </i>
   </energy>
  </scstep>
  <scstep>
   <time name="diag">    0.62    0.62</time>
   <time name="diis">    2.21    2.21</time>
   <time name="orth">    0.03    0.03</time>
   <time name="total">    3.05    3.07</time>
   <energy>
    <i name="e_fr_energy">    -18.47150329 </i>
    <i name="e_wo_entrp">    -18.47150329 </i>
    <i name="e_0_energy">    -18.47150329 </i>
   </energy>
  </scstep>
  <scstep>
   <time name="diag">    0.62    0.62</time>
   <time name="diis">    2.19    2.20</time>
   <time name="orth">    0.03    0.03</time>
   <time name="total">    3.03    3.05</time>
   <energy>
    <i name="e_fr_energy">    -18.47150513 </i>
    <i name="e_wo_entrp">    -18.47150513 </i>
    <i name="e_0_energy">    -18.47150513 </i>
   </energy>
  </scstep>
  <scstep>
   <time name="diag">    0.62    0.62</time>
   <time name="diis">    2.19    2.19</time>
   <time name="orth">    0.03    0.03</time>
   <time name="total">    3.03    3.05</time>
   <energy>
    <i name="e_fr_energy">    -18.47150686 </i>
    <i name="e_wo_entrp">    -18.47150686 </i>
    <i name="e_0_energy">    -18.47150686 </i>
   </energy>
  </scstep>
  <scstep>
   <time name="diag">    0.62    0.62</time>
   <time name="diis">    2.19    2.19</time>
   <time name="orth">    0.03    0.03</time>
   <time name="total">    3.03    3.05</time>
   <energy>
    <i name="e_fr_energy">    -18.47150772 </i>
    <i name="e_wo_entrp">    -18.47150772 </i>
    <i name="e_0_energy">    -18.47150772 </i>
   </energy>
  </scstep>
  <scstep>
   <time name="diag">    0.62    0.62</time>
   <time name="diis">    2.19    2.19</time>
   <time name="orth">    0.03    0.03</time>
   <time name="total">    3.03    3.05</time>
   <energy>
    <i name="e_fr_energy">    -18.47150785 </i>
    <i name="e_wo_entrp">    -18.47150785 </i>
    <i name="e_0_energy">    -18.47150785 </i>
   </energy>
  </scstep>
  <scstep>
   <time name="diag">    0.62    0.62</time>
   <time name="diis">    2.21    2.21</time>
   <time name="orth">    0.03    0.03</time>
   <time name="total">    2.88    2.90</time>
   <energy>
    <i name="alphaZ">      1.34525403 </i>
    <i name="ewald">   2182.75387220 </i>
    <i name="hartreedc">  -2424.27772523 </i>
    <i name="XCdc">     15.43931872 </i>
    <i name="pawpsdc">   3824.03404661 </i>
    <i name="pawaedc">  -3813.67549809 </i>
    <i name="eentropy">     -0.00000000 </i>
    <i name="bandstr">    -98.39396930 </i>
    <i name="atom">    294.30319316 </i>
    <i name="e_fr_energy">    -18.47150790 </i>
    <i name="e_wo_entrp">    -18.47150790 </i>
    <i name="e_0_energy">    -18.47150790 </i>
   </energy>
  </scstep>
  <structure>
   <crystal>
    <varray name="basis" >
     <v>       1.24654898      -2.15909160       0.00000000 </v>
     <v>       1.24654898       2.15909160       0.00000000 </v>
     <v>       0.00000000       0.00000000      30.28239374 </v>
    </varray>
    <i name="volume">    163.00488276 </i>
    <varray name="rec_basis" >
     <v>       0.40110738      -0.23157887       0.00000000 </v>
     <v>       0.40110738       0.23157887       0.00000000 </v>
     <v>       0.00000000       0.00000000       0.03302249 </v>
    </varray>
   </crystal>
   <varray name="positions" >
    <v>       0.00000262       0.99999738       0.50000000 </v>
    <v>       0.66666738       0.33333262       0.50000000 </v>
   </varray>
  </structure>
  <varray name="forces" >
   <v>      -0.00000000      -0.00000000       0.00000000 </v>
   <v>       0.00000000       0.00000000       0.00000000 </v>
  </varray>
  <varray name="stress" >
   <v>     -14.58878379       0.00000000       0.00000000 </v>
   <v>       0.00000000     -14.58885720       0.00000000 </v>
   <v>       0.00000000       0.00000000      -0.45859908 </v>
  </varray>
  <energy>
   <i name="e_fr_energy">    -18.57981260 </i>
   <i name="e_wo_entrp">    -18.57981260 </i>
   <i name="e_0_energy">     -0.00000000 </i>
  </energy>
  <time name="totalsc">   81.39   82.56</time>
  <eigenvalues>
   <array>
    <dimension dim="1">band</dimension>
    <dimension dim="2">kpoint</dimension>
    <dimension dim="3">spin</dimension>
    <field>eigene</field>
    <field>occ</field>
    <set>
     <set comment="spin 1">
      <set comment="kpoint 1">
       <r>  -22.4153    1.0000 </r>
       <r>  -10.5269    1.0000 </r>
       <r>   -6.8209    1.0000 </r>
       <r>   -6.5991    1.0000 </r>
       <r>    0.2537    0.0000 </r>
       <r>    1.0128    0.0000 </r>
       <r>    1.2357    0.0000 </r>
       <r>    1.5485    0.0000 </r>
       <r>    1.7554    0.0000 </r>
       <r>    2.4031    0.0000 </r>
       <r>    2.7021    0.0000 </r>
       <r>    3.6507    0.0000 </r>
       <r>    4.0044    0.0000 </r>
       <r>    4.9039    0.0000 </r>
       <r>    5.2469    0.0000 </r>
       <r>    5.3034    0.0000 </r>
       <r>    5.6716    0.0000 </r>
       <r>    7.1858    0.0000 </r>
       <r>    7.3619    0.0000 </r>
       <r>    7.6886    0.0000 </r>
       <r>    8.7294    0.0000 </r>
       <r>    9.4643    0.0000 </r>
       <r>   10.0568    0.0000 </r>
       <r>   12.2276    0.0000 </r>
      </set>
      <set comment="kpoint 2">
       <r>  -22.0145    1.0000 </r>
       <r>  -10.0533    1.0000 </r>
       <r>   -8.1848    1.0000 </r>
       <r>   -7.3198    1.0000 </r>
       <r>    0.7986    0.0000 </r>
       <r>    1.5649    0.0000 </r>
       <r>    1.7955    0.0000 </r>
       <r>    2.1056    0.0000 </r>
       <r>    2.3134    0.0000 </r>
       <r>    2.9584    0.0000 </r>
       <r>    3.2574    0.0000 </r>
       <r>    4.2034    0.0000 </r>
       <r>    4.5495    0.0000 </r>
       <r>    4.9849    0.0000 </r>
       <r>    5.7943    0.0000 </r>
       <r>    6.1334    0.0000 </r>
       <r>    6.2272    0.0000 </r>
       <r>    6.6705    0.0000 </r>
       <r>    7.7303    0.0000 </r>
       <r>    8.2420    0.0000 </r>
       <r>    9.6381    0.0000 </r>
       <r>    9.9999    0.0000 </r>
       <r>   10.6085    0.0000 </r>
       <r>   12.5939    0.0000 </r>
      </set>
      <set comment="kpoint 3">
       <r>  -21.2982    1.0000 </r>
       <r>  -10.1349    1.0000 </r>
       <r>   -9.2164    1.0000 </r>
       <r>   -8.1988    1.0000 </r>
       <r>    1.7778    0.0000 </r>
       <r>    2.5519    0.0000 </r>
       <r>    2.8031    0.0000 </r>
       <r>    3.1055    0.0000 </r>
       <r>    3.3173    0.0000 </r>
       <r>    3.9437    0.0000 </r>
       <r>    4.2515    0.0000 </r>
       <r>    4.2653    0.0000 </r>
       <r>    4.7404    0.0000 </r>
       <r>    5.2033    0.0000 </r>
       <r>    5.5671    0.0000 </r>
       <r>    6.7843    0.0000 </r>
       <r>    7.2199    0.0000 </r>
       <r>    8.7038    0.0000 </r>
       <r>    8.8011    0.0000 </r>
       <r>    9.2346    0.0000 </r>
       <r>   10.9482    0.0000 </r>
       <r>   11.1772    0.0000 </r>
       <r>   11.5996    0.0000 </r>
       <r>   13.4755    0.0000 </r>
      </set>
      <set comment="kpoint 4">
       <r>  -20.2769    1.0000 </r>
       <r>  -12.2743    1.0000 </r>
       <r>   -8.9693    1.0000 </r>
       <r>   -8.0548    1.0000 </r>
       <r>    2.0374    0.0000 </r>
       <r>    3.1840    0.0000 </r>
       <r>    4.0022    0.0000 </r>
       <r>    4.2565    0.0000 </r>
       <r>    4.3868    0.0000 </r>
       <r>    4.5590    0.0000 </r>
       <r>    4.7745    0.0000 </r>
       <r>    5.4023    0.0000 </r>
       <r>    5.7086    0.0000 </r>
       <r>    6.6318    0.0000 </r>
       <r>    7.0001    0.0000 </r>
       <r>    8.1982    0.0000 </r>
       <r>    8.6509    0.0000 </r>
       <r>   10.0835    0.0000 </r>
       <r>   10.6516    0.0000 </r>
       <r>   11.1355    0.0000 </r>
       <r>   12.2264    0.0000 </r>
       <r>   12.7378    0.0000 </r>
       <r>   13.0163    0.0000 </r>
       <r>   15.9864    0.0000 </r>
      </set>
      <set comment="kpoint 5">
       <r>  -18.9759    1.0000 </r>
       <r>  -14.3623    1.0000 </r>
       <r>   -9.5018    1.0000 </r>
       <r>   -6.6834    1.0000 </r>
       <r>   -0.0923    0.0000 </r>
       <r>    4.0892    0.0000 </r>
       <r>    5.0399    0.0000 </r>
       <r>    5.8515    0.0000 </r>
       <r>    6.1621    0.0000 </r>
       <r>    6.4470    0.0000 </r>
       <r>    6.6656    0.0000 </r>
       <r>    7.2780    0.0000 </r>
       <r>    7.5922    0.0000 </r>
       <r>    8.4851    0.0000 </r>
       <r>    8.8736    0.0000 </r>
       <r>    9.9972    0.0000 </r>
       <r>   10.5107    0.0000 </r>
       <r>   11.0101    0.0000 </r>
       <r>   11.5683    0.0000 </r>
       <r>   12.2517    0.0000 </r>
       <r>   12.5042    0.0000 </r>
       <r>   12.8685    0.0000 </r>
       <r>   13.0876    0.0000 </r>
       <r>   13.2904    0.0000 </r>
      </set>
      <set comment="kpoint 6">
       <r>  -17.5685    1.0000 </r>
       <r>  -16.1225    1.0000 </r>
       <r>   -9.7384    1.0000 </r>
       <r>   -5.5929    1.0000 </r>
       <r>   -1.5366    0.0000 </r>
       <r>    3.9664    0.0000 </r>
       <r>    7.2598    0.0000 </r>
       <r>    8.0861    0.0000 </r>
       <r>    8.5030    0.0000 </r>
       <r>    8.5198    0.0000 </r>
       <r>    8.7652    0.0000 </r>
       <r>    9.0032    0.0000 </r>
       <r>    9.3129    0.0000 </r>
       <r>    9.6114    0.0000 </r>
       <r>    9.8550    0.0000 </r>
       <r>    9.9113    0.0000 </r>
       <r>   10.0968    0.0000 </r>
       <r>   10.3341    0.0000 </r>
       <r>   10.6916    0.0000 </r>
       <r>   10.9367    0.0000 </r>
       <r>   11.1682    0.0000 </r>
       <r>   11.2270    0.0000 </r>
       <r>   11.8829    0.0000 </r>
       <r>   12.4242    0.0000 </r>
      </set>
      <set comment="kpoint 7">
       <r>  -18.2477    1.0000 </r>
       <r>  -15.3247    1.0000 </r>
       <r>   -9.6590    1.0000 </r>
       <r>   -6.0334    1.0000 </r>
       <r>   -0.9764    0.0000 </r>
       <r>    4.0092    0.0000 </r>
       <r>    6.1021    0.0000 </r>
       <r>    6.9284    0.0000 </r>
       <r>    7.2813    0.0000 </r>
       <r>    7.5552    0.0000 </r>
       <r>    7.7790    0.0000 </r>
       <r>    8.3731    0.0000 </r>
       <r>    8.6977    0.0000 </r>
       <r>    9.5449    0.0000 </r>
       <r>    9.7894    0.0000 </r>
       <r>    9.9776    0.0000 </r>
       <r>   10.5673    0.0000 </r>
       <r>   11.1424    0.0000 </r>
       <r>   11.3082    0.0000 </r>
       <r>   11.5453    0.0000 </r>
       <r>   11.6005    0.0000 </r>
       <r>   11.7665    0.0000 </r>
       <r>   12.2411    0.0000 </r>
       <r>   12.6566    0.0000 </r>
      </set>
      <set comment="kpoint 8">
       <r>  -19.6584    1.0000 </r>
       <r>  -13.3360    1.0000 </r>
       <r>   -9.2700    1.0000 </r>
       <r>   -7.3811    1.0000 </r>
       <r>    0.9426    0.0000 </r>
       <r>    4.0067    0.0000 </r>
       <r>    4.2771    0.0000 </r>
       <r>    4.8735    0.0000 </r>
       <r>    5.1547    0.0000 </r>
       <r>    5.4477    0.0000 </r>
       <r>    5.6629    0.0000 </r>
       <r>    6.2863    0.0000 </r>
       <r>    6.5951    0.0000 </r>
       <r>    7.5075    0.0000 </r>
       <r>    7.8827    0.0000 </r>
       <r>    9.0567    0.0000 </r>
       <r>    9.5288    0.0000 </r>
       <r>   10.8944    0.0000 </r>
       <r>   11.5090    0.0000 </r>
       <r>   11.7045    0.0000 </r>
       <r>   12.7154    0.0000 </r>
       <r>   13.2817    0.0000 </r>
       <r>   13.6830    0.0000 </r>
       <r>   13.8767    0.0000 </r>
      </set>
      <set comment="kpoint 9">
       <r>  -20.8246    1.0000 </r>
       <r>  -11.1988    1.0000 </r>
       <r>   -8.6720    1.0000 </r>
       <r>   -8.6080    1.0000 </r>
       <r>    2.4287    0.0000 </r>
       <r>    3.0477    0.0000 </r>
       <r>    3.3248    0.0000 </r>
       <r>    3.4748    0.0000 </r>
       <r>    3.7860    0.0000 </r>
       <r>    3.9847    0.0000 </r>
       <r>    4.5535    0.0000 </r>
       <r>    4.6287    0.0000 </r>
       <r>    4.9393    0.0000 </r>
       <r>    5.8626    0.0000 </r>
       <r>    6.2274    0.0000 </r>
       <r>    7.4389    0.0000 </r>
       <r>    7.8808    0.0000 </r>
       <r>    9.3459    0.0000 </r>
       <r>    9.8782    0.0000 </r>
       <r>   10.0152    0.0000 </r>
       <r>   11.5604    0.0000 </r>
       <r>   12.0027    0.0000 </r>
       <r>   12.2597    0.0000 </r>
       <r>   13.9591    0.0000 </r>
      </set>
      <set comment="kpoint 10">
       <r>  -21.6953    1.0000 </r>
       <r>   -9.6787    1.0000 </r>
       <r>   -9.1155    1.0000 </r>
       <r>   -7.7604    1.0000 </r>
       <r>    1.2341    0.0000 </r>
       <r>    2.0053    0.0000 </r>
       <r>    2.2433    0.0000 </r>
       <r>    2.5508    0.0000 </r>
       <r>    2.7596    0.0000 </r>
       <r>    3.4018    0.0000 </r>
       <r>    3.7010    0.0000 </r>
       <r>    4.6421    0.0000 </r>
       <r>    4.8492    0.0000 </r>
       <r>    5.0444    0.0000 </r>
       <r>    5.2537    0.0000 </r>
       <r>    6.2374    0.0000 </r>
       <r>    6.6687    0.0000 </r>
       <r>    7.6681    0.0000 </r>
       <r>    8.1641    0.0000 </r>
       <r>    8.6831    0.0000 </r>
       <r>   10.3599    0.0000 </r>
       <r>   10.4246    0.0000 </r>
       <r>   13.6001    0.0000 </r>
       <r>   16.4275    0.0000 </r>
      </set>
      <set comment="kpoint 11">
       <r>  -22.2547    1.0000 </r>
       <r>  -10.3368    1.0000 </r>
       <r>   -7.3985    1.0000 </r>
       <r>   -6.9159    1.0000 </r>
       <r>    0.4717    0.0000 </r>
       <r>    1.2338    0.0000 </r>
       <r>    1.4596    0.0000 </r>
       <r>    1.7714    0.0000 </r>
       <r>    1.9786    0.0000 </r>
       <r>    2.6253    0.0000 </r>
       <r>    2.9243    0.0000 </r>
       <r>    3.8720    0.0000 </r>
       <r>    4.2239    0.0000 </r>
       <r>    4.9762    0.0000 </r>
       <r>    5.4667    0.0000 </r>
       <r>    5.8664    0.0000 </r>
       <r>    5.8961    0.0000 </r>
       <r>    6.8494    0.0000 </r>
       <r>    7.4038    0.0000 </r>
       <r>    7.9104    0.0000 </r>
       <r>    9.0822    0.0000 </r>
       <r>    9.6791    0.0000 </r>
       <r>   10.2777    0.0000 </r>
       <r>   12.4030    0.0000 </r>
      </set>
      <set comment="kpoint 12">
       <r>  -22.4956    1.0000 </r>
       <r>  -10.6222    1.0000 </r>
       <r>   -6.5082    1.0000 </r>
       <r>   -6.4274    1.0000 </r>
       <r>    0.1447    0.0000 </r>
       <r>    0.9023    0.0000 </r>
       <r>    1.1237    0.0000 </r>
       <r>    1.4371    0.0000 </r>
       <r>    1.6438    0.0000 </r>
       <r>    2.2920    0.0000 </r>
       <r>    2.5911    0.0000 </r>
       <r>    3.5400    0.0000 </r>
       <r>    3.8946    0.0000 </r>
       <r>    4.8471    0.0000 </r>
       <r>    4.9985    0.0000 </r>
       <r>    5.1368    0.0000 </r>
       <r>    5.5591    0.0000 </r>
       <r>    7.0766    0.0000 </r>
       <r>    7.5775    0.0000 </r>
       <r>    7.6300    0.0000 </r>
       <r>    8.5679    0.0000 </r>
       <r>    9.3565    0.0000 </r>
       <r>    9.9462    0.0000 </r>
       <r>   11.9733    0.0000 </r>
      </set>
      <set comment="kpoint 13">
       <r>  -21.4569    1.0000 </r>
       <r>   -9.4867    1.0000 </r>
       <r>   -9.3997    1.0000 </r>
       <r>   -8.3765    1.0000 </r>
       <r>    1.5612    0.0000 </r>
       <r>    2.3356    0.0000 </r>
       <r>    2.5793    0.0000 </r>
       <r>    2.8849    0.0000 </r>
       <r>    3.0946    0.0000 </r>
       <r>    3.7348    0.0000 </r>
       <r>    4.0352    0.0000 </r>
       <r>    4.6838    0.0000 </r>
       <r>    4.9755    0.0000 </r>
       <r>    5.3166    0.0000 </r>
       <r>    5.7053    0.0000 </r>
       <r>    6.5609    0.0000 </r>
       <r>    7.0041    0.0000 </r>
       <r>    7.1526    0.0000 </r>
       <r>    8.4831    0.0000 </r>
       <r>    9.0146    0.0000 </r>
       <r>   10.7310    0.0000 </r>
       <r>   11.3045    0.0000 </r>
       <r>   11.3767    0.0000 </r>
       <r>   13.2647    0.0000 </r>
      </set>
      <set comment="kpoint 14">
       <r>  -20.5896    1.0000 </r>
       <r>  -11.2382    1.0000 </r>
       <r>   -9.4398    1.0000 </r>
       <r>   -8.3999    1.0000 </r>
       <r>    2.7562    0.0000 </r>
       <r>    2.7973    0.0000 </r>
       <r>    3.5478    0.0000 </r>
       <r>    3.8108    0.0000 </r>
       <r>    4.1091    0.0000 </r>
       <r>    4.3217    0.0000 </r>
       <r>    4.9525    0.0000 </r>
       <r>    5.2528    0.0000 </r>
       <r>    5.8263    0.0000 </r>
       <r>    6.1828    0.0000 </r>
       <r>    6.5646    0.0000 </r>
       <r>    7.7501    0.0000 </r>
       <r>    8.2064    0.0000 </r>
       <r>    8.5670    0.0000 </r>
       <r>    9.6358    0.0000 </r>
       <r>   10.2232    0.0000 </r>
       <r>   11.7758    0.0000 </r>
       <r>   12.5769    0.0000 </r>
       <r>   13.4666    0.0000 </r>
       <r>   13.7462    0.0000 </r>
      </set>
      <set comment="kpoint 15">
       <r>  -19.4295    1.0000 </r>
       <r>  -13.2266    1.0000 </r>
       <r>  -10.1890    1.0000 </r>
       <r>   -7.1150    1.0000 </r>
       <r>    0.7555    0.0000 </r>
       <r>    4.3730    0.0000 </r>
       <r>    5.1738    0.0000 </r>
       <r>    5.4866    0.0000 </r>
       <r>    5.5571    0.0000 </r>
       <r>    5.7733    0.0000 </r>
       <r>    5.9997    0.0000 </r>
       <r>    6.6030    0.0000 </r>
       <r>    6.9282    0.0000 </r>
       <r>    7.8070    0.0000 </r>
       <r>    8.2124    0.0000 </r>
       <r>    9.3116    0.0000 </r>
       <r>    9.8487    0.0000 </r>
       <r>   10.4396    0.0000 </r>
       <r>   10.9729    0.0000 </r>
       <r>   11.8602    0.0000 </r>
       <r>   12.3027    0.0000 </r>
       <r>   13.8336    0.0000 </r>
       <r>   14.0796    0.0000 </r>
       <r>   14.9493    0.0000 </r>
      </set>
      <set comment="kpoint 16">
       <r>  -18.0298    1.0000 </r>
       <r>  -15.1505    1.0000 </r>
       <r>  -10.6071    1.0000 </r>
       <r>   -5.7589    1.0000 </r>
       <r>   -1.0819    0.0000 </r>
       <r>    5.3339    0.0000 </r>
       <r>    6.4165    0.0000 </r>
       <r>    7.1689    0.0000 </r>
       <r>    7.6170    0.0000 </r>
       <r>    7.8668    0.0000 </r>
       <r>    8.1117    0.0000 </r>
       <r>    8.6435    0.0000 </r>
       <r>    9.0255    0.0000 </r>
       <r>    9.6614    0.0000 </r>
       <r>    9.9462    0.0000 </r>
       <r>   10.3007    0.0000 </r>
       <r>   10.4752    0.0000 </r>
       <r>   11.4499    0.0000 </r>
       <r>   11.6390    0.0000 </r>
       <r>   11.8502    0.0000 </r>
       <r>   11.9077    0.0000 </r>
       <r>   12.0620    0.0000 </r>
       <r>   12.3536    0.0000 </r>
       <r>   12.8782    0.0000 </r>
      </set>
      <set comment="kpoint 17">
       <r>  -17.3579    1.0000 </r>
       <r>  -15.9319    1.0000 </r>
       <r>  -10.6910    1.0000 </r>
       <r>   -5.3047    1.0000 </r>
       <r>   -1.6378    0.0000 </r>
       <r>    5.2930    0.0000 </r>
       <r>    7.5569    0.0000 </r>
       <r>    8.1883    0.0000 </r>
       <r>    8.7746    0.0000 </r>
       <r>    8.8490    0.0000 </r>
       <r>    9.0274    0.0000 </r>
       <r>    9.3340    0.0000 </r>
       <r>    9.4083    0.0000 </r>
       <r>    9.9388    0.0000 </r>
       <r>   10.1894    0.0000 </r>
       <r>   10.2340    0.0000 </r>
       <r>   10.3852    0.0000 </r>
       <r>   10.6585    0.0000 </r>
       <r>   10.8342    0.0000 </r>
       <r>   11.2628    0.0000 </r>
       <r>   11.4696    0.0000 </r>
       <r>   11.5372    0.0000 </r>
       <r>   11.8919    0.0000 </r>
       <r>   12.6863    0.0000 </r>
      </set>
      <set comment="kpoint 18">
       <r>  -18.7518    1.0000 </r>
       <r>  -14.2139    1.0000 </r>
       <r>  -10.4396    1.0000 </r>
       <r>   -6.4165    1.0000 </r>
       <r>   -0.2264    0.0000 </r>
       <r>    5.2835    0.0000 </r>
       <r>    5.4911    0.0000 </r>
       <r>    6.1341    0.0000 </r>
       <r>    6.4979    0.0000 </r>
       <r>    6.7682    0.0000 </r>
       <r>    6.9996    0.0000 </r>
       <r>    7.5824    0.0000 </r>
       <r>    7.9232    0.0000 </r>
       <r>    8.7496    0.0000 </r>
       <r>    9.2001    0.0000 </r>
       <r>   10.1170    0.0000 </r>
       <r>   10.6845    0.0000 </r>
       <r>   10.8726    0.0000 </r>
       <r>   11.2713    0.0000 </r>
       <r>   12.5269    0.0000 </r>
       <r>   12.7998    0.0000 </r>
       <r>   13.0602    0.0000 </r>
       <r>   13.3004    0.0000 </r>
       <r>   13.4075    0.0000 </r>
      </set>
      <set comment="kpoint 19">
       <r>  -20.0445    1.0000 </r>
       <r>  -12.2235    1.0000 </r>
       <r>   -9.8559    1.0000 </r>
       <r>   -7.7862    1.0000 </r>
       <r>    1.7805    0.0000 </r>
       <r>    3.5133    0.0000 </r>
       <r>    4.3085    0.0000 </r>
       <r>    4.5944    0.0000 </r>
       <r>    4.8864    0.0000 </r>
       <r>    5.1007    0.0000 </r>
       <r>    5.6873    0.0000 </r>
       <r>    5.7245    0.0000 </r>
       <r>    6.0499    0.0000 </r>
       <r>    6.9453    0.0000 </r>
       <r>    7.3321    0.0000 </r>
       <r>    8.4928    0.0000 </r>
       <r>    8.9749    0.0000 </r>
       <r>    9.5510    0.0000 </r>
       <r>   10.3240    0.0000 </r>
       <r>   10.9896    0.0000 </r>
       <r>   12.2091    0.0000 </r>
       <r>   13.3350    0.0000 </r>
       <r>   13.6104    0.0000 </r>
       <r>   14.1432    0.0000 </r>
      </set>
      <set comment="kpoint 20">
       <r>  -21.0612    1.0000 </r>
       <r>  -10.3116    1.0000 </r>
       <r>   -8.9420    1.0000 </r>
       <r>   -8.9406    1.0000 </r>
       <r>    2.1050    0.0000 </r>
       <r>    2.8832    0.0000 </r>
       <r>    3.1391    0.0000 </r>
       <r>    3.4401    0.0000 </r>
       <r>    3.6525    0.0000 </r>
       <r>    3.7837    0.0000 </r>
       <r>    4.2893    0.0000 </r>
       <r>    4.5902    0.0000 </r>
       <r>    5.5252    0.0000 </r>
       <r>    5.7918    0.0000 </r>
       <r>    5.9707    0.0000 </r>
       <r>    7.1037    0.0000 </r>
       <r>    7.5485    0.0000 </r>
       <r>    7.7045    0.0000 </r>
       <r>    9.0133    0.0000 </r>
       <r>    9.5646    0.0000 </r>
       <r>   11.2308    0.0000 </r>
       <r>   11.9233    0.0000 </r>
       <r>   12.4547    0.0000 </r>
       <r>   13.6538    0.0000 </r>
      </set>
      <set comment="kpoint 21">
       <r>  -21.7750    1.0000 </r>
       <r>   -9.7718    1.0000 </r>
       <r>   -8.7806    1.0000 </r>
       <r>   -7.8023    1.0000 </r>
       <r>    1.1255    0.0000 </r>
       <r>    1.8955    0.0000 </r>
       <r>    2.1314    0.0000 </r>
       <r>    2.4397    0.0000 </r>
       <r>    2.6482    0.0000 </r>
       <r>    3.2913    0.0000 </r>
       <r>    3.5908    0.0000 </r>
       <r>    4.5345    0.0000 </r>
       <r>    4.8788    0.0000 </r>
       <r>    5.3110    0.0000 </r>
       <r>    5.4784    0.0000 </r>
       <r>    6.1251    0.0000 </r>
       <r>    6.5600    0.0000 </r>
       <r>    6.9105    0.0000 </r>
       <r>    8.0542    0.0000 </r>
       <r>    8.5736    0.0000 </r>
       <r>   10.3165    0.0000 </r>
       <r>   10.3553    0.0000 </r>
       <r>   10.9382    0.0000 </r>
       <r>   12.8932    0.0000 </r>
      </set>
      <set comment="kpoint 22">
       <r>  -22.1746    1.0000 </r>
       <r>  -10.2421    1.0000 </r>
       <r>   -7.7042    1.0000 </r>
       <r>   -7.0196    1.0000 </r>
       <r>    0.5806    0.0000 </r>
       <r>    1.3442    0.0000 </r>
       <r>    1.5716    0.0000 </r>
       <r>    1.8828    0.0000 </r>
       <r>    2.0902    0.0000 </r>
       <r>    2.7364    0.0000 </r>
       <r>    3.0353    0.0000 </r>
       <r>    3.9825    0.0000 </r>
       <r>    4.3320    0.0000 </r>
       <r>    4.8797    0.0000 </r>
       <r>    5.5763    0.0000 </r>
       <r>    6.0055    0.0000 </r>
       <r>    6.2766    0.0000 </r>
       <r>    6.6017    0.0000 </r>
       <r>    7.5132    0.0000 </r>
       <r>    8.0207    0.0000 </r>
       <r>    9.2342    0.0000 </r>
       <r>    9.7866    0.0000 </r>
       <r>   10.3881    0.0000 </r>
       <r>   12.3890    0.0000 </r>
      </set>
      <set comment="kpoint 23">
       <r>  -19.5828    1.0000 </r>
       <r>  -12.4468    1.0000 </r>
       <r>  -10.8768    1.0000 </r>
       <r>   -7.2648    1.0000 </r>
       <r>    1.1355    0.0000 </r>
       <r>    4.1617    0.0000 </r>
       <r>    4.9366    0.0000 </r>
       <r>    5.2662    0.0000 </r>
       <r>    5.5459    0.0000 </r>
       <r>    5.7714    0.0000 </r>
       <r>    6.3727    0.0000 </r>
       <r>    6.6960    0.0000 </r>
       <r>    7.4689    0.0000 </r>
       <r>    7.5715    0.0000 </r>
       <r>    8.0111    0.0000 </r>
       <r>    8.3448    0.0000 </r>
       <r>    9.0614    0.0000 </r>
       <r>    9.6439    0.0000 </r>
       <r>   10.6764    0.0000 </r>
       <r>   11.6403    0.0000 </r>
       <r>   12.0421    0.0000 </r>
       <r>   13.8093    0.0000 </r>
       <r>   13.9771    0.0000 </r>
       <r>   16.2103    0.0000 </r>
      </set>
      <set comment="kpoint 24">
       <r>  -18.3082    1.0000 </r>
       <r>  -14.0162    1.0000 </r>
       <r>  -11.7841    1.0000 </r>
       <r>   -5.9040    1.0000 </r>
       <r>   -0.6088    0.0000 </r>
       <r>    5.9736    0.0000 </r>
       <r>    6.6468    0.0000 </r>
       <r>    7.1685    0.0000 </r>
       <r>    7.4028    0.0000 </r>
       <r>    7.5388    0.0000 </r>
       <r>    7.6791    0.0000 </r>
       <r>    8.1496    0.0000 </r>
       <r>    8.5848    0.0000 </r>
       <r>    9.1173    0.0000 </r>
       <r>    9.7560    0.0000 </r>
       <r>    9.9295    0.0000 </r>
       <r>   10.1162    0.0000 </r>
       <r>   11.4332    0.0000 </r>
       <r>   11.4900    0.0000 </r>
       <r>   13.1544    0.0000 </r>
       <r>   13.2238    0.0000 </r>
       <r>   13.4850    0.0000 </r>
       <r>   13.8344    0.0000 </r>
       <r>   13.9156    0.0000 </r>
      </set>
      <set comment="kpoint 25">
       <r>  -16.9399    1.0000 </r>
       <r>  -15.5970    1.0000 </r>
       <r>  -12.1187    1.0000 </r>
       <r>   -4.7355    1.0000 </r>
       <r>   -1.9571    0.0000 </r>
       <r>    7.3918    0.0000 </r>
       <r>    7.8496    0.0000 </r>
       <r>    8.1371    0.0000 </r>
       <r>    9.2493    0.0000 </r>
       <r>    9.4993    0.0000 </r>
       <r>    9.5188    0.0000 </r>
       <r>    9.8990    0.0000 </r>
       <r>    9.9930    0.0000 </r>
       <r>   10.6002    0.0000 </r>
       <r>   10.8515    0.0000 </r>
       <r>   10.8724    0.0000 </r>
       <r>   10.9596    0.0000 </r>
       <r>   11.2883    0.0000 </r>
       <r>   11.3086    0.0000 </r>
       <r>   11.9235    0.0000 </r>
       <r>   11.9850    0.0000 </r>
       <r>   12.1428    0.0000 </r>
       <r>   12.2887    0.0000 </r>
       <r>   12.9864    0.0000 </r>
      </set>
      <set comment="kpoint 26">
       <r>  -17.5995    1.0000 </r>
       <r>  -14.8612    1.0000 </r>
       <r>  -12.0107    1.0000 </r>
       <r>   -5.2290    1.0000 </r>
       <r>   -1.4024    0.0000 </r>
       <r>    7.0034    0.0000 </r>
       <r>    7.4347    0.0000 </r>
       <r>    7.4749    0.0000 </r>
       <r>    8.2881    0.0000 </r>
       <r>    8.4550    0.0000 </r>
       <r>    8.7760    0.0000 </r>
       <r>    9.0131    0.0000 </r>
       <r>    9.6689    0.0000 </r>
       <r>    9.7521    0.0000 </r>
       <r>   10.0161    0.0000 </r>
       <r>   10.8464    0.0000 </r>
       <r>   10.9425    0.0000 </r>
       <r>   12.0914    0.0000 </r>
       <r>   12.2391    0.0000 </r>
       <r>   12.4052    0.0000 </r>
       <r>   12.4691    0.0000 </r>
       <r>   12.5906    0.0000 </r>
       <r>   12.7948    0.0000 </r>
       <r>   13.0297    0.0000 </r>
      </set>
      <set comment="kpoint 27">
       <r>  -18.9756    1.0000 </r>
       <r>  -13.1887    1.0000 </r>
       <r>  -11.4156    1.0000 </r>
       <r>   -6.6018    1.0000 </r>
       <r>    0.2587    0.0000 </r>
       <r>    5.0193    0.0000 </r>
       <r>    5.7688    0.0000 </r>
       <r>    6.1616    0.0000 </r>
       <r>    6.4249    0.0000 </r>
       <r>    6.6619    0.0000 </r>
       <r>    7.2301    0.0000 </r>
       <r>    7.5427    0.0000 </r>
       <r>    7.6947    0.0000 </r>
       <r>    8.3752    0.0000 </r>
       <r>    8.8547    0.0000 </r>
       <r>    9.0381    0.0000 </r>
       <r>    9.6849    0.0000 </r>
       <r>   10.5175    0.0000 </r>
       <r>   10.9017    0.0000 </r>
       <r>   12.4181    0.0000 </r>
       <r>   12.5023    0.0000 </r>
       <r>   14.4789    0.0000 </r>
       <r>   14.5114    0.0000 </r>
       <r>   14.8755    0.0000 </r>
      </set>
      <set comment="kpoint 28">
       <r>  -20.1222    1.0000 </r>
       <r>  -11.8103    1.0000 </r>
       <r>  -10.1875    1.0000 </r>
       <r>   -7.8686    1.0000 </r>
       <r>    1.9900    0.0000 </r>
       <r>    3.4064    0.0000 </r>
       <r>    4.1903    0.0000 </r>
       <r>    4.4825    0.0000 </r>
       <r>    4.7728    0.0000 </r>
       <r>    4.9910    0.0000 </r>
       <r>    5.6103    0.0000 </r>
       <r>    5.9204    0.0000 </r>
       <r>    6.6720    0.0000 </r>
       <r>    6.8302    0.0000 </r>
       <r>    7.2325    0.0000 </r>
       <r>    8.3570    0.0000 </r>
       <r>    8.3756    0.0000 </r>
       <r>    8.8787    0.0000 </r>
       <r>   10.1993    0.0000 </r>
       <r>   10.8789    0.0000 </r>
       <r>   12.0575    0.0000 </r>
       <r>   13.2270    0.0000 </r>
       <r>   13.4921    0.0000 </r>
       <r>   14.7187    0.0000 </r>
      </set>
      <set comment="kpoint 29">
       <r>  -20.9822    1.0000 </r>
       <r>  -10.6847    1.0000 </r>
       <r>   -8.8509    1.0000 </r>
       <r>   -8.7456    1.0000 </r>
       <r>    2.2130    0.0000 </r>
       <r>    2.9813    0.0000 </r>
       <r>    3.2510    0.0000 </r>
       <r>    3.5123    0.0000 </r>
       <r>    3.6154    0.0000 </r>
       <r>    3.7636    0.0000 </r>
       <r>    4.4046    0.0000 </r>
       <r>    4.6953    0.0000 </r>
       <r>    5.1522    0.0000 </r>
       <r>    5.6388    0.0000 </r>
       <r>    6.0099    0.0000 </r>
       <r>    7.2164    0.0000 </r>
       <r>    7.6603    0.0000 </r>
       <r>    8.7527    0.0000 </r>
       <r>    9.1255    0.0000 </r>
       <r>    9.6752    0.0000 </r>
       <r>   11.3431    0.0000 </r>
       <r>   12.0286    0.0000 </r>
       <r>   12.2350    0.0000 </r>
       <r>   13.7534    0.0000 </r>
      </set>
      <set comment="kpoint 30">
       <r>  -21.5362    1.0000 </r>
       <r>   -9.5988    1.0000 </r>
       <r>   -9.4931    1.0000 </r>
       <r>   -7.8663    1.0000 </r>
       <r>    1.4515    0.0000 </r>
       <r>    2.2244    0.0000 </r>
       <r>    2.4672    0.0000 </r>
       <r>    2.7730    0.0000 </r>
       <r>    2.9826    0.0000 </r>
       <r>    3.6220    0.0000 </r>
       <r>    3.9211    0.0000 </r>
       <r>    4.6465    0.0000 </r>
       <r>    4.7793    0.0000 </r>
       <r>    4.9174    0.0000 </r>
       <r>    5.2377    0.0000 </r>
       <r>    6.4575    0.0000 </r>
       <r>    6.8892    0.0000 </r>
       <r>    8.3817    0.0000 </r>
       <r>    8.4509    0.0000 </r>
       <r>    8.9021    0.0000 </r>
       <r>   10.5314    0.0000 </r>
       <r>   10.6372    0.0000 </r>
       <r>   11.2695    0.0000 </r>
       <r>   13.1985    0.0000 </r>
      </set>
      <set comment="kpoint 31">
       <r>  -16.9801    1.0000 </r>
       <r>  -14.8570    1.0000 </r>
       <r>  -13.0793    1.0000 </r>
       <r>   -4.5330    1.0000 </r>
       <r>   -2.0155    0.0000 </r>
       <r>    7.4131    0.0000 </r>
       <r>    7.9056    0.0000 </r>
       <r>    9.2914    0.0000 </r>
       <r>    9.3093    0.0000 </r>
       <r>    9.3232    0.0000 </r>
       <r>    9.6013    0.0000 </r>
       <r>    9.7377    0.0000 </r>
       <r>    9.8132    0.0000 </r>
       <r>   10.5615    0.0000 </r>
       <r>   10.6712    0.0000 </r>
       <r>   11.7570    0.0000 </r>
       <r>   11.8772    0.0000 </r>
       <r>   12.7204    0.0000 </r>
       <r>   12.8578    0.0000 </r>
       <r>   12.9154    0.0000 </r>
       <r>   13.1402    0.0000 </r>
       <r>   13.3479    0.0000 </r>
       <r>   13.4028    0.0000 </r>
       <r>   13.4890    0.0000 </r>
      </set>
      <set comment="kpoint 32">
       <r>  -16.3326    1.0000 </r>
       <r>  -15.3915    1.0000 </r>
       <r>  -13.3619    1.0000 </r>
       <r>   -3.9245    1.0000 </r>
       <r>   -2.6261    0.0000 </r>
       <r>    7.3690    0.0000 </r>
       <r>    8.8552    0.0000 </r>
       <r>    9.2943    0.0000 </r>
       <r>    9.8233    0.0000 </r>
       <r>   10.3962    0.0000 </r>
       <r>   10.5230    0.0000 </r>
       <r>   10.8628    0.0000 </r>
       <r>   10.9661    0.0000 </r>
       <r>   11.5924    0.0000 </r>
       <r>   11.7086    0.0000 </r>
       <r>   11.8406    0.0000 </r>
       <r>   11.8510    0.0000 </r>
       <r>   12.0694    0.0000 </r>
       <r>   12.2075    0.0000 </r>
       <r>   12.5554    0.0000 </r>
       <r>   12.6366    0.0000 </r>
       <r>   12.8507    0.0000 </r>
       <r>   12.9541    0.0000 </r>
       <r>   13.0488    0.0000 </r>
      </set>
      <set comment="kpoint 33">
       <r>  -17.6617    1.0000 </r>
       <r>  -14.4002    1.0000 </r>
       <r>  -12.5231    1.0000 </r>
       <r>   -5.2262    1.0000 </r>
       <r>   -1.3129    0.0000 </r>
       <r>    6.9098    0.0000 </r>
       <r>    7.2465    0.0000 </r>
       <r>    8.1752    0.0000 </r>
       <r>    8.3324    0.0000 </r>
       <r>    8.5912    0.0000 </r>
       <r>    8.6911    0.0000 </r>
       <r>    8.8770    0.0000 </r>
       <r>    9.5132    0.0000 </r>
       <r>    9.6377    0.0000 </r>
       <r>    9.6796    0.0000 </r>
       <r>   10.7696    0.0000 </r>
       <r>   10.8407    0.0000 </r>
       <r>   12.2613    0.0000 </r>
       <r>   12.4280    0.0000 </r>
       <r>   12.9939    0.0000 </r>
       <r>   13.3721    0.0000 </r>
       <r>   13.5690    0.0000 </r>
       <r>   13.9137    0.0000 </r>
       <r>   14.0649    0.0000 </r>
      </set>
      <set comment="kpoint 34">
       <r>  -18.9006    1.0000 </r>
       <r>  -13.6370    1.0000 </r>
       <r>  -10.9770    1.0000 </r>
       <r>   -6.5388    1.0000 </r>
       <r>    0.0817    0.0000 </r>
       <r>    5.1245    0.0000 </r>
       <r>    5.8936    0.0000 </r>
       <r>    6.2727    0.0000 </r>
       <r>    6.4877    0.0000 </r>
       <r>    6.5400    0.0000 </r>
       <r>    6.7812    0.0000 </r>
       <r>    7.3490    0.0000 </r>
       <r>    7.7029    0.0000 </r>
       <r>    8.5036    0.0000 </r>
       <r>    8.9789    0.0000 </r>
       <r>    9.8386    0.0000 </r>
       <r>   10.0947    0.0000 </r>
       <r>   10.6358    0.0000 </r>
       <r>   11.0474    0.0000 </r>
       <r>   12.4943    0.0000 </r>
       <r>   12.6090    0.0000 </r>
       <r>   13.5638    0.0000 </r>
       <r>   14.1616    0.0000 </r>
       <r>   14.5991    0.0000 </r>
      </set>
      <set comment="kpoint 35">
       <r>  -19.8895    1.0000 </r>
       <r>  -12.7719    1.0000 </r>
       <r>   -9.4959    1.0000 </r>
       <r>   -7.6228    1.0000 </r>
       <r>    1.4105    0.0000 </r>
       <r>    3.7248    0.0000 </r>
       <r>    4.5379    0.0000 </r>
       <r>    4.8059    0.0000 </r>
       <r>    4.8402    0.0000 </r>
       <r>    5.1118    0.0000 </r>
       <r>    5.3306    0.0000 </r>
       <r>    5.9506    0.0000 </r>
       <r>    6.2631    0.0000 </r>
       <r>    7.1723    0.0000 </r>
       <r>    7.5518    0.0000 </r>
       <r>    8.7222    0.0000 </r>
       <r>    9.1987    0.0000 </r>
       <r>   10.5614    0.0000 </r>
       <r>   10.7792    0.0000 </r>
       <r>   11.2162    0.0000 </r>
       <r>   12.4664    0.0000 </r>
       <r>   13.5502    0.0000 </r>
       <r>   13.6124    0.0000 </r>
       <r>   13.7482    0.0000 </r>
      </set>
      <set comment="kpoint 36">
       <r>  -20.5891    1.0000 </r>
       <r>  -11.7430    1.0000 </r>
       <r>   -8.6675    1.0000 </r>
       <r>   -8.4058    1.0000 </r>
       <r>    2.6139    0.0000 </r>
       <r>    2.7522    0.0000 </r>
       <r>    3.5771    0.0000 </r>
       <r>    3.8103    0.0000 </r>
       <r>    4.1163    0.0000 </r>
       <r>    4.2596    0.0000 </r>
       <r>    4.3553    0.0000 </r>
       <r>    4.9612    0.0000 </r>
       <r>    5.2655    0.0000 </r>
       <r>    6.1942    0.0000 </r>
       <r>    6.5583    0.0000 </r>
       <r>    7.7675    0.0000 </r>
       <r>    8.2111    0.0000 </r>
       <r>    9.6686    0.0000 </r>
       <r>   10.2185    0.0000 </r>
       <r>   11.1023    0.0000 </r>
       <r>   11.8675    0.0000 </r>
       <r>   11.8899    0.0000 </r>
       <r>   12.5825    0.0000 </r>
       <r>   14.1711    0.0000 </r>
      </set>
      <set comment="kpoint 37">
       <r>  -16.5076    1.0000 </r>
       <r>  -15.5877    1.0000 </r>
       <r>  -12.8436    1.0000 </r>
       <r>   -4.2630    1.0000 </r>
       <r>   -2.3417    0.0000 </r>
       <r>    7.5728    0.0000 </r>
       <r>    8.4567    0.0000 </r>
       <r>    8.8845    0.0000 </r>
       <r>    9.2263    0.0000 </r>
       <r>   10.2776    0.0000 </r>
       <r>   10.6199    0.0000 </r>
       <r>   10.6405    0.0000 </r>
       <r>   10.7007    0.0000 </r>
       <r>   10.9112    0.0000 </r>
       <r>   11.0314    0.0000 </r>
       <r>   11.1046    0.0000 </r>
       <r>   11.1680    0.0000 </r>
       <r>   11.7444    0.0000 </r>
       <r>   11.7538    0.0000 </r>
       <r>   11.9543    0.0000 </r>
       <r>   12.0310    0.0000 </r>
       <r>   12.6549    0.0000 </r>
       <r>   12.9763    0.0000 </r>
       <r>   13.1885    0.0000 </r>
      </set>
      <set comment="kpoint 38">
       <r>  -17.4856    1.0000 </r>
       <r>  -15.4273    1.0000 </r>
       <r>  -11.3465    1.0000 </r>
       <r>   -5.2479    1.0000 </r>
       <r>   -1.5341    0.0000 </r>
       <r>    6.3057    0.0000 </r>
       <r>    7.2453    0.0000 </r>
       <r>    7.7670    0.0000 </r>
       <r>    8.5117    0.0000 </r>
       <r>    8.6939    0.0000 </r>
       <r>    8.9973    0.0000 </r>
       <r>    9.2582    0.0000 </r>
       <r>    9.5434    0.0000 </r>
       <r>    9.9077    0.0000 </r>
       <r>    9.9165    0.0000 </r>
       <r>   10.8563    0.0000 </r>
       <r>   11.1484    0.0000 </r>
       <r>   11.1939    0.0000 </r>
       <r>   11.3270    0.0000 </r>
       <r>   11.6190    0.0000 </r>
       <r>   11.7087    0.0000 </r>
       <r>   12.3601    0.0000 </r>
       <r>   12.3673    0.0000 </r>
       <r>   12.8326    0.0000 </r>
      </set>
      <set comment="kpoint 39">
       <r>  -18.5322    1.0000 </r>
       <r>  -14.7913    1.0000 </r>
       <r>   -9.9694    1.0000 </r>
       <r>   -6.2435    1.0000 </r>
       <r>   -0.5999    0.0000 </r>
       <r>    4.5685    0.0000 </r>
       <r>    5.6779    0.0000 </r>
       <r>    6.4810    0.0000 </r>
       <r>    6.8336    0.0000 </r>
       <r>    7.1071    0.0000 </r>
       <r>    7.3335    0.0000 </r>
       <r>    7.9250    0.0000 </r>
       <r>    8.2553    0.0000 </r>
       <r>    9.1007    0.0000 </r>
       <r>    9.5302    0.0000 </r>
       <r>   10.4446    0.0000 </r>
       <r>   10.4671    0.0000 </r>
       <r>   11.1672    0.0000 </r>
       <r>   11.2996    0.0000 </r>
       <r>   12.1980    0.0000 </r>
       <r>   12.2860    0.0000 </r>
       <r>   12.5583    0.0000 </r>
       <r>   12.6052    0.0000 </r>
       <r>   13.1294    0.0000 </r>
      </set>
      <set comment="kpoint 40">
       <r>  -19.3529    1.0000 </r>
       <r>  -13.8728    1.0000 </r>
       <r>   -9.2617    1.0000 </r>
       <r>   -7.0658    1.0000 </r>
       <r>    0.4296    0.0000 </r>
       <r>    3.9538    0.0000 </r>
       <r>    4.5123    0.0000 </r>
       <r>    5.3124    0.0000 </r>
       <r>    5.6024    0.0000 </r>
       <r>    5.8931    0.0000 </r>
       <r>    6.1085    0.0000 </r>
       <r>    6.7295    0.0000 </r>
       <r>    7.0384    0.0000 </r>
       <r>    7.9471    0.0000 </r>
       <r>    8.3236    0.0000 </r>
       <r>    9.4883    0.0000 </r>
       <r>    9.9671    0.0000 </r>
       <r>   11.2920    0.0000 </r>
       <r>   11.5561    0.0000 </r>
       <r>   11.9691    0.0000 </r>
       <r>   12.6074    0.0000 </r>
       <r>   13.5938    0.0000 </r>
       <r>   13.6571    0.0000 </r>
       <r>   13.7881    0.0000 </r>
      </set>
      <set comment="kpoint 41">
       <r>  -17.3407    1.0000 </r>
       <r>  -16.2130    1.0000 </r>
       <r>  -10.1306    1.0000 </r>
       <r>   -5.4192    1.0000 </r>
       <r>   -1.6493    0.0000 </r>
       <r>    4.4855    0.0000 </r>
       <r>    7.9019    0.0000 </r>
       <r>    8.0678    0.0000 </r>
       <r>    8.5613    0.0000 </r>
       <r>    8.9519    0.0000 </r>
       <r>    9.2845    0.0000 </r>
       <r>    9.3041    0.0000 </r>
       <r>    9.5104    0.0000 </r>
       <r>    9.5713    0.0000 </r>
       <r>    9.7635    0.0000 </r>
       <r>    9.7939    0.0000 </r>
       <r>   10.2187    0.0000 </r>
       <r>   10.4085    0.0000 </r>
       <r>   10.6534    0.0000 </r>
       <r>   10.6970    0.0000 </r>
       <r>   11.2315    0.0000 </r>
       <r>   11.7611    0.0000 </r>
       <r>   11.9254    0.0000 </r>
       <r>   13.2265    0.0000 </r>
      </set>
      <set comment="kpoint 42">
       <r>  -17.9128    1.0000 </r>
       <r>  -15.7840    1.0000 </r>
       <r>   -9.5736    1.0000 </r>
       <r>   -5.8076    1.0000 </r>
       <r>   -1.3025    0.0000 </r>
       <r>    3.7993    0.0000 </r>
       <r>    6.6320    0.0000 </r>
       <r>    7.4696    0.0000 </r>
       <r>    7.8408    0.0000 </r>
       <r>    8.1102    0.0000 </r>
       <r>    8.3350    0.0000 </r>
       <r>    8.9200    0.0000 </r>
       <r>    9.1150    0.0000 </r>
       <r>    9.2562    0.0000 </r>
       <r>    9.8957    0.0000 </r>
       <r>   10.1912    0.0000 </r>
       <r>   10.5184    0.0000 </r>
       <r>   10.5270    0.0000 </r>
       <r>   10.7650    0.0000 </r>
       <r>   10.9984    0.0000 </r>
       <r>   11.4394    0.0000 </r>
       <r>   11.7100    0.0000 </r>
       <r>   11.8769    0.0000 </r>
       <r>   12.1872    0.0000 </r>
      </set>
     </set>
    </set>
   </array>
  </eigenvalues>
  <separator name="orbital magnetization" >
   <v name="MAGDIPOLOUT">      0.00000000      0.00000000      0.00000000</v>
  </separator>
  <dos>
   <i name="efermi">     -3.59601000 </i>
   <total>
    <array>
     <dimension dim="1">gridpoints</dimension>
     <dimension dim="2">spin</dimension>
     <field>energy</field>
     <field>total</field>
     <field>integrated</field>
     <set>
      <set comment="spin 1">
       <r>   -24.4418     0.0000     0.0000 </r>
       <r>   -24.2991     0.0000     0.0000 </r>
       <r>   -24.1564     0.0000     0.0000 </r>
       <r>   -24.0136     0.0000     0.0000 </r>
       <r>   -23.8709     0.0000     0.0000 </r>
       <r>   -23.7282     0.0000     0.0000 </r>
       <r>   -23.5855     0.0000     0.0000 </r>
       <r>   -23.4428     0.0000     0.0000 </r>
       <r>   -23.3000     0.0000     0.0000 </r>
       <r>   -23.1573     0.0000     0.0000 </r>
       <r>   -23.0146     0.0000     0.0000 </r>
       <r>   -22.8719     0.0000     0.0000 </r>
       <r>   -22.7292     0.0000     0.0000 </r>
       <r>   -22.5865     0.0010     0.0001 </r>
       <r>   -22.4437     0.2207     0.0316 </r>
       <r>   -22.3010     0.2045     0.0608 </r>
       <r>   -22.1583     0.4829     0.1298 </r>
       <r>   -22.0156     0.2540     0.1660 </r>
       <r>   -21.8729     0.2004     0.1946 </r>
       <r>   -21.7301     0.4116     0.2533 </r>
       <r>   -21.5874     0.3798     0.3075 </r>
       <r>   -21.4447     0.3033     0.3508 </r>
       <r>   -21.3020     0.2500     0.3865 </r>
       <r>   -21.1593     0.2124     0.4168 </r>
       <r>   -21.0166     0.4125     0.4757 </r>
       <r>   -20.8738     0.3965     0.5323 </r>
       <r>   -20.7311     0.3562     0.5831 </r>
       <r>   -20.5884     0.3004     0.6260 </r>
       <r>   -20.4457     0.2850     0.6667 </r>
       <r>   -20.3030     0.0896     0.6795 </r>
       <r>   -20.1602     0.3546     0.7301 </r>
       <r>   -20.0175     0.6363     0.8209 </r>
       <r>   -19.8748     0.3448     0.8701 </r>
       <r>   -19.7321     0.1390     0.8899 </r>
       <r>   -19.5894     0.4551     0.9549 </r>
       <r>   -19.4467     0.2447     0.9898 </r>
       <r>   -19.3039     0.4446     1.0532 </r>
       <r>   -19.1612     0.0162     1.0556 </r>
       <r>   -19.0185     0.0884     1.0682 </r>
       <r>   -18.8758     0.9838     1.2086 </r>
       <r>   -18.7331     0.3690     1.2612 </r>
       <r>   -18.5903     0.1354     1.2806 </r>
       <r>   -18.4476     0.3665     1.3329 </r>
       <r>   -18.3049     0.2328     1.3661 </r>
       <r>   -18.1622     0.5460     1.4440 </r>
       <r>   -18.0195     0.2428     1.4787 </r>
       <r>   -17.8768     0.3141     1.5235 </r>
       <r>   -17.7340     0.0379     1.5289 </r>
       <r>   -17.5913     0.7039     1.6294 </r>
       <r>   -17.4486     0.7898     1.7421 </r>
       <r>   -17.3059     0.5803     1.8249 </r>
       <r>   -17.1632     0.0591     1.8333 </r>
       <r>   -17.0204     0.0291     1.8375 </r>
       <r>   -16.8777     0.5391     1.9144 </r>
       <r>   -16.7350     0.0157     1.9167 </r>
       <r>   -16.5923     0.0016     1.9169 </r>
       <r>   -16.4496     0.1834     1.9431 </r>
       <r>   -16.3069     0.3088     1.9871 </r>
       <r>   -16.1641     0.3149     2.0321 </r>
       <r>   -16.0214     0.3605     2.0835 </r>
       <r>   -15.8787     0.3628     2.1353 </r>
       <r>   -15.7360     0.2028     2.1643 </r>
       <r>   -15.5933     0.3133     2.2090 </r>
       <r>   -15.4505     0.4053     2.2668 </r>
       <r>   -15.3078     0.9231     2.3986 </r>
       <r>   -15.1651     0.2590     2.4355 </r>
       <r>   -15.0224     0.2571     2.4722 </r>
       <r>   -14.8797     0.1702     2.4965 </r>
       <r>   -14.7370     0.7787     2.6076 </r>
       <r>   -14.5942     0.0243     2.6111 </r>
       <r>   -14.4515     0.0308     2.6155 </r>
       <r>   -14.3088     0.7219     2.7185 </r>
       <r>   -14.1661     0.3809     2.7729 </r>
       <r>   -14.0234     0.1977     2.8011 </r>
       <r>   -13.8806     0.3061     2.8448 </r>
       <r>   -13.7379     0.1152     2.8612 </r>
       <r>   -13.5952     0.3424     2.9101 </r>
       <r>   -13.4525     0.0483     2.9170 </r>
       <r>   -13.3098     0.6636     3.0117 </r>
       <r>   -13.1671     0.7693     3.1215 </r>
       <r>   -13.0243     0.3050     3.1650 </r>
       <r>   -12.8816     0.0395     3.1706 </r>
       <r>   -12.7389     0.4876     3.2402 </r>
       <r>   -12.5962     0.0760     3.2511 </r>
       <r>   -12.4535     0.4549     3.3160 </r>
       <r>   -12.3107     0.1831     3.3421 </r>
       <r>   -12.1680     0.7255     3.4457 </r>
       <r>   -12.0253     0.5114     3.5186 </r>
       <r>   -11.8826     0.2676     3.5568 </r>
       <r>   -11.7399     0.8237     3.6744 </r>
       <r>   -11.5971     0.1405     3.6944 </r>
       <r>   -11.4544     0.0535     3.7021 </r>
       <r>   -11.3117     0.6687     3.7975 </r>
       <r>   -11.1690     0.7475     3.9042 </r>
       <r>   -11.0263     0.1192     3.9212 </r>
       <r>   -10.8836     0.4384     3.9838 </r>
       <r>   -10.7408     0.1665     4.0075 </r>
       <r>   -10.5981     1.1053     4.1653 </r>
       <r>   -10.4554     0.5222     4.2398 </r>
       <r>   -10.3127     0.7534     4.3474 </r>
       <r>   -10.1700     1.1134     4.5063 </r>
       <r>   -10.0272     1.0533     4.6566 </r>
       <r>    -9.8845     0.5385     4.7334 </r>
       <r>    -9.7418     0.8204     4.8505 </r>
       <r>    -9.5991     1.1697     5.0175 </r>
       <r>    -9.4564     1.4125     5.2191 </r>
       <r>    -9.3137     0.6618     5.3135 </r>
       <r>    -9.1709     0.8995     5.4419 </r>
       <r>    -9.0282     0.4286     5.5031 </r>
       <r>    -8.8855     1.1626     5.6690 </r>
       <r>    -8.7428     0.9257     5.8011 </r>
       <r>    -8.6001     1.0256     5.9475 </r>
       <r>    -8.4573     0.2100     5.9774 </r>
       <r>    -8.3146     0.7304     6.0817 </r>
       <r>    -8.1719     0.5643     6.1622 </r>
       <r>    -8.0292     0.5239     6.2370 </r>
       <r>    -7.8865     0.2702     6.2755 </r>
       <r>    -7.7438     1.4105     6.4768 </r>
       <r>    -7.6010     0.6412     6.5684 </r>
       <r>    -7.4583     0.1283     6.5867 </r>
       <r>    -7.3156     0.9667     6.7246 </r>
       <r>    -7.1729     0.3914     6.7805 </r>
       <r>    -7.0302     0.6058     6.8670 </r>
       <r>    -6.8874     0.4668     6.9336 </r>
       <r>    -6.7447     0.2838     6.9741 </r>
       <r>    -6.6020     0.6719     7.0700 </r>
       <r>    -6.4593     0.9309     7.2028 </r>
       <r>    -6.3166     0.5316     7.2787 </r>
       <r>    -6.1739     0.3733     7.3320 </r>
       <r>    -6.0311     0.2143     7.3626 </r>
       <r>    -5.8884     0.4477     7.4265 </r>
       <r>    -5.7457     0.5641     7.5070 </r>
       <r>    -5.6030     0.2969     7.5493 </r>
       <r>    -5.4603     0.2620     7.5867 </r>
       <r>    -5.3175     0.3237     7.6329 </r>
       <r>    -5.1748     1.3437     7.8247 </r>
       <r>    -5.0321     0.0604     7.8333 </r>
       <r>    -4.8894     0.0000     7.8333 </r>
       <r>    -4.7467     0.1462     7.8542 </r>
       <r>    -4.6040     0.2474     7.8895 </r>
       <r>    -4.4612     0.1862     7.9161 </r>
       <r>    -4.3185     0.0154     7.9183 </r>
       <r>    -4.1758     0.1820     7.9443 </r>
       <r>    -4.0331     0.0017     7.9445 </r>
       <r>    -3.8904     0.3239     7.9907 </r>
       <r>    -3.7476     0.0650     8.0000 </r>
       <r>    -3.6049     0.0000     8.0000 </r>
       <r>    -3.4622     0.0000     8.0000 </r>
       <r>    -3.3195     0.0000     8.0000 </r>
       <r>    -3.1768     0.0000     8.0000 </r>
       <r>    -3.0341     0.0000     8.0000 </r>
       <r>    -2.8913     0.0000     8.0000 </r>
       <r>    -2.7486     0.0001     8.0000 </r>
       <r>    -2.6059     0.2785     8.0398 </r>
       <r>    -2.4632     0.1107     8.0556 </r>
       <r>    -2.3205     0.1412     8.0757 </r>
       <r>    -2.1777     0.0534     8.0833 </r>
       <r>    -2.0350     0.0618     8.0922 </r>
       <r>    -1.8923     0.5090     8.1648 </r>
       <r>    -1.7496     0.0139     8.1668 </r>
       <r>    -1.6069     0.5031     8.2386 </r>
       <r>    -1.4642     0.8571     8.3609 </r>
       <r>    -1.3214     0.6015     8.4467 </r>
       <r>    -1.1787     0.3743     8.5002 </r>
       <r>    -1.0360     0.3682     8.5527 </r>
       <r>    -0.8933     0.4055     8.6106 </r>
       <r>    -0.7506     0.0037     8.6111 </r>
       <r>    -0.6078     0.3589     8.6623 </r>
       <r>    -0.4651     0.4196     8.7222 </r>
       <r>    -0.3224     0.0013     8.7224 </r>
       <r>    -0.1797     0.3543     8.7730 </r>
       <r>    -0.0370     0.4003     8.8301 </r>
       <r>     0.1057     0.3415     8.8788 </r>
       <r>     0.2485     0.5010     8.9503 </r>
       <r>     0.3912     0.3794     9.0045 </r>
       <r>     0.5339     0.5551     9.0837 </r>
       <r>     0.6766     0.1965     9.1117 </r>
       <r>     0.8193     0.6538     9.2050 </r>
       <r>     0.9621     0.5967     9.2902 </r>
       <r>     1.1048     0.5049     9.3623 </r>
       <r>     1.2475     1.2041     9.5341 </r>
       <r>     1.3902     0.6665     9.6292 </r>
       <r>     1.5329     1.2340     9.8054 </r>
       <r>     1.6756     0.9430     9.9399 </r>
       <r>     1.8184     1.5473    10.1608 </r>
       <r>     1.9611     1.0533    10.3111 </r>
       <r>     2.1038     1.8980    10.5820 </r>
       <r>     2.2465     1.4938    10.7952 </r>
       <r>     2.3892     1.1781    10.9633 </r>
       <r>     2.5320     1.2841    11.1466 </r>
       <r>     2.6747     1.8226    11.4067 </r>
       <r>     2.8174     2.1141    11.7084 </r>
       <r>     2.9601     1.5608    11.9312 </r>
       <r>     3.1028     1.5937    12.1586 </r>
       <r>     3.2455     1.3787    12.3554 </r>
       <r>     3.3883     1.8591    12.6207 </r>
       <r>     3.5310     2.0554    12.9141 </r>
       <r>     3.6737     2.2846    13.2401 </r>
       <r>     3.8164     2.5241    13.6003 </r>
       <r>     3.9591     2.0109    13.8873 </r>
       <r>     4.1019     2.8263    14.2907 </r>
       <r>     4.2446     2.2856    14.6169 </r>
       <r>     4.3873     3.3889    15.1006 </r>
       <r>     4.5300     2.0344    15.3909 </r>
       <r>     4.6727     3.5058    15.8913 </r>
       <r>     4.8154     2.2845    16.2173 </r>
       <r>     4.9582     3.8127    16.7614 </r>
       <r>     5.1009     3.3294    17.2366 </r>
       <r>     5.2436     3.0901    17.6776 </r>
       <r>     5.3863     3.5088    18.1784 </r>
       <r>     5.5290     2.5797    18.5466 </r>
       <r>     5.6718     3.0552    18.9826 </r>
       <r>     5.8145     3.3832    19.4654 </r>
       <r>     5.9572     3.4427    19.9568 </r>
       <r>     6.0999     2.5442    20.3199 </r>
       <r>     6.2426     3.5939    20.8328 </r>
       <r>     6.3853     2.2152    21.1489 </r>
       <r>     6.5281     2.6568    21.5281 </r>
       <r>     6.6708     4.2042    22.1281 </r>
       <r>     6.8135     2.7162    22.5158 </r>
       <r>     6.9562     2.9414    22.9356 </r>
       <r>     7.0989     2.3177    23.2663 </r>
       <r>     7.2417     3.6339    23.7850 </r>
       <r>     7.3844     3.8405    24.3331 </r>
       <r>     7.5271     3.8047    24.8761 </r>
       <r>     7.6698     4.6241    25.5360 </r>
       <r>     7.8125     3.6652    26.0591 </r>
       <r>     7.9552     3.3786    26.5413 </r>
       <r>     8.0980     1.7373    26.7892 </r>
       <r>     8.2407     3.8947    27.3451 </r>
       <r>     8.3834     3.0955    27.7869 </r>
       <r>     8.5261     3.5368    28.2916 </r>
       <r>     8.6688     3.5065    28.7921 </r>
       <r>     8.8116     4.4126    29.4218 </r>
       <r>     8.9543     3.4565    29.9151 </r>
       <r>     9.0970     4.6589    30.5800 </r>
       <r>     9.2397     2.7435    30.9716 </r>
       <r>     9.3824     4.0096    31.5438 </r>
       <r>     9.5251     2.4682    31.8961 </r>
       <r>     9.6679     5.0245    32.6132 </r>
       <r>     9.8106     3.8296    33.1597 </r>
       <r>     9.9533     4.7721    33.8408 </r>
       <r>    10.0960     3.8856    34.3953 </r>
       <r>    10.2387     2.8543    34.8027 </r>
       <r>    10.3815     3.5784    35.3134 </r>
       <r>    10.5242     3.9000    35.8700 </r>
       <r>    10.6669     4.3102    36.4851 </r>
       <r>    10.8096     3.0593    36.9217 </r>
       <r>    10.9523     5.6247    37.7245 </r>
       <r>    11.0950     3.1499    38.1740 </r>
       <r>    11.2378     4.1173    38.7616 </r>
       <r>    11.3805     4.0505    39.3397 </r>
       <r>    11.5232     2.4446    39.6886 </r>
       <r>    11.6659     3.7064    40.2176 </r>
       <r>    11.8086     3.0102    40.6472 </r>
       <r>    11.9514     4.4231    41.2784 </r>
       <r>    12.0941     3.2853    41.7473 </r>
       <r>    12.2368     3.2442    42.2103 </r>
       <r>    12.3795     4.2198    42.8126 </r>
       <r>    12.5222     4.4120    43.4422 </r>
       <r>    12.6649     4.2607    44.0503 </r>
       <r>    12.8077     2.2415    44.3702 </r>
       <r>    12.9504     2.7449    44.7620 </r>
       <r>    13.0931     2.8228    45.1648 </r>
       <r>    13.2358     2.2321    45.4834 </r>
       <r>    13.3785     2.5240    45.8436 </r>
       <r>    13.5213     2.3948    46.1854 </r>
       <r>    13.6640     2.9953    46.6128 </r>
       <r>    13.8067     2.0870    46.9107 </r>
       <r>    13.9494     2.0481    47.2030 </r>
       <r>    14.0921     1.1164    47.3623 </r>
       <r>    14.2348     1.1429    47.5255 </r>
       <r>    14.3776     0.0171    47.5279 </r>
       <r>    14.5203     0.5797    47.6106 </r>
       <r>    14.6630     0.5959    47.6957 </r>
       <r>    14.8057     0.3874    47.7510 </r>
       <r>    14.9484     0.5657    47.8317 </r>
       <r>    15.0912     0.2060    47.8611 </r>
       <r>    15.2339     0.0000    47.8611 </r>
       <r>    15.3766     0.0000    47.8611 </r>
       <r>    15.5193     0.0000    47.8611 </r>
       <r>    15.6620     0.0000    47.8611 </r>
       <r>    15.8047     0.0000    47.8611 </r>
       <r>    15.9475     0.0527    47.8686 </r>
       <r>    16.0902     0.3360    47.9166 </r>
       <r>    16.2329     0.1444    47.9372 </r>
       <r>    16.3756     0.0785    47.9484 </r>
       <r>    16.5183     0.3596    47.9997 </r>
       <r>    16.6611     0.0020    48.0000 </r>
       <r>    16.8038     0.0000    48.0000 </r>
       <r>    16.9465     0.0000    48.0000 </r>
       <r>    17.0892     0.0000    48.0000 </r>
       <r>    17.2319     0.0000    48.0000 </r>
       <r>    17.3746     0.0000    48.0000 </r>
       <r>    17.5174     0.0000    48.0000 </r>
       <r>    17.6601     0.0000    48.0000 </r>
       <r>    17.8028     0.0000    48.0000 </r>
       <r>    17.9455     0.0000    48.0000 </r>
       <r>    18.0882     0.0000    48.0000 </r>
       <r>    18.2310     0.0000    48.0000 </r>
       <r>    18.3737     0.0000    48.0000 </r>
      </set>
     </set>
    </array>
   </total>
  </dos>
 </calculation>
 <structure name="finalpos" >
  <crystal>
   <varray name="basis" >
    <v>       1.24654898      -2.15909160       0.00000000 </v>
    <v>       1.24654898       2.15909160       0.00000000 </v>
    <v>       0.00000000       0.00000000      30.28239374 </v>
   </varray>
   <i name="volume">    163.00488276 </i>
   <varray name="rec_basis" >
    <v>       0.40110738      -0.23157887       0.00000000 </v>
    <v>       0.40110738       0.23157887       0.00000000 </v>
    <v>       0.00000000       0.00000000       0.03302249 </v>
   </varray>
  </crystal>
  <varray name="positions" >
   <v>       0.00000262       0.99999738       0.50000000 </v>
   <v>       0.66666738       0.33333262       0.50000000 </v>
  </varray>
 </structure>
</modeling>
