   8   8   0   0
  0.5704611E+01  0.3573615E-09  0.3573615E-09  0.3573615E-09  0.5000000E-15
  1.000000000000000E-004
  CAR 
 unknown system                          
     24.36722356    -12.17178363  301     11.09899658      1.00000000
    -12.172  0.0000E+00  0.0000E+00
    -12.050  0.0000E+00  0.0000E+00
    -11.928  0.0000E+00  0.0000E+00
    -11.806  0.0000E+00  0.0000E+00
    -11.685  0.0000E+00  0.0000E+00
    -11.563  0.0000E+00  0.0000E+00
    -11.441  0.0000E+00  0.0000E+00
    -11.319  0.0000E+00  0.0000E+00
    -11.197  0.0000E+00  0.0000E+00
    -11.076  0.0000E+00  0.0000E+00
    -10.954  0.0000E+00  0.0000E+00
    -10.832  0.0000E+00  0.0000E+00
    -10.710  0.3968E-11  0.4833E-12
    -10.588  0.6666E-05  0.8118E-06
    -10.467  0.5357E-03  0.6606E-04
    -10.345  0.1732E-02  0.2770E-03
    -10.223  0.2190E-02  0.5438E-03
    -10.101  0.3276E-02  0.9428E-03
     -9.979  0.2346E-02  0.1229E-02
     -9.858  0.4426E-02  0.1768E-02
     -9.736  0.3463E-02  0.2189E-02
     -9.614  0.4007E-02  0.2677E-02
     -9.492  0.5003E-02  0.3287E-02
     -9.370  0.4939E-02  0.3888E-02
     -9.249  0.5407E-02  0.4547E-02
     -9.127  0.3869E-02  0.5018E-02
     -9.005  0.6794E-02  0.5846E-02
     -8.883  0.6477E-02  0.6634E-02
     -8.761  0.5286E-02  0.7278E-02
     -8.640  0.4949E-02  0.7881E-02
     -8.518  0.7415E-02  0.8784E-02
     -8.396  0.8107E-02  0.9772E-02
     -8.274  0.5856E-02  0.1048E-01
     -8.152  0.7553E-02  0.1140E-01
     -8.031  0.6317E-02  0.1217E-01
     -7.909  0.8634E-02  0.1323E-01
     -7.787  0.5685E-02  0.1392E-01
     -7.665  0.9493E-02  0.1507E-01
     -7.544  0.1045E-01  0.1635E-01
     -7.422  0.5443E-02  0.1701E-01
     -7.300  0.8198E-02  0.1801E-01
     -7.178  0.7308E-02  0.1890E-01
     -7.056  0.1240E-01  0.2041E-01
     -6.935  0.8725E-02  0.2147E-01
     -6.813  0.9430E-02  0.2262E-01
     -6.691  0.7495E-02  0.2353E-01
     -6.569  0.1075E-01  0.2484E-01
     -6.447  0.8738E-02  0.2591E-01
     -6.326  0.1087E-01  0.2723E-01
     -6.204  0.1002E-01  0.2845E-01
     -6.082  0.1106E-01  0.2980E-01
     -5.960  0.1080E-01  0.3111E-01
     -5.838  0.1159E-01  0.3253E-01
     -5.717  0.1277E-01  0.3408E-01
     -5.595  0.6706E-02  0.3490E-01
     -5.473  0.1015E-01  0.3613E-01
     -5.351  0.1668E-01  0.3817E-01
     -5.229  0.1298E-01  0.3975E-01
     -5.108  0.1202E-01  0.4121E-01
     -4.986  0.1447E-01  0.4297E-01
     -4.864  0.1111E-01  0.4433E-01
     -4.742  0.1454E-01  0.4610E-01
     -4.620  0.1589E-01  0.4803E-01
     -4.499  0.1598E-01  0.4998E-01
     -4.377  0.1395E-01  0.5168E-01
     -4.255  0.1394E-01  0.5337E-01
     -4.133  0.1321E-01  0.5498E-01
     -4.011  0.2015E-01  0.5744E-01
     -3.890  0.9003E-02  0.5853E-01
     -3.768  0.1233E-01  0.6004E-01
     -3.646  0.9789E-02  0.6123E-01
     -3.524  0.1041E-01  0.6250E-01
     -3.402  0.1668E-01  0.6453E-01
     -3.281  0.1387E-01  0.6622E-01
     -3.159  0.6335E-02  0.6699E-01
     -3.037  0.1189E-01  0.6844E-01
     -2.915  0.1100E-01  0.6978E-01
     -2.793  0.1217E-01  0.7126E-01
     -2.672  0.8719E-02  0.7232E-01
     -2.550  0.5481E-02  0.7299E-01
     -2.428  0.7127E-02  0.7386E-01
     -2.306  0.1025E-01  0.7511E-01
     -2.184  0.1303E-01  0.7669E-01
     -2.063  0.1248E-01  0.7821E-01
     -1.941  0.1464E-01  0.8000E-01
     -1.819  0.1197E-01  0.8145E-01
     -1.697  0.5946E-02  0.8218E-01
     -1.575  0.7837E-02  0.8313E-01
     -1.454  0.1181E-01  0.8457E-01
     -1.332  0.8297E-02  0.8558E-01
     -1.210  0.9504E-02  0.8674E-01
     -1.088  0.1756E-01  0.8888E-01
     -0.966  0.1755E-01  0.9102E-01
     -0.845  0.1713E-01  0.9310E-01
     -0.723  0.2487E-01  0.9613E-01
     -0.601  0.2037E-01  0.9861E-01
     -0.479  0.2368E-01  0.1015E+00
     -0.358  0.1259E-01  0.1030E+00
     -0.236  0.2187E-01  0.1057E+00
     -0.114  0.2199E-01  0.1084E+00
      0.008  0.2748E-01  0.1117E+00
      0.130  0.1459E-01  0.1135E+00
      0.251  0.1476E-01  0.1153E+00
      0.373  0.8218E-02  0.1163E+00
      0.495  0.1109E-01  0.1176E+00
      0.617  0.1482E-01  0.1195E+00
      0.739  0.9650E-02  0.1206E+00
      0.860  0.1270E-01  0.1222E+00
      0.982  0.1419E-01  0.1239E+00
      1.104  0.1625E-01  0.1259E+00
      1.226  0.7741E-02  0.1268E+00
      1.348  0.8558E-02  0.1279E+00
      1.469  0.1363E-01  0.1295E+00
      1.591  0.1106E-01  0.1309E+00
      1.713  0.9543E-02  0.1320E+00
      1.835  0.1563E-01  0.1339E+00
      1.957  0.1494E-01  0.1358E+00
      2.078  0.2445E-01  0.1387E+00
      2.200  0.1554E-01  0.1406E+00
      2.322  0.2443E-01  0.1436E+00
      2.444  0.1964E-01  0.1460E+00
      2.566  0.2692E-01  0.1493E+00
      2.687  0.1768E-01  0.1514E+00
      2.809  0.1685E-01  0.1535E+00
      2.931  0.1383E-01  0.1552E+00
      3.053  0.1930E-01  0.1575E+00
      3.175  0.3058E-01  0.1612E+00
      3.296  0.3087E-01  0.1650E+00
      3.418  0.1051E-01  0.1663E+00
      3.540  0.1811E-01  0.1685E+00
      3.662  0.2265E-01  0.1712E+00
      3.784  0.2424E-01  0.1742E+00
      3.905  0.2730E-01  0.1775E+00
      4.027  0.2299E-01  0.1803E+00
      4.149  0.2415E-01  0.1833E+00
      4.271  0.1697E-01  0.1853E+00
      4.393  0.2990E-01  0.1890E+00
      4.514  0.3594E-01  0.1933E+00
      4.636  0.3060E-01  0.1971E+00
      4.758  0.2862E-01  0.2006E+00
      4.880  0.2985E-01  0.2042E+00
      5.002  0.2667E-01  0.2074E+00
      5.123  0.2808E-01  0.2109E+00
      5.245  0.4266E-01  0.2161E+00
      5.367  0.4089E-01  0.2210E+00
      5.489  0.2104E-01  0.2236E+00
      5.611  0.1732E-01  0.2257E+00
      5.732  0.3161E-01  0.2296E+00
      5.854  0.3382E-01  0.2337E+00
      5.976  0.4062E-01  0.2386E+00
      6.098  0.2223E-01  0.2413E+00
      6.220  0.2344E-01  0.2442E+00
      6.341  0.3213E-01  0.2481E+00
      6.463  0.2701E-01  0.2514E+00
      6.585  0.2607E-01  0.2546E+00
      6.707  0.3292E-01  0.2586E+00
      6.829  0.2548E-01  0.2617E+00
      6.950  0.2117E-01  0.2643E+00
      7.072  0.3021E-01  0.2679E+00
      7.194  0.3536E-01  0.2723E+00
      7.316  0.2208E-01  0.2749E+00
      7.437  0.2043E-01  0.2774E+00
      7.559  0.2798E-01  0.2808E+00
      7.681  0.1897E-01  0.2831E+00
      7.803  0.3852E-01  0.2878E+00
      7.925  0.2829E-01  0.2913E+00
      8.046  0.1540E-01  0.2932E+00
      8.168  0.1636E-01  0.2952E+00
      8.290  0.2584E-01  0.2983E+00
      8.412  0.1979E-01  0.3007E+00
      8.534  0.2016E-01  0.3032E+00
      8.655  0.1048E-01  0.3044E+00
      8.777  0.7553E-02  0.3054E+00
      8.899  0.1370E-01  0.3070E+00
      9.021  0.1702E-01  0.3091E+00
      9.143  0.1210E-01  0.3106E+00
      9.264  0.7749E-02  0.3115E+00
      9.386  0.8114E-02  0.3125E+00
      9.508  0.6034E-02  0.3132E+00
      9.630  0.1224E-01  0.3147E+00
      9.752  0.8200E-02  0.3157E+00
      9.873  0.4297E-02  0.3163E+00
      9.995  0.6279E-02  0.3170E+00
     10.117  0.4245E-02  0.3175E+00
     10.239  0.6491E-02  0.3183E+00
     10.361  0.3317E-02  0.3187E+00
     10.482  0.5092E-02  0.3194E+00
     10.604  0.1367E-02  0.3195E+00
     10.726  0.2843E-02  0.3199E+00
     10.848  0.1071E-02  0.3200E+00
     10.970  0.4188E-04  0.3200E+00
     11.091  0.1452E-09  0.3200E+00
     11.213  0.0000E+00  0.3200E+00
     11.335  0.0000E+00  0.3200E+00
     11.457  0.0000E+00  0.3200E+00
     11.579  0.0000E+00  0.3200E+00
     11.700  0.0000E+00  0.3200E+00
     11.822  0.0000E+00  0.3200E+00
     11.944  0.0000E+00  0.3200E+00
     12.066  0.0000E+00  0.3200E+00
     12.188  0.0000E+00  0.3200E+00
     12.309  0.0000E+00  0.3200E+00
     12.431  0.0000E+00  0.3200E+00
     12.553  0.0000E+00  0.3200E+00
     12.675  0.0000E+00  0.3200E+00
     12.797  0.0000E+00  0.3200E+00
     12.918  0.0000E+00  0.3200E+00
     13.040  0.0000E+00  0.3200E+00
     13.162  0.0000E+00  0.3200E+00
     13.284  0.0000E+00  0.3200E+00
     13.406  0.0000E+00  0.3200E+00
     13.527  0.0000E+00  0.3200E+00
     13.649  0.0000E+00  0.3200E+00
     13.771  0.0000E+00  0.3200E+00
     13.893  0.0000E+00  0.3200E+00
     14.015  0.0000E+00  0.3200E+00
     14.136  0.0000E+00  0.3200E+00
     14.258  0.0000E+00  0.3200E+00
     14.380  0.0000E+00  0.3200E+00
     14.502  0.0000E+00  0.3200E+00
     14.623  0.0000E+00  0.3200E+00
     14.745  0.0000E+00  0.3200E+00
     14.867  0.3046E-11  0.3200E+00
     14.989  0.1323E-04  0.3200E+00
     15.111  0.2597E-02  0.3203E+00
     15.232  0.3211E-02  0.3207E+00
     15.354  0.2644E-02  0.3210E+00
     15.476  0.5327E-02  0.3217E+00
     15.598  0.9567E-02  0.3228E+00
     15.720  0.1009E-01  0.3241E+00
     15.841  0.7034E-02  0.3249E+00
     15.963  0.7135E-02  0.3258E+00
     16.085  0.8798E-02  0.3269E+00
     16.207  0.1924E-01  0.3292E+00
     16.329  0.1695E-01  0.3313E+00
     16.450  0.1728E-01  0.3334E+00
     16.572  0.1532E-01  0.3352E+00
     16.694  0.1423E-01  0.3370E+00
     16.816  0.1763E-01  0.3391E+00
     16.938  0.1479E-01  0.3409E+00
     17.059  0.1977E-01  0.3433E+00
     17.181  0.2887E-01  0.3469E+00
     17.303  0.2357E-01  0.3497E+00
     17.425  0.2058E-01  0.3522E+00
     17.547  0.1526E-01  0.3541E+00
     17.668  0.2185E-01  0.3568E+00
     17.790  0.3058E-01  0.3605E+00
     17.912  0.2437E-01  0.3634E+00
     18.034  0.2255E-01  0.3662E+00
     18.156  0.1820E-01  0.3684E+00
     18.277  0.3046E-01  0.3721E+00
     18.399  0.3293E-01  0.3761E+00
     18.521  0.3455E-01  0.3803E+00
     18.643  0.3840E-01  0.3850E+00
     18.765  0.3353E-01  0.3891E+00
     18.886  0.3206E-01  0.3930E+00
     19.008  0.3263E-01  0.3970E+00
     19.130  0.3699E-01  0.4015E+00
     19.252  0.3847E-01  0.4062E+00
     19.374  0.3990E-01  0.4110E+00
     19.495  0.4802E-01  0.4169E+00
     19.617  0.5829E-01  0.4240E+00
     19.739  0.3194E-01  0.4279E+00
     19.861  0.2980E-01  0.4315E+00
     19.983  0.3605E-01  0.4359E+00
     20.104  0.2339E-01  0.4387E+00
     20.226  0.2460E-01  0.4417E+00
     20.348  0.2021E-01  0.4442E+00
     20.470  0.3081E-01  0.4479E+00
     20.592  0.4105E-01  0.4529E+00
     20.713  0.2782E-01  0.4563E+00
     20.835  0.2960E-01  0.4599E+00
     20.957  0.2262E-01  0.4627E+00
     21.079  0.2591E-01  0.4658E+00
     21.201  0.2203E-01  0.4685E+00
     21.322  0.1183E-01  0.4700E+00
     21.444  0.1168E-01  0.4714E+00
     21.566  0.2236E-01  0.4741E+00
     21.688  0.1169E-01  0.4755E+00
     21.809  0.1576E-01  0.4775E+00
     21.931  0.7956E-02  0.4784E+00
     22.053  0.5407E-02  0.4791E+00
     22.175  0.3725E-02  0.4795E+00
     22.297  0.6152E-03  0.4796E+00
     22.418  0.2660E-03  0.4797E+00
     22.540  0.8665E-04  0.4797E+00
     22.662  0.1452E-02  0.4798E+00
     22.784  0.1321E-02  0.4800E+00
     22.906  0.1369E-04  0.4800E+00
     23.027  0.7254E-11  0.4800E+00
     23.149  0.0000E+00  0.4800E+00
     23.271  0.0000E+00  0.4800E+00
     23.393  0.0000E+00  0.4800E+00
     23.515  0.0000E+00  0.4800E+00
     23.636  0.0000E+00  0.4800E+00
     23.758  0.0000E+00  0.4800E+00
     23.880  0.0000E+00  0.4800E+00
     24.002  0.0000E+00  0.4800E+00
     24.124  0.0000E+00  0.4800E+00
     24.245  0.0000E+00  0.4800E+00
     24.367  0.0000E+00  0.4800E+00
