Automatically generated mesh
     280
Reciprocal lattice
    0.03571428571429    0.03571428571429    0.03571428571429             2
    0.10714285714286    0.03571428571429    0.03571428571429             6
    0.17857142857143    0.03571428571429    0.03571428571429             6
    0.25000000000000    0.03571428571429    0.03571428571429             6
    0.32142857142857    0.03571428571429    0.03571428571429             6
    0.39285714285714    0.03571428571429    0.03571428571429             6
    0.46428571428571    0.03571428571429    0.03571428571429             6
   -0.46428571428571    0.03571428571429    0.03571428571429             6
   -0.39285714285714    0.03571428571429    0.03571428571429             6
   -0.32142857142857    0.03571428571429    0.03571428571429             6
   -0.25000000000000    0.03571428571429    0.03571428571429             6
   -0.17857142857143    0.03571428571429    0.03571428571429             6
   -0.10714285714286    0.03571428571429    0.03571428571429             6
   -0.03571428571429    0.03571428571429    0.03571428571429             6
    0.10714285714286    0.10714285714286    0.03571428571429             6
    0.17857142857143    0.10714285714286    0.03571428571429            12
    0.25000000000000    0.10714285714286    0.03571428571429            12
    0.32142857142857    0.10714285714286    0.03571428571429            12
    0.39285714285714    0.10714285714286    0.03571428571429            12
    0.46428571428571    0.10714285714286    0.03571428571429            12
   -0.46428571428571    0.10714285714286    0.03571428571429            12
   -0.39285714285714    0.10714285714286    0.03571428571429            12
   -0.32142857142857    0.10714285714286    0.03571428571429            12
   -0.25000000000000    0.10714285714286    0.03571428571429            12
   -0.17857142857143    0.10714285714286    0.03571428571429            12
   -0.10714285714286    0.10714285714286    0.03571428571429            12
   -0.03571428571429    0.10714285714286    0.03571428571429            12
    0.17857142857143    0.17857142857143    0.03571428571429             6
    0.25000000000000    0.17857142857143    0.03571428571429            12
    0.32142857142857    0.17857142857143    0.03571428571429            12
    0.39285714285714    0.17857142857143    0.03571428571429            12
    0.46428571428571    0.17857142857143    0.03571428571429            12
   -0.46428571428571    0.17857142857143    0.03571428571429            12
   -0.39285714285714    0.17857142857143    0.03571428571429            12
   -0.32142857142857    0.17857142857143    0.03571428571429            12
   -0.25000000000000    0.17857142857143    0.03571428571429            12
   -0.17857142857143    0.17857142857143    0.03571428571429            12
   -0.10714285714286    0.17857142857143    0.03571428571429            12
   -0.03571428571429    0.17857142857143    0.03571428571429            12
    0.25000000000000    0.25000000000000    0.03571428571429             6
    0.32142857142857    0.25000000000000    0.03571428571429            12
    0.39285714285714    0.25000000000000    0.03571428571429            12
    0.46428571428571    0.25000000000000    0.03571428571429            12
   -0.46428571428571    0.25000000000000    0.03571428571429            12
   -0.39285714285714    0.25000000000000    0.03571428571429            12
   -0.32142857142857    0.25000000000000    0.03571428571429            12
   -0.25000000000000    0.25000000000000    0.03571428571429            12
   -0.17857142857143    0.25000000000000    0.03571428571429            12
   -0.10714285714286    0.25000000000000    0.03571428571429            12
   -0.03571428571429    0.25000000000000    0.03571428571429            12
    0.32142857142857    0.32142857142857    0.03571428571429             6
    0.39285714285714    0.32142857142857    0.03571428571429            12
    0.46428571428571    0.32142857142857    0.03571428571429            12
   -0.46428571428571    0.32142857142857    0.03571428571429            12
   -0.39285714285714    0.32142857142857    0.03571428571429            12
   -0.32142857142857    0.32142857142857    0.03571428571429            12
   -0.25000000000000    0.32142857142857    0.03571428571429            12
   -0.17857142857143    0.32142857142857    0.03571428571429            12
   -0.10714285714286    0.32142857142857    0.03571428571429            12
   -0.03571428571429    0.32142857142857    0.03571428571429            12
    0.39285714285714    0.39285714285714    0.03571428571429             6
    0.46428571428571    0.39285714285714    0.03571428571429            12
   -0.46428571428571    0.39285714285714    0.03571428571429            12
   -0.39285714285714    0.39285714285714    0.03571428571429            12
   -0.32142857142857    0.39285714285714    0.03571428571429            12
   -0.25000000000000    0.39285714285714    0.03571428571429            12
   -0.17857142857143    0.39285714285714    0.03571428571429            12
   -0.10714285714286    0.39285714285714    0.03571428571429            12
   -0.03571428571429    0.39285714285714    0.03571428571429            12
    0.46428571428571    0.46428571428571    0.03571428571429             6
   -0.46428571428571    0.46428571428571    0.03571428571429            12
   -0.39285714285714    0.46428571428571    0.03571428571429            12
   -0.32142857142857    0.46428571428571    0.03571428571429            12
   -0.25000000000000    0.46428571428571    0.03571428571429            12
   -0.17857142857143    0.46428571428571    0.03571428571429            12
   -0.10714285714286    0.46428571428571    0.03571428571429            12
   -0.03571428571429    0.46428571428571    0.03571428571429            12
   -0.46428571428571   -0.46428571428571    0.03571428571429             6
   -0.39285714285714   -0.46428571428571    0.03571428571429            12
   -0.32142857142857   -0.46428571428571    0.03571428571429            12
   -0.25000000000000   -0.46428571428571    0.03571428571429            12
   -0.17857142857143   -0.46428571428571    0.03571428571429            12
   -0.10714285714286   -0.46428571428571    0.03571428571429            12
   -0.39285714285714   -0.39285714285714    0.03571428571429             6
   -0.32142857142857   -0.39285714285714    0.03571428571429            12
   -0.25000000000000   -0.39285714285714    0.03571428571429            12
   -0.17857142857143   -0.39285714285714    0.03571428571429            12
   -0.10714285714286   -0.39285714285714    0.03571428571429            12
   -0.32142857142857   -0.32142857142857    0.03571428571429             6
   -0.25000000000000   -0.32142857142857    0.03571428571429            12
   -0.17857142857143   -0.32142857142857    0.03571428571429            12
   -0.10714285714286   -0.32142857142857    0.03571428571429            12
   -0.25000000000000   -0.25000000000000    0.03571428571429             6
   -0.17857142857143   -0.25000000000000    0.03571428571429            12
   -0.10714285714286   -0.25000000000000    0.03571428571429            12
   -0.17857142857143   -0.17857142857143    0.03571428571429             6
   -0.10714285714286   -0.17857142857143    0.03571428571429            12
   -0.10714285714286   -0.10714285714286    0.03571428571429             6
    0.10714285714286    0.10714285714286    0.10714285714286             2
    0.17857142857143    0.10714285714286    0.10714285714286             6
    0.25000000000000    0.10714285714286    0.10714285714286             6
    0.32142857142857    0.10714285714286    0.10714285714286             6
    0.39285714285714    0.10714285714286    0.10714285714286             6
    0.46428571428571    0.10714285714286    0.10714285714286             6
   -0.46428571428571    0.10714285714286    0.10714285714286             6
   -0.39285714285714    0.10714285714286    0.10714285714286             6
   -0.32142857142857    0.10714285714286    0.10714285714286             6
   -0.25000000000000    0.10714285714286    0.10714285714286             6
   -0.17857142857143    0.10714285714286    0.10714285714286             6
   -0.10714285714286    0.10714285714286    0.10714285714286             6
    0.17857142857143    0.17857142857143    0.10714285714286             6
    0.25000000000000    0.17857142857143    0.10714285714286            12
    0.32142857142857    0.17857142857143    0.10714285714286            12
    0.39285714285714    0.17857142857143    0.10714285714286            12
    0.46428571428571    0.17857142857143    0.10714285714286            12
   -0.46428571428571    0.17857142857143    0.10714285714286            12
   -0.39285714285714    0.17857142857143    0.10714285714286            12
   -0.32142857142857    0.17857142857143    0.10714285714286            12
   -0.25000000000000    0.17857142857143    0.10714285714286            12
   -0.17857142857143    0.17857142857143    0.10714285714286            12
   -0.10714285714286    0.17857142857143    0.10714285714286            12
    0.25000000000000    0.25000000000000    0.10714285714286             6
    0.32142857142857    0.25000000000000    0.10714285714286            12
    0.39285714285714    0.25000000000000    0.10714285714286            12
    0.46428571428571    0.25000000000000    0.10714285714286            12
   -0.46428571428571    0.25000000000000    0.10714285714286            12
   -0.39285714285714    0.25000000000000    0.10714285714286            12
   -0.32142857142857    0.25000000000000    0.10714285714286            12
   -0.25000000000000    0.25000000000000    0.10714285714286            12
   -0.17857142857143    0.25000000000000    0.10714285714286            12
   -0.10714285714286    0.25000000000000    0.10714285714286            12
    0.32142857142857    0.32142857142857    0.10714285714286             6
    0.39285714285714    0.32142857142857    0.10714285714286            12
    0.46428571428571    0.32142857142857    0.10714285714286            12
   -0.46428571428571    0.32142857142857    0.10714285714286            12
   -0.39285714285714    0.32142857142857    0.10714285714286            12
   -0.32142857142857    0.32142857142857    0.10714285714286            12
   -0.25000000000000    0.32142857142857    0.10714285714286            12
   -0.17857142857143    0.32142857142857    0.10714285714286            12
   -0.10714285714286    0.32142857142857    0.10714285714286            12
    0.39285714285714    0.39285714285714    0.10714285714286             6
    0.46428571428571    0.39285714285714    0.10714285714286            12
   -0.46428571428571    0.39285714285714    0.10714285714286            12
   -0.39285714285714    0.39285714285714    0.10714285714286            12
   -0.32142857142857    0.39285714285714    0.10714285714286            12
   -0.25000000000000    0.39285714285714    0.10714285714286            12
   -0.17857142857143    0.39285714285714    0.10714285714286            12
   -0.10714285714286    0.39285714285714    0.10714285714286            12
    0.46428571428571    0.46428571428571    0.10714285714286             6
   -0.46428571428571    0.46428571428571    0.10714285714286            12
   -0.39285714285714    0.46428571428571    0.10714285714286            12
   -0.32142857142857    0.46428571428571    0.10714285714286            12
   -0.25000000000000    0.46428571428571    0.10714285714286            12
   -0.17857142857143    0.46428571428571    0.10714285714286            12
   -0.10714285714286    0.46428571428571    0.10714285714286            12
   -0.46428571428571   -0.46428571428571    0.10714285714286             6
   -0.39285714285714   -0.46428571428571    0.10714285714286            12
   -0.32142857142857   -0.46428571428571    0.10714285714286            12
   -0.25000000000000   -0.46428571428571    0.10714285714286            12
   -0.17857142857143   -0.46428571428571    0.10714285714286            12
   -0.39285714285714   -0.39285714285714    0.10714285714286             6
   -0.32142857142857   -0.39285714285714    0.10714285714286            12
   -0.25000000000000   -0.39285714285714    0.10714285714286            12
   -0.17857142857143   -0.39285714285714    0.10714285714286            12
   -0.32142857142857   -0.32142857142857    0.10714285714286             6
   -0.25000000000000   -0.32142857142857    0.10714285714286            12
   -0.17857142857143   -0.32142857142857    0.10714285714286            12
   -0.25000000000000   -0.25000000000000    0.10714285714286             6
   -0.17857142857143   -0.25000000000000    0.10714285714286            12
   -0.17857142857143   -0.17857142857143    0.10714285714286             6
    0.17857142857143    0.17857142857143    0.17857142857143             2
    0.25000000000000    0.17857142857143    0.17857142857143             6
    0.32142857142857    0.17857142857143    0.17857142857143             6
    0.39285714285714    0.17857142857143    0.17857142857143             6
    0.46428571428571    0.17857142857143    0.17857142857143             6
   -0.46428571428571    0.17857142857143    0.17857142857143             6
   -0.39285714285714    0.17857142857143    0.17857142857143             6
   -0.32142857142857    0.17857142857143    0.17857142857143             6
   -0.25000000000000    0.17857142857143    0.17857142857143             6
   -0.17857142857143    0.17857142857143    0.17857142857143             6
    0.25000000000000    0.25000000000000    0.17857142857143             6
    0.32142857142857    0.25000000000000    0.17857142857143            12
    0.39285714285714    0.25000000000000    0.17857142857143            12
    0.46428571428571    0.25000000000000    0.17857142857143            12
   -0.46428571428571    0.25000000000000    0.17857142857143            12
   -0.39285714285714    0.25000000000000    0.17857142857143            12
   -0.32142857142857    0.25000000000000    0.17857142857143            12
   -0.25000000000000    0.25000000000000    0.17857142857143            12
   -0.17857142857143    0.25000000000000    0.17857142857143            12
    0.32142857142857    0.32142857142857    0.17857142857143             6
    0.39285714285714    0.32142857142857    0.17857142857143            12
    0.46428571428571    0.32142857142857    0.17857142857143            12
   -0.46428571428571    0.32142857142857    0.17857142857143            12
   -0.39285714285714    0.32142857142857    0.17857142857143            12
   -0.32142857142857    0.32142857142857    0.17857142857143            12
   -0.25000000000000    0.32142857142857    0.17857142857143            12
   -0.17857142857143    0.32142857142857    0.17857142857143            12
    0.39285714285714    0.39285714285714    0.17857142857143             6
    0.46428571428571    0.39285714285714    0.17857142857143            12
   -0.46428571428571    0.39285714285714    0.17857142857143            12
   -0.39285714285714    0.39285714285714    0.17857142857143            12
   -0.32142857142857    0.39285714285714    0.17857142857143            12
   -0.25000000000000    0.39285714285714    0.17857142857143            12
   -0.17857142857143    0.39285714285714    0.17857142857143            12
    0.46428571428571    0.46428571428571    0.17857142857143             6
   -0.46428571428571    0.46428571428571    0.17857142857143            12
   -0.39285714285714    0.46428571428571    0.17857142857143            12
   -0.32142857142857    0.46428571428571    0.17857142857143            12
   -0.25000000000000    0.46428571428571    0.17857142857143            12
   -0.17857142857143    0.46428571428571    0.17857142857143            12
   -0.46428571428571   -0.46428571428571    0.17857142857143             6
   -0.39285714285714   -0.46428571428571    0.17857142857143            12
   -0.32142857142857   -0.46428571428571    0.17857142857143            12
   -0.25000000000000   -0.46428571428571    0.17857142857143            12
   -0.39285714285714   -0.39285714285714    0.17857142857143             6
   -0.32142857142857   -0.39285714285714    0.17857142857143            12
   -0.25000000000000   -0.39285714285714    0.17857142857143            12
   -0.32142857142857   -0.32142857142857    0.17857142857143             6
   -0.25000000000000   -0.32142857142857    0.17857142857143            12
   -0.25000000000000   -0.25000000000000    0.17857142857143             6
    0.25000000000000    0.25000000000000    0.25000000000000             2
    0.32142857142857    0.25000000000000    0.25000000000000             6
    0.39285714285714    0.25000000000000    0.25000000000000             6
    0.46428571428571    0.25000000000000    0.25000000000000             6
   -0.46428571428571    0.25000000000000    0.25000000000000             6
   -0.39285714285714    0.25000000000000    0.25000000000000             6
   -0.32142857142857    0.25000000000000    0.25000000000000             6
   -0.25000000000000    0.25000000000000    0.25000000000000             6
    0.32142857142857    0.32142857142857    0.25000000000000             6
    0.39285714285714    0.32142857142857    0.25000000000000            12
    0.46428571428571    0.32142857142857    0.25000000000000            12
   -0.46428571428571    0.32142857142857    0.25000000000000            12
   -0.39285714285714    0.32142857142857    0.25000000000000            12
   -0.32142857142857    0.32142857142857    0.25000000000000            12
   -0.25000000000000    0.32142857142857    0.25000000000000            12
    0.39285714285714    0.39285714285714    0.25000000000000             6
    0.46428571428571    0.39285714285714    0.25000000000000            12
   -0.46428571428571    0.39285714285714    0.25000000000000            12
   -0.39285714285714    0.39285714285714    0.25000000000000            12
   -0.32142857142857    0.39285714285714    0.25000000000000            12
   -0.25000000000000    0.39285714285714    0.25000000000000            12
    0.46428571428571    0.46428571428571    0.25000000000000             6
   -0.46428571428571    0.46428571428571    0.25000000000000            12
   -0.39285714285714    0.46428571428571    0.25000000000000            12
   -0.32142857142857    0.46428571428571    0.25000000000000            12
   -0.25000000000000    0.46428571428571    0.25000000000000            12
   -0.46428571428571   -0.46428571428571    0.25000000000000             6
   -0.39285714285714   -0.46428571428571    0.25000000000000            12
   -0.32142857142857   -0.46428571428571    0.25000000000000            12
   -0.39285714285714   -0.39285714285714    0.25000000000000             6
   -0.32142857142857   -0.39285714285714    0.25000000000000            12
   -0.32142857142857   -0.32142857142857    0.25000000000000             6
    0.32142857142857    0.32142857142857    0.32142857142857             2
    0.39285714285714    0.32142857142857    0.32142857142857             6
    0.46428571428571    0.32142857142857    0.32142857142857             6
   -0.46428571428571    0.32142857142857    0.32142857142857             6
   -0.39285714285714    0.32142857142857    0.32142857142857             6
   -0.32142857142857    0.32142857142857    0.32142857142857             6
    0.39285714285714    0.39285714285714    0.32142857142857             6
    0.46428571428571    0.39285714285714    0.32142857142857            12
   -0.46428571428571    0.39285714285714    0.32142857142857            12
   -0.39285714285714    0.39285714285714    0.32142857142857            12
   -0.32142857142857    0.39285714285714    0.32142857142857            12
    0.46428571428571    0.46428571428571    0.32142857142857             6
   -0.46428571428571    0.46428571428571    0.32142857142857            12
   -0.39285714285714    0.46428571428571    0.32142857142857            12
   -0.32142857142857    0.46428571428571    0.32142857142857            12
   -0.46428571428571   -0.46428571428571    0.32142857142857             6
   -0.39285714285714   -0.46428571428571    0.32142857142857            12
   -0.39285714285714   -0.39285714285714    0.32142857142857             6
    0.39285714285714    0.39285714285714    0.39285714285714             2
    0.46428571428571    0.39285714285714    0.39285714285714             6
   -0.46428571428571    0.39285714285714    0.39285714285714             6
   -0.39285714285714    0.39285714285714    0.39285714285714             6
    0.46428571428571    0.46428571428571    0.39285714285714             6
   -0.46428571428571    0.46428571428571    0.39285714285714            12
   -0.39285714285714    0.46428571428571    0.39285714285714            12
   -0.46428571428571   -0.46428571428571    0.39285714285714             6
    0.46428571428571    0.46428571428571    0.46428571428571             2
   -0.46428571428571    0.46428571428571    0.46428571428571             6
