 vasp.5.4.4.18Apr17-6-g9f103f2a35 (build Jan 14 2019 14:48:31) complex          
  
 executed on             LinuxIFC date 2019.08.26  21:07:08
 running on   24 total cores
 distrk:  each k-point on   24 cores,    1 groups
 distr:  one band on NCORES_PER_BAND=   1 cores,   24 groups


--------------------------------------------------------------------------------------------------------


 INCAR:
 POTCAR:    PAW_PBE C_h 06Feb2004                 

 ----------------------------------------------------------------------------- 
|                                                                             |
|           W    W    AA    RRRRR   N    N  II  N    N   GGGG   !!!           |
|           W    W   A  A   R    R  NN   N  II  NN   N  G    G  !!!           |
|           W    W  A    A  R    R  N N  N  II  N N  N  G       !!!           |
|           W WW W  AAAAAA  RRRRR   N  N N  II  N  N N  G  GGG   !            |
|           WW  WW  A    A  R   R   N   NN  II  N   NN  G    G                |
|           W    W  A    A  R    R  N    N  II  N    N   GGGG   !!!           |
|                                                                             |
|      For optimal performance we recommend to set                            |
|        NCORE= 4 - approx SQRT( number of cores)                             |
|      NCORE specifies how many cores store one orbital (NPAR=cpu/NCORE).     |
|      This setting can  greatly improve the performance of VASP for DFT.     |
|      The default,   NCORE=1            might be grossly inefficient         |
|      on modern multi-core architectures or massively parallel machines.     |
|      Do your own testing !!!!                                               |
|      Unfortunately you need to use the default for GW and RPA calculations. |
|      (for HF NCORE is supported but not extensively tested yet)             |
|                                                                             |
 ----------------------------------------------------------------------------- 

 POTCAR:    PAW_PBE C_h 06Feb2004                 
   VRHFIN =C: s2p2                                                              
   LEXCH  = PE                                                                  
   EATOM  =   147.1560 eV,   10.8157 Ry                                         
                                                                                
   TITEL  = PAW_PBE C_h 06Feb2004                                               
   LULTRA =        F    use ultrasoft PP ?                                      
   IUNSCR =        1    unscreen: 0-lin 1-nonlin 2-no                           
   RPACOR =    0.800    partial core radius                                     
   POMASS =   12.011; ZVAL   =    4.000    mass and valenz                      
   RCORE  =    1.100    outmost cutoff radius                                   
   RWIGS  =    1.630; RWIGS  =    0.863    wigner-seitz radius (au A)           
   ENMAX  =  700.000; ENMIN  =  500.000 eV                                      
   ICORE  =        2    local potential                                         
   LCOR   =        T    correct aug charges                                     
   LPAW   =        T    paw PP                                                  
   EAUG   =  946.768                                                            
   DEXC   =    0.000                                                            
   RMAX   =    1.128    core radius for proj-oper                               
   RAUG   =    1.300    factor for augmentation sphere                          
   RDEP   =    1.162    radius for radial grids                                 
   RDEPT  =    1.088    core radius for aug-charge                              
                                                                                
   Atomic configuration                                                         
    4 entries                                                                   
     n  l   j            E        occ.                                          
     1  0  0.50      -273.3789   2.0000                                         
     2  0  0.50       -13.7508   2.0000                                         
     2  1  0.50        -5.2854   2.0000                                         
     3  2  1.50        -5.4423   0.0000                                         
   Description                                                                  
     l       E           TYP  RCUT    TYP  RCUT                                 
     0    -13.7508458     23  1.100                                             
     0     -8.2022199     23  1.100                                             
     1     -5.2854383     23  1.100                                             
     1      1.1560700     23  1.100                                             
     2     -5.4423304      7  1.100                                             
  local pseudopotential read in
  partial core-charges read in
  partial kinetic energy density read in
  atomic valenz-charges read in
  non local Contribution for L=           0  read in
    real space projection operators read in
  non local Contribution for L=           0  read in
    real space projection operators read in
  non local Contribution for L=           1  read in
    real space projection operators read in
  non local Contribution for L=           1  read in
    real space projection operators read in
    PAW grid and wavefunctions read in
 
   number of l-projection  operators is LMAX  =           4
   number of lm-projection operators is LMMAX =           8
 
  PAW_PBE C_h 06Feb2004                 :
 energy of atom  1       EATOM= -147.1560
 kinetic energy error for atom=    0.0044 (will be added to EATOM!!)
 
 
 POSCAR: C8                                      
  positions in direct lattice
  velocities in cartesian coordinates
 exchange correlation table for  LEXCH =        8
   RHO(1)=    0.500       N(1)  =     2000
   RHO(2)=  100.500       N(2)  =     4000

 VTST: version 3.1, (03/28/14)

 CHAIN: initializing optimizer
 
 OPT: Using VASP Conjugate-Gradient optimizer
 CHAIN: Read ICHAIN            0
 
 POSCAR: C8                                      
  positions in direct lattice
  velocities in cartesian coordinates
 


--------------------------------------------------------------------------------------------------------


 ion  position               nearest neighbor table
   1  0.250  0.250  0.250-   4 1.55   6 1.55   8 1.55   2 1.55
   2  0.000  0.000  0.000-   3 1.55   5 1.55   7 1.55   1 1.55
   3  0.250  0.750  0.750-   2 1.55   6 1.55   8 1.55   4 1.55
   4  0.000  0.500  0.500-   1 1.55   5 1.55   7 1.55   3 1.55
   5  0.750  0.250  0.750-   2 1.55   4 1.55   8 1.55   6 1.55
   6  0.500  0.000  0.500-   1 1.55   3 1.55   7 1.55   5 1.55
   7  0.750  0.750  0.250-   2 1.55   4 1.55   6 1.55   8 1.55
   8  0.500  0.500  0.000-   1 1.55   3 1.55   5 1.55   7 1.55
 
  LATTYP: Found a trigonal (rhomboedric) cell.
 ALAT       =     3.5736149976
 COS(alpha) =     0.0033360926
  
  Lattice vectors:
  
 A1 = (   3.5736050710,   0.0059560085,   0.0059560085)
 A2 = (   0.0059560085,   3.5736050710,   0.0059560085)
 A3 = (   0.0059560085,   0.0059560085,   3.5736050710)


Analysis of symmetry for initial positions (statically):
=====================================================================
 Subroutine PRICEL returns following result:
 
  LATTYP: Found a trigonal (rhomboedric) cell.
 ALAT       =     2.5311389205
 COS(alpha) =     0.5033250001
  
  Lattice vectors:
  
 A1 = (  -0.0059560085,  -1.7897805397,  -1.7897805397)
 A2 = (  -1.7897805397,  -1.7897805397,  -0.0059560085)
 A3 = (  -1.7897805397,  -0.0059560085,  -1.7897805397)
 
   4 primitive cells build up your supercell.
 

 Routine SETGRP: Setting up the symmetry group for a 
 trigonal (rhombohedral) supercell.


 Subroutine GETGRP returns: Found 12 space group operations
 (whereof  6 operations were pure point group operations)
 out of a pool of 12 trial point group operations.


The static configuration has the point symmetry C_3v.
 The point group associated with its full space group is D_3d.


Analysis of symmetry for dynamics (positions and initial velocities):
=====================================================================
 Subroutine PRICEL returns following result:
 
  LATTYP: Found a trigonal (rhomboedric) cell.
 ALAT       =     2.5311389205
 COS(alpha) =     0.5033250001
  
  Lattice vectors:
  
 A1 = (  -0.0059560085,  -1.7897805397,  -1.7897805397)
 A2 = (  -1.7897805397,  -1.7897805397,  -0.0059560085)
 A3 = (  -1.7897805397,  -0.0059560085,  -1.7897805397)
 
   4 primitive cells build up your supercell.
 

 Routine SETGRP: Setting up the symmetry group for a 
 trigonal (rhombohedral) supercell.


 Subroutine GETGRP returns: Found 12 space group operations
 (whereof  6 operations were pure point group operations)
 out of a pool of 12 trial point group operations.


The dynamic configuration has the point symmetry C_3v.
 The point group associated with its full space group is D_3d.


 Subroutine INISYM returns: Found 12 space group operations
 (whereof  6 operations are pure point group operations),
 and found     4 'primitive' translations

 
 
 KPOINTS: K-Mesh Generated with KP-Resolved Value 

Automatic generation of k-mesh.
Space group operators:
 irot       det(A)        alpha          n_x          n_y          n_z        tau_x        tau_y        tau_z
    1     1.000000     0.000000     1.000000     0.000000     0.000000     0.000000     0.000000     0.000000
    2    -1.000000   180.000000    -0.000000     0.707107    -0.707107     0.000000     0.000000     0.000000
    3     1.000000   120.000000    -0.577350    -0.577350    -0.577350     0.000000     0.000000     0.000000
    4    -1.000000   180.000000     0.707107    -0.707107    -0.000000     0.000000     0.000000     0.000000
    5     1.000000   120.000000     0.577350     0.577350     0.577350     0.000000     0.000000     0.000000
    6    -1.000000   180.000000     0.707107     0.000000    -0.707107     0.000000     0.000000     0.000000
    7    -1.000000     0.000000     1.000000     0.000000     0.000000    -0.750000    -0.750000    -0.750000
    8     1.000000   180.000000    -0.000000     0.707107    -0.707107    -0.750000    -0.750000    -0.750000
    9    -1.000000   120.000000    -0.577350    -0.577350    -0.577350    -0.750000    -0.750000    -0.750000
   10     1.000000   180.000000     0.707107    -0.707107    -0.000000    -0.750000    -0.750000    -0.750000
   11    -1.000000   120.000000     0.577350     0.577350     0.577350    -0.750000    -0.750000    -0.750000
   12     1.000000   180.000000     0.707107     0.000000    -0.707107    -0.750000    -0.750000    -0.750000
 
 Subroutine IBZKPT returns following result:
 ===========================================
 
 Found    280 irreducible k-points:
 
 Following reciprocal coordinates:
            Coordinates               Weight
  0.035714  0.035714  0.035714      2.000000
  0.107143  0.035714  0.035714      6.000000
  0.178571  0.035714  0.035714      6.000000
  0.250000  0.035714  0.035714      6.000000
  0.321429  0.035714  0.035714      6.000000
  0.392857  0.035714  0.035714      6.000000
  0.464286  0.035714  0.035714      6.000000
 -0.464286  0.035714  0.035714      6.000000
 -0.392857  0.035714  0.035714      6.000000
 -0.321429  0.035714  0.035714      6.000000
 -0.250000  0.035714  0.035714      6.000000
 -0.178571  0.035714  0.035714      6.000000
 -0.107143  0.035714  0.035714      6.000000
 -0.035714  0.035714  0.035714      6.000000
  0.107143  0.107143  0.035714      6.000000
  0.178571  0.107143  0.035714     12.000000
  0.250000  0.107143  0.035714     12.000000
  0.321429  0.107143  0.035714     12.000000
  0.392857  0.107143  0.035714     12.000000
  0.464286  0.107143  0.035714     12.000000
 -0.464286  0.107143  0.035714     12.000000
 -0.392857  0.107143  0.035714     12.000000
 -0.321429  0.107143  0.035714     12.000000
 -0.250000  0.107143  0.035714     12.000000
 -0.178571  0.107143  0.035714     12.000000
 -0.107143  0.107143  0.035714     12.000000
 -0.035714  0.107143  0.035714     12.000000
  0.178571  0.178571  0.035714      6.000000
  0.250000  0.178571  0.035714     12.000000
  0.321429  0.178571  0.035714     12.000000
  0.392857  0.178571  0.035714     12.000000
  0.464286  0.178571  0.035714     12.000000
 -0.464286  0.178571  0.035714     12.000000
 -0.392857  0.178571  0.035714     12.000000
 -0.321429  0.178571  0.035714     12.000000
 -0.250000  0.178571  0.035714     12.000000
 -0.178571  0.178571  0.035714     12.000000
 -0.107143  0.178571  0.035714     12.000000
 -0.035714  0.178571  0.035714     12.000000
  0.250000  0.250000  0.035714      6.000000
  0.321429  0.250000  0.035714     12.000000
  0.392857  0.250000  0.035714     12.000000
  0.464286  0.250000  0.035714     12.000000
 -0.464286  0.250000  0.035714     12.000000
 -0.392857  0.250000  0.035714     12.000000
 -0.321429  0.250000  0.035714     12.000000
 -0.250000  0.250000  0.035714     12.000000
 -0.178571  0.250000  0.035714     12.000000
 -0.107143  0.250000  0.035714     12.000000
 -0.035714  0.250000  0.035714     12.000000
  0.321429  0.321429  0.035714      6.000000
  0.392857  0.321429  0.035714     12.000000
  0.464286  0.321429  0.035714     12.000000
 -0.464286  0.321429  0.035714     12.000000
 -0.392857  0.321429  0.035714     12.000000
 -0.321429  0.321429  0.035714     12.000000
 -0.250000  0.321429  0.035714     12.000000
 -0.178571  0.321429  0.035714     12.000000
 -0.107143  0.321429  0.035714     12.000000
 -0.035714  0.321429  0.035714     12.000000
  0.392857  0.392857  0.035714      6.000000
  0.464286  0.392857  0.035714     12.000000
 -0.464286  0.392857  0.035714     12.000000
 -0.392857  0.392857  0.035714     12.000000
 -0.321429  0.392857  0.035714     12.000000
 -0.250000  0.392857  0.035714     12.000000
 -0.178571  0.392857  0.035714     12.000000
 -0.107143  0.392857  0.035714     12.000000
 -0.035714  0.392857  0.035714     12.000000
  0.464286  0.464286  0.035714      6.000000
 -0.464286  0.464286  0.035714     12.000000
 -0.392857  0.464286  0.035714     12.000000
 -0.321429  0.464286  0.035714     12.000000
 -0.250000  0.464286  0.035714     12.000000
 -0.178571  0.464286  0.035714     12.000000
 -0.107143  0.464286  0.035714     12.000000
 -0.035714  0.464286  0.035714     12.000000
 -0.464286 -0.464286  0.035714      6.000000
 -0.392857 -0.464286  0.035714     12.000000
 -0.321429 -0.464286  0.035714     12.000000
 -0.250000 -0.464286  0.035714     12.000000
 -0.178571 -0.464286  0.035714     12.000000
 -0.107143 -0.464286  0.035714     12.000000
 -0.392857 -0.392857  0.035714      6.000000
 -0.321429 -0.392857  0.035714     12.000000
 -0.250000 -0.392857  0.035714     12.000000
 -0.178571 -0.392857  0.035714     12.000000
 -0.107143 -0.392857  0.035714     12.000000
 -0.321429 -0.321429  0.035714      6.000000
 -0.250000 -0.321429  0.035714     12.000000
 -0.178571 -0.321429  0.035714     12.000000
 -0.107143 -0.321429  0.035714     12.000000
 -0.250000 -0.250000  0.035714      6.000000
 -0.178571 -0.250000  0.035714     12.000000
 -0.107143 -0.250000  0.035714     12.000000
 -0.178571 -0.178571  0.035714      6.000000
 -0.107143 -0.178571  0.035714     12.000000
 -0.107143 -0.107143  0.035714      6.000000
  0.107143  0.107143  0.107143      2.000000
  0.178571  0.107143  0.107143      6.000000
  0.250000  0.107143  0.107143      6.000000
  0.321429  0.107143  0.107143      6.000000
  0.392857  0.107143  0.107143      6.000000
  0.464286  0.107143  0.107143      6.000000
 -0.464286  0.107143  0.107143      6.000000
 -0.392857  0.107143  0.107143      6.000000
 -0.321429  0.107143  0.107143      6.000000
 -0.250000  0.107143  0.107143      6.000000
 -0.178571  0.107143  0.107143      6.000000
 -0.107143  0.107143  0.107143      6.000000
  0.178571  0.178571  0.107143      6.000000
  0.250000  0.178571  0.107143     12.000000
  0.321429  0.178571  0.107143     12.000000
  0.392857  0.178571  0.107143     12.000000
  0.464286  0.178571  0.107143     12.000000
 -0.464286  0.178571  0.107143     12.000000
 -0.392857  0.178571  0.107143     12.000000
 -0.321429  0.178571  0.107143     12.000000
 -0.250000  0.178571  0.107143     12.000000
 -0.178571  0.178571  0.107143     12.000000
 -0.107143  0.178571  0.107143     12.000000
  0.250000  0.250000  0.107143      6.000000
  0.321429  0.250000  0.107143     12.000000
  0.392857  0.250000  0.107143     12.000000
  0.464286  0.250000  0.107143     12.000000
 -0.464286  0.250000  0.107143     12.000000
 -0.392857  0.250000  0.107143     12.000000
 -0.321429  0.250000  0.107143     12.000000
 -0.250000  0.250000  0.107143     12.000000
 -0.178571  0.250000  0.107143     12.000000
 -0.107143  0.250000  0.107143     12.000000
  0.321429  0.321429  0.107143      6.000000
  0.392857  0.321429  0.107143     12.000000
  0.464286  0.321429  0.107143     12.000000
 -0.464286  0.321429  0.107143     12.000000
 -0.392857  0.321429  0.107143     12.000000
 -0.321429  0.321429  0.107143     12.000000
 -0.250000  0.321429  0.107143     12.000000
 -0.178571  0.321429  0.107143     12.000000
 -0.107143  0.321429  0.107143     12.000000
  0.392857  0.392857  0.107143      6.000000
  0.464286  0.392857  0.107143     12.000000
 -0.464286  0.392857  0.107143     12.000000
 -0.392857  0.392857  0.107143     12.000000
 -0.321429  0.392857  0.107143     12.000000
 -0.250000  0.392857  0.107143     12.000000
 -0.178571  0.392857  0.107143     12.000000
 -0.107143  0.392857  0.107143     12.000000
  0.464286  0.464286  0.107143      6.000000
 -0.464286  0.464286  0.107143     12.000000
 -0.392857  0.464286  0.107143     12.000000
 -0.321429  0.464286  0.107143     12.000000
 -0.250000  0.464286  0.107143     12.000000
 -0.178571  0.464286  0.107143     12.000000
 -0.107143  0.464286  0.107143     12.000000
 -0.464286 -0.464286  0.107143      6.000000
 -0.392857 -0.464286  0.107143     12.000000
 -0.321429 -0.464286  0.107143     12.000000
 -0.250000 -0.464286  0.107143     12.000000
 -0.178571 -0.464286  0.107143     12.000000
 -0.392857 -0.392857  0.107143      6.000000
 -0.321429 -0.392857  0.107143     12.000000
 -0.250000 -0.392857  0.107143     12.000000
 -0.178571 -0.392857  0.107143     12.000000
 -0.321429 -0.321429  0.107143      6.000000
 -0.250000 -0.321429  0.107143     12.000000
 -0.178571 -0.321429  0.107143     12.000000
 -0.250000 -0.250000  0.107143      6.000000
 -0.178571 -0.250000  0.107143     12.000000
 -0.178571 -0.178571  0.107143      6.000000
  0.178571  0.178571  0.178571      2.000000
  0.250000  0.178571  0.178571      6.000000
  0.321429  0.178571  0.178571      6.000000
  0.392857  0.178571  0.178571      6.000000
  0.464286  0.178571  0.178571      6.000000
 -0.464286  0.178571  0.178571      6.000000
 -0.392857  0.178571  0.178571      6.000000
 -0.321429  0.178571  0.178571      6.000000
 -0.250000  0.178571  0.178571      6.000000
 -0.178571  0.178571  0.178571      6.000000
  0.250000  0.250000  0.178571      6.000000
  0.321429  0.250000  0.178571     12.000000
  0.392857  0.250000  0.178571     12.000000
  0.464286  0.250000  0.178571     12.000000
 -0.464286  0.250000  0.178571     12.000000
 -0.392857  0.250000  0.178571     12.000000
 -0.321429  0.250000  0.178571     12.000000
 -0.250000  0.250000  0.178571     12.000000
 -0.178571  0.250000  0.178571     12.000000
  0.321429  0.321429  0.178571      6.000000
  0.392857  0.321429  0.178571     12.000000
  0.464286  0.321429  0.178571     12.000000
 -0.464286  0.321429  0.178571     12.000000
 -0.392857  0.321429  0.178571     12.000000
 -0.321429  0.321429  0.178571     12.000000
 -0.250000  0.321429  0.178571     12.000000
 -0.178571  0.321429  0.178571     12.000000
  0.392857  0.392857  0.178571      6.000000
  0.464286  0.392857  0.178571     12.000000
 -0.464286  0.392857  0.178571     12.000000
 -0.392857  0.392857  0.178571     12.000000
 -0.321429  0.392857  0.178571     12.000000
 -0.250000  0.392857  0.178571     12.000000
 -0.178571  0.392857  0.178571     12.000000
  0.464286  0.464286  0.178571      6.000000
 -0.464286  0.464286  0.178571     12.000000
 -0.392857  0.464286  0.178571     12.000000
 -0.321429  0.464286  0.178571     12.000000
 -0.250000  0.464286  0.178571     12.000000
 -0.178571  0.464286  0.178571     12.000000
 -0.464286 -0.464286  0.178571      6.000000
 -0.392857 -0.464286  0.178571     12.000000
 -0.321429 -0.464286  0.178571     12.000000
 -0.250000 -0.464286  0.178571     12.000000
 -0.392857 -0.392857  0.178571      6.000000
 -0.321429 -0.392857  0.178571     12.000000
 -0.250000 -0.392857  0.178571     12.000000
 -0.321429 -0.321429  0.178571      6.000000
 -0.250000 -0.321429  0.178571     12.000000
 -0.250000 -0.250000  0.178571      6.000000
  0.250000  0.250000  0.250000      2.000000
  0.321429  0.250000  0.250000      6.000000
  0.392857  0.250000  0.250000      6.000000
  0.464286  0.250000  0.250000      6.000000
 -0.464286  0.250000  0.250000      6.000000
 -0.392857  0.250000  0.250000      6.000000
 -0.321429  0.250000  0.250000      6.000000
 -0.250000  0.250000  0.250000      6.000000
  0.321429  0.321429  0.250000      6.000000
  0.392857  0.321429  0.250000     12.000000
  0.464286  0.321429  0.250000     12.000000
 -0.464286  0.321429  0.250000     12.000000
 -0.392857  0.321429  0.250000     12.000000
 -0.321429  0.321429  0.250000     12.000000
 -0.250000  0.321429  0.250000     12.000000
  0.392857  0.392857  0.250000      6.000000
  0.464286  0.392857  0.250000     12.000000
 -0.464286  0.392857  0.250000     12.000000
 -0.392857  0.392857  0.250000     12.000000
 -0.321429  0.392857  0.250000     12.000000
 -0.250000  0.392857  0.250000     12.000000
  0.464286  0.464286  0.250000      6.000000
 -0.464286  0.464286  0.250000     12.000000
 -0.392857  0.464286  0.250000     12.000000
 -0.321429  0.464286  0.250000     12.000000
 -0.250000  0.464286  0.250000     12.000000
 -0.464286 -0.464286  0.250000      6.000000
 -0.392857 -0.464286  0.250000     12.000000
 -0.321429 -0.464286  0.250000     12.000000
 -0.392857 -0.392857  0.250000      6.000000
 -0.321429 -0.392857  0.250000     12.000000
 -0.321429 -0.321429  0.250000      6.000000
  0.321429  0.321429  0.321429      2.000000
  0.392857  0.321429  0.321429      6.000000
  0.464286  0.321429  0.321429      6.000000
 -0.464286  0.321429  0.321429      6.000000
 -0.392857  0.321429  0.321429      6.000000
 -0.321429  0.321429  0.321429      6.000000
  0.392857  0.392857  0.321429      6.000000
  0.464286  0.392857  0.321429     12.000000
 -0.464286  0.392857  0.321429     12.000000
 -0.392857  0.392857  0.321429     12.000000
 -0.321429  0.392857  0.321429     12.000000
  0.464286  0.464286  0.321429      6.000000
 -0.464286  0.464286  0.321429     12.000000
 -0.392857  0.464286  0.321429     12.000000
 -0.321429  0.464286  0.321429     12.000000
 -0.464286 -0.464286  0.321429      6.000000
 -0.392857 -0.464286  0.321429     12.000000
 -0.392857 -0.392857  0.321429      6.000000
  0.392857  0.392857  0.392857      2.000000
  0.464286  0.392857  0.392857      6.000000
 -0.464286  0.392857  0.392857      6.000000
 -0.392857  0.392857  0.392857      6.000000
  0.464286  0.464286  0.392857      6.000000
 -0.464286  0.464286  0.392857     12.000000
 -0.392857  0.464286  0.392857     12.000000
 -0.464286 -0.464286  0.392857      6.000000
  0.464286  0.464286  0.464286      2.000000
 -0.464286  0.464286  0.464286      6.000000
 
 Following cartesian coordinates:
            Coordinates               Weight
  0.009961  0.009961  0.009961      2.000000
  0.029949  0.009927  0.009927      6.000000
  0.049937  0.009894  0.009894      6.000000
  0.069924  0.009861  0.009861      6.000000
  0.089912  0.009828  0.009828      6.000000
  0.109900  0.009794  0.009794      6.000000
  0.129888  0.009761  0.009761      6.000000
 -0.129955  0.010194  0.010194      6.000000
 -0.109967  0.010160  0.010160      6.000000
 -0.089979  0.010127  0.010127      6.000000
 -0.069991  0.010094  0.010094      6.000000
 -0.050003  0.010060  0.010060      6.000000
 -0.030015  0.010027  0.010027      6.000000
 -0.010027  0.009994  0.009994      6.000000
  0.029915  0.029915  0.009894      6.000000
  0.049903  0.029882  0.009861     12.000000
  0.069891  0.029849  0.009828     12.000000
  0.089879  0.029816  0.009794     12.000000
  0.109867  0.029782  0.009761     12.000000
  0.129855  0.029749  0.009728     12.000000
 -0.129988  0.030181  0.010160     12.000000
 -0.110000  0.030148  0.010127     12.000000
 -0.090012  0.030115  0.010094     12.000000
 -0.070024  0.030082  0.010060     12.000000
 -0.050036  0.030048  0.010027     12.000000
 -0.030048  0.030015  0.009994     12.000000
 -0.010060  0.029982  0.009961     12.000000
  0.049870  0.049870  0.009828      6.000000
  0.069858  0.049837  0.009794     12.000000
  0.089846  0.049804  0.009761     12.000000
  0.109834  0.049770  0.009728     12.000000
  0.129822  0.049737  0.009695     12.000000
 -0.130021  0.050169  0.010127     12.000000
 -0.110033  0.050136  0.010094     12.000000
 -0.090045  0.050103  0.010060     12.000000
 -0.070058  0.050070  0.010027     12.000000
 -0.050070  0.050036  0.009994     12.000000
 -0.030082  0.050003  0.009961     12.000000
 -0.010094  0.049970  0.009927     12.000000
  0.069825  0.069825  0.009761      6.000000
  0.089813  0.069791  0.009728     12.000000
  0.109801  0.069758  0.009695     12.000000
  0.129789  0.069725  0.009661     12.000000
 -0.130055  0.070157  0.010094     12.000000
 -0.110067  0.070124  0.010060     12.000000
 -0.090079  0.070091  0.010027     12.000000
 -0.070091  0.070058  0.009994     12.000000
 -0.050103  0.070024  0.009961     12.000000
 -0.030115  0.069991  0.009927     12.000000
 -0.010127  0.069958  0.009894     12.000000
  0.089779  0.089779  0.009695      6.000000
  0.109767  0.089746  0.009661     12.000000
  0.129755  0.089713  0.009628     12.000000
 -0.130088  0.090145  0.010060     12.000000
 -0.110100  0.090112  0.010027     12.000000
 -0.090112  0.090079  0.009994     12.000000
 -0.070124  0.090045  0.009961     12.000000
 -0.050136  0.090012  0.009927     12.000000
 -0.030148  0.089979  0.009894     12.000000
 -0.010160  0.089946  0.009861     12.000000
  0.109734  0.109734  0.009628      6.000000
  0.129722  0.109701  0.009595     12.000000
 -0.130121  0.110133  0.010027     12.000000
 -0.110133  0.110100  0.009994     12.000000
 -0.090145  0.110067  0.009961     12.000000
 -0.070157  0.110033  0.009927     12.000000
 -0.050169  0.110000  0.009894     12.000000
 -0.030181  0.109967  0.009861     12.000000
 -0.010194  0.109934  0.009828     12.000000
  0.129689  0.129689  0.009562      6.000000
 -0.130154  0.130121  0.009994     12.000000
 -0.110166  0.130088  0.009961     12.000000
 -0.090178  0.130055  0.009927     12.000000
 -0.070191  0.130021  0.009894     12.000000
 -0.050203  0.129988  0.009861     12.000000
 -0.030215  0.129955  0.009828     12.000000
 -0.010227  0.129922  0.009794     12.000000
 -0.129722 -0.129722  0.010426      6.000000
 -0.109734 -0.129755  0.010393     12.000000
 -0.089746 -0.129789  0.010360     12.000000
 -0.069758 -0.129822  0.010327     12.000000
 -0.049770 -0.129855  0.010293     12.000000
 -0.029782 -0.129888  0.010260     12.000000
 -0.109767 -0.109767  0.010360      6.000000
 -0.089779 -0.109801  0.010327     12.000000
 -0.069791 -0.109834  0.010293     12.000000
 -0.049804 -0.109867  0.010260     12.000000
 -0.029816 -0.109900  0.010227     12.000000
 -0.089813 -0.089813  0.010293      6.000000
 -0.069825 -0.089846  0.010260     12.000000
 -0.049837 -0.089879  0.010227     12.000000
 -0.029849 -0.089912  0.010194     12.000000
 -0.069858 -0.069858  0.010227      6.000000
 -0.049870 -0.069891  0.010194     12.000000
 -0.029882 -0.069924  0.010160     12.000000
 -0.049903 -0.049903  0.010160      6.000000
 -0.029915 -0.049937  0.010127     12.000000
 -0.029949 -0.029949  0.010094      6.000000
  0.029882  0.029882  0.029882      2.000000
  0.049870  0.029849  0.029849      6.000000
  0.069858  0.029816  0.029816      6.000000
  0.089846  0.029782  0.029782      6.000000
  0.109834  0.029749  0.029749      6.000000
  0.129822  0.029716  0.029716      6.000000
 -0.130021  0.030148  0.030148      6.000000
 -0.110033  0.030115  0.030115      6.000000
 -0.090045  0.030082  0.030082      6.000000
 -0.070058  0.030048  0.030048      6.000000
 -0.050070  0.030015  0.030015      6.000000
 -0.030082  0.029982  0.029982      6.000000
  0.049837  0.049837  0.029816      6.000000
  0.069825  0.049804  0.029782     12.000000
  0.089813  0.049770  0.029749     12.000000
  0.109801  0.049737  0.029716     12.000000
  0.129789  0.049704  0.029683     12.000000
 -0.130055  0.050136  0.030115     12.000000
 -0.110067  0.050103  0.030082     12.000000
 -0.090079  0.050070  0.030048     12.000000
 -0.070091  0.050036  0.030015     12.000000
 -0.050103  0.050003  0.029982     12.000000
 -0.030115  0.049970  0.029949     12.000000
  0.069791  0.069791  0.029749      6.000000
  0.089779  0.069758  0.029716     12.000000
  0.109767  0.069725  0.029683     12.000000
  0.129755  0.069692  0.029649     12.000000
 -0.130088  0.070124  0.030082     12.000000
 -0.110100  0.070091  0.030048     12.000000
 -0.090112  0.070058  0.030015     12.000000
 -0.070124  0.070024  0.029982     12.000000
 -0.050136  0.069991  0.029949     12.000000
 -0.030148  0.069958  0.029915     12.000000
  0.089746  0.089746  0.029683      6.000000
  0.109734  0.089713  0.029649     12.000000
  0.129722  0.089680  0.029616     12.000000
 -0.130121  0.090112  0.030048     12.000000
 -0.110133  0.090079  0.030015     12.000000
 -0.090145  0.090045  0.029982     12.000000
 -0.070157  0.090012  0.029949     12.000000
 -0.050169  0.089979  0.029915     12.000000
 -0.030181  0.089946  0.029882     12.000000
  0.109701  0.109701  0.029616      6.000000
  0.129689  0.109668  0.029583     12.000000
 -0.130154  0.110100  0.030015     12.000000
 -0.110166  0.110067  0.029982     12.000000
 -0.090178  0.110033  0.029949     12.000000
 -0.070191  0.110000  0.029915     12.000000
 -0.050203  0.109967  0.029882     12.000000
 -0.030215  0.109934  0.029849     12.000000
  0.129655  0.129655  0.029550      6.000000
 -0.130188  0.130088  0.029982     12.000000
 -0.110200  0.130055  0.029949     12.000000
 -0.090212  0.130021  0.029915     12.000000
 -0.070224  0.129988  0.029882     12.000000
 -0.050236  0.129955  0.029849     12.000000
 -0.030248  0.129922  0.029816     12.000000
 -0.129755 -0.129755  0.030414      6.000000
 -0.109767 -0.129789  0.030381     12.000000
 -0.089779 -0.129822  0.030348     12.000000
 -0.069791 -0.129855  0.030314     12.000000
 -0.049804 -0.129888  0.030281     12.000000
 -0.109801 -0.109801  0.030348      6.000000
 -0.089813 -0.109834  0.030314     12.000000
 -0.069825 -0.109867  0.030281     12.000000
 -0.049837 -0.109900  0.030248     12.000000
 -0.089846 -0.089846  0.030281      6.000000
 -0.069858 -0.089879  0.030248     12.000000
 -0.049870 -0.089912  0.030215     12.000000
 -0.069891 -0.069891  0.030215      6.000000
 -0.049903 -0.069924  0.030181     12.000000
 -0.049937 -0.049937  0.030148      6.000000
  0.049804  0.049804  0.049804      2.000000
  0.069791  0.049770  0.049770      6.000000
  0.089779  0.049737  0.049737      6.000000
  0.109767  0.049704  0.049704      6.000000
  0.129755  0.049671  0.049671      6.000000
 -0.130088  0.050103  0.050103      6.000000
 -0.110100  0.050070  0.050070      6.000000
 -0.090112  0.050036  0.050036      6.000000
 -0.070124  0.050003  0.050003      6.000000
 -0.050136  0.049970  0.049970      6.000000
  0.069758  0.069758  0.049737      6.000000
  0.089746  0.069725  0.049704     12.000000
  0.109734  0.069692  0.049671     12.000000
  0.129722  0.069658  0.049637     12.000000
 -0.130121  0.070091  0.050070     12.000000
 -0.110133  0.070058  0.050036     12.000000
 -0.090145  0.070024  0.050003     12.000000
 -0.070157  0.069991  0.049970     12.000000
 -0.050169  0.069958  0.049937     12.000000
  0.089713  0.089713  0.049671      6.000000
  0.109701  0.089680  0.049637     12.000000
  0.129689  0.089646  0.049604     12.000000
 -0.130154  0.090079  0.050036     12.000000
 -0.110166  0.090045  0.050003     12.000000
 -0.090178  0.090012  0.049970     12.000000
 -0.070191  0.089979  0.049937     12.000000
 -0.050203  0.089946  0.049903     12.000000
  0.109668  0.109668  0.049604      6.000000
  0.129655  0.109634  0.049571     12.000000
 -0.130188  0.110067  0.050003     12.000000
 -0.110200  0.110033  0.049970     12.000000
 -0.090212  0.110000  0.049937     12.000000
 -0.070224  0.109967  0.049903     12.000000
 -0.050236  0.109934  0.049870     12.000000
  0.129622  0.129622  0.049537      6.000000
 -0.130221  0.130055  0.049970     12.000000
 -0.110233  0.130021  0.049937     12.000000
 -0.090245  0.129988  0.049903     12.000000
 -0.070257  0.129955  0.049870     12.000000
 -0.050269  0.129922  0.049837     12.000000
 -0.129789 -0.129789  0.050402      6.000000
 -0.109801 -0.129822  0.050369     12.000000
 -0.089813 -0.129855  0.050336     12.000000
 -0.069825 -0.129888  0.050302     12.000000
 -0.109834 -0.109834  0.050336      6.000000
 -0.089846 -0.109867  0.050302     12.000000
 -0.069858 -0.109900  0.050269     12.000000
 -0.089879 -0.089879  0.050269      6.000000
 -0.069891 -0.089912  0.050236     12.000000
 -0.069924 -0.069924  0.050203      6.000000
  0.069725  0.069725  0.069725      2.000000
  0.089713  0.069692  0.069692      6.000000
  0.109701  0.069658  0.069658      6.000000
  0.129689  0.069625  0.069625      6.000000
 -0.130154  0.070058  0.070058      6.000000
 -0.110166  0.070024  0.070024      6.000000
 -0.090178  0.069991  0.069991      6.000000
 -0.070191  0.069958  0.069958      6.000000
  0.089680  0.089680  0.069658      6.000000
  0.109668  0.089646  0.069625     12.000000
  0.129655  0.089613  0.069592     12.000000
 -0.130188  0.090045  0.070024     12.000000
 -0.110200  0.090012  0.069991     12.000000
 -0.090212  0.089979  0.069958     12.000000
 -0.070224  0.089946  0.069924     12.000000
  0.109634  0.109634  0.069592      6.000000
  0.129622  0.109601  0.069559     12.000000
 -0.130221  0.110033  0.069991     12.000000
 -0.110233  0.110000  0.069958     12.000000
 -0.090245  0.109967  0.069924     12.000000
 -0.070257  0.109934  0.069891     12.000000
  0.129589  0.129589  0.069525      6.000000
 -0.130254  0.130021  0.069958     12.000000
 -0.110266  0.129988  0.069924     12.000000
 -0.090278  0.129955  0.069891     12.000000
 -0.070290  0.129922  0.069858     12.000000
 -0.129822 -0.129822  0.070390      6.000000
 -0.109834 -0.129855  0.070357     12.000000
 -0.089846 -0.129888  0.070324     12.000000
 -0.109867 -0.109867  0.070324      6.000000
 -0.089879 -0.109900  0.070290     12.000000
 -0.089912 -0.089912  0.070257      6.000000
  0.089646  0.089646  0.089646      2.000000
  0.109634  0.089613  0.089613      6.000000
  0.129622  0.089580  0.089580      6.000000
 -0.130221  0.090012  0.090012      6.000000
 -0.110233  0.089979  0.089979      6.000000
 -0.090245  0.089946  0.089946      6.000000
  0.109601  0.109601  0.089580      6.000000
  0.129589  0.109568  0.089547     12.000000
 -0.130254  0.110000  0.089979     12.000000
 -0.110266  0.109967  0.089946     12.000000
 -0.090278  0.109934  0.089912     12.000000
  0.129556  0.129556  0.089513      6.000000
 -0.130287  0.129988  0.089946     12.000000
 -0.110299  0.129955  0.089912     12.000000
 -0.090312  0.129922  0.089879     12.000000
 -0.129855 -0.129855  0.090378      6.000000
 -0.109867 -0.129888  0.090345     12.000000
 -0.109900 -0.109900  0.090312      6.000000
  0.109568  0.109568  0.109568      2.000000
  0.129556  0.109535  0.109535      6.000000
 -0.130287  0.109967  0.109967      6.000000
 -0.110299  0.109934  0.109934      6.000000
  0.129522  0.129522  0.109501      6.000000
 -0.130321  0.129955  0.109934     12.000000
 -0.110333  0.129922  0.109900     12.000000
 -0.129888 -0.129888  0.110366      6.000000
  0.129489  0.129489  0.129489      2.000000
 -0.130354  0.129922  0.129922      6.000000
 


--------------------------------------------------------------------------------------------------------




 Dimension of arrays:
   k-points           NKPTS =    280   k-points in BZ     NKDIM =    280   number of bands    NBANDS=     24
   number of dos      NEDOS =    301   number of ions     NIONS =      8
   non local maximal  LDIM  =      4   non local SUM 2l+1 LMDIM =      8
   total plane-waves  NPLWV =  46656
   max r-space proj   IRMAX =      1   max aug-charges    IRDMAX=  16273
   dimension x,y,z NGX =    36 NGY =   36 NGZ =   36
   dimension x,y,z NGXF=    48 NGYF=   48 NGZF=   48
   support grid    NGXF=    96 NGYF=   96 NGZF=   96
   ions per type =               8
   NGX,Y,Z   is equivalent  to a cutoff of  16.75, 16.75, 16.75 a.u.
   NGXF,Y,Z  is equivalent  to a cutoff of  22.33, 22.33, 22.33 a.u.

 SYSTEM =  unknown system                          
 POSCAR =  C8                                      

 Startparameter for this run:
   NWRITE =      2    write-flag & timer
   PREC   = high      normal or accurate (medium, high low for compatibility)
   ISTART =      0    job   : 0-new  1-cont  2-samecut
   ICHARG =      2    charge: 1-file 2-atom 10-const
   ISPIN  =      1    spin polarized calculation?
   LNONCOLLINEAR =      F non collinear calculations
   LSORBIT =      F    spin-orbit coupling
   INIWAV =      1    electr: 0-lowe 1-rand  2-diag
   LASPH  =      F    aspherical Exc in radial PAW
   METAGGA=      F    non-selfconsistent MetaGGA calc.

 Electronic Relaxation 1
   ENCUT  =  875.0 eV  64.31 Ry    8.02 a.u.   8.62  8.62  8.62*2*pi/ulx,y,z
   ENINI  =  875.0     initial cutoff
   ENAUG  =  946.8 eV  augmentation charge cutoff
   NELM   =     40;   NELMIN=  4; NELMDL= -5     # of ELM steps 
   EDIFF  = 0.1E-07   stopping-criterion for ELM
   LREAL  =      F    real-space projection
   NLSPLINE    = F    spline interpolate recip. space projectors
   LCOMPAT=      F    compatible to vasp.4.4
   GGA_COMPAT  = T    GGA compatible to vasp.4.4-vasp.4.6
   LMAXPAW     = -100 max onsite density
   LMAXMIX     =    2 max onsite mixed and CHGCAR
   VOSKOWN=      0    Vosko Wilk Nusair interpolation
   ROPT   =    0.00000
 Ionic relaxation
   EDIFFG = -.1E-01   stopping-criterion for IOM
   NSW    =    100    number of steps for IOM
   NBLOCK =      1;   KBLOCK =    100    inner block; outer block 
   IBRION =      2    ionic relax: 0-MD 1-quasi-New 2-CG
   NFREE  =      1    steps in history (QN), initial steepest desc. (CG)
   ISIF   =      2    stress and relaxation
   IWAVPR =     11    prediction:  0-non 1-charg 2-wave 3-comb
   ISYM   =      2    0-nonsym 1-usesym 2-fastsym
   LCORR  =      T    Harris-Foulkes like correction to forces

   POTIM  = 0.5000    time-step for ionic-motion
   TEIN   =    0.0    initial temperature
   TEBEG  =    0.0;   TEEND  =   0.0 temperature during run
   SMASS  =  -3.00    Nose mass-parameter (am)
   estimated Nose-frequenzy (Omega)   =  0.10E-29 period in steps =****** mass=  -0.292E-27a.u.
   SCALEE = 1.0000    scale energy and forces
   NPACO  =    256;   APACO  = 16.0  distance and # of slots for P.C.
   PSTRESS=    0.0 pullay stress

  Mass of Ions in am
   POMASS =  12.01
  Ionic Valenz
   ZVAL   =   4.00
  Atomic Wigner-Seitz radii
   RWIGS  =  -1.00
  virtual crystal weights 
   VCA    =   1.00
   NELECT =      32.0000    total number of electrons
   NUPDOWN=      -1.0000    fix difference up-down

 DOS related values:
   EMIN   =  10.00;   EMAX   =-10.00  energy-range for DOS
   EFERMI =   0.00
   ISMEAR =     0;   SIGMA  =   0.05  broadening in eV -4-tet -1-fermi 0-gaus

 Electronic relaxation 2 (details)
   IALGO  =     38    algorithm
   LDIAG  =      T    sub-space diagonalisation (order eigenvalues)
   LSUBROT=      F    optimize rotation matrix (better conditioning)
   TURBO    =      0    0=normal 1=particle mesh
   IRESTART =      0    0=no restart 2=restart with 2 vectors
   NREBOOT  =      0    no. of reboots
   NMIN     =      0    reboot dimension
   EREF     =   0.00    reference energy to select bands
   IMIX   =      4    mixing-type and parameters
     AMIX     =   0.40;   BMIX     =  1.00
     AMIX_MAG =   1.60;   BMIX_MAG =  1.00
     AMIN     =   0.10
     WC   =   100.;   INIMIX=   1;  MIXPRE=   1;  MAXMIX= -45

 Intra band minimization:
   WEIMIN = 0.0010     energy-eigenvalue tresh-hold
   EBREAK =  0.10E-09  absolut break condition
   DEPER  =   0.30     relativ break condition  

   TIME   =   0.40     timestep for ELM

  volume/ion in A,a.u.               =       5.70        38.50
  Fermi-wavevector in a.u.,A,eV,Ry     =   1.454408  2.748432 28.780424  2.115302
  Thomas-Fermi vector in A             =   2.571562
 
 Write flags
   LWAVE        =      F    write WAVECAR
   LDOWNSAMPLE  =      F    k-point downsampling of WAVECAR
   LCHARG       =      F    write CHGCAR
   LVTOT        =      F    write LOCPOT, total local potential
   LVHAR        =      F    write LOCPOT, Hartree potential only
   LELF         =      F    write electronic localiz. function (ELF)
   LORBIT       =      0    0 simple, 1 ext, 2 COOP (PROOUT), +10 PAW based schemes


 Dipole corrections
   LMONO  =      F    monopole corrections only (constant potential shift)
   LDIPOL =      F    correct potential (dipole corrections)
   IDIPOL =      0    1-x, 2-y, 3-z, 4-all directions 
   EPSILON=  1.0000000 bulk dielectric constant

 Exchange correlation treatment:
   GGA     =    --    GGA type
   LEXCH   =     8    internal setting for exchange type
   VOSKOWN=      0    Vosko Wilk Nusair interpolation
   LHFCALC =     F    Hartree Fock is set to
   LHFONE  =     F    Hartree Fock one center treatment
   AEXX    =    0.0000 exact exchange contribution

 Linear response parameters
   LEPSILON=     F    determine dielectric tensor
   LRPA    =     F    only Hartree local field effects (RPA)
   LNABLA  =     F    use nabla operator in PAW spheres
   LVEL    =     F    velocity operator in full k-point grid
   LINTERFAST=   F  fast interpolation
   KINTER  =     0    interpolate to denser k-point grid
   CSHIFT  =0.1000    complex shift for real part using Kramers Kronig
   OMEGAMAX=  -1.0    maximum frequency
   DEG_THRESHOLD= 0.2000000E-02 threshold for treating states as degnerate
   RTIME   =   -0.100 relaxation time in fs
  (WPLASMAI=    0.000 imaginary part of plasma frequency in eV, 0.658/RTIME)
   DFIELD  = 0.0000000 0.0000000 0.0000000 field for delta impulse in time
 
 Orbital magnetization related:
   ORBITALMAG=     F  switch on orbital magnetization
   LCHIMAG   =     F  perturbation theory with respect to B field
   DQ        =  0.001000  dq finite difference perturbation B field
   LLRAUG    =     F  two centre corrections for induced B field



--------------------------------------------------------------------------------------------------------


 conjugate gradient relaxation of ions
 charge density and potential will be updated during run
 non-spin polarized calculation
 Variant of blocked Davidson
 Davidson routine will perform the subspace rotation
 perform sub-space diagonalisation
    after iterative eigenvector-optimisation
 modified Broyden-mixing scheme, WC =      100.0
 initial mixing is a Kerker type mixing with AMIX =  0.4000 and BMIX =      1.0000
 Hartree-type preconditioning will be used
 using additional bands            8
 reciprocal scheme for non local part
 use partial core corrections
 calculate Harris-corrections to forces 
   (improved forces if not selfconsistent)
 use gradient corrections 
 use of overlap-Matrix (Vanderbilt PP)
 Gauss-broadening in eV      SIGMA  =   0.05


--------------------------------------------------------------------------------------------------------


  energy-cutoff  :      875.00
  volume of cell :       45.64
      direct lattice vectors                 reciprocal lattice vectors
     3.573605071  0.005956008  0.005956008     0.279831018 -0.000465609 -0.000465609
     0.005956008  3.573605071  0.005956008    -0.000465609  0.279831018 -0.000465609
     0.005956008  0.005956008  3.573605071    -0.000465609 -0.000465609  0.279831018

  length of vectors
     3.573614998  3.573614998  3.573614998     0.279831793  0.279831793  0.279831793


 
 k-points in units of 2pi/SCALE and weight: K-Mesh Generated with KP-Resolved Value 
   0.00996071  0.00996071  0.00996071       0.001
   0.02994864  0.00992745  0.00992745       0.002
   0.04993657  0.00989419  0.00989419       0.002
   0.06992450  0.00986093  0.00986093       0.002
   0.08991243  0.00982768  0.00982768       0.002
   0.10990036  0.00979442  0.00979442       0.002
   0.12988829  0.00976116  0.00976116       0.002
  -0.12995480  0.01019351  0.01019351       0.002
  -0.10996687  0.01016025  0.01016025       0.002
  -0.08997894  0.01012700  0.01012700       0.002
  -0.06999101  0.01009374  0.01009374       0.002
  -0.05000308  0.01006048  0.01006048       0.002
  -0.03001515  0.01002722  0.01002722       0.002
  -0.01002722  0.00999396  0.00999396       0.002
   0.02991538  0.02991538  0.00989419       0.002
   0.04990331  0.02988212  0.00986093       0.004
   0.06989124  0.02984886  0.00982768       0.004
   0.08987917  0.02981561  0.00979442       0.004
   0.10986710  0.02978235  0.00976116       0.004
   0.12985503  0.02974909  0.00972790       0.004
  -0.12998806  0.03018144  0.01016025       0.004
  -0.11000013  0.03014818  0.01012700       0.004
  -0.09001220  0.03011493  0.01009374       0.004
  -0.07002427  0.03008167  0.01006048       0.004
  -0.05003634  0.03004841  0.01002722       0.004
  -0.03004841  0.03001515  0.00999396       0.004
  -0.01006048  0.02998189  0.00996071       0.004
   0.04987005  0.04987005  0.00982768       0.002
   0.06985798  0.04983679  0.00979442       0.004
   0.08984591  0.04980354  0.00976116       0.004
   0.10983384  0.04977028  0.00972790       0.004
   0.12982177  0.04973702  0.00969464       0.004
  -0.13002132  0.05016937  0.01012700       0.004
  -0.11003339  0.05013611  0.01009374       0.004
  -0.09004546  0.05010286  0.01006048       0.004
  -0.07005753  0.05006960  0.01002722       0.004
  -0.05006960  0.05003634  0.00999396       0.004
  -0.03008167  0.05000308  0.00996071       0.004
  -0.01009374  0.04996982  0.00992745       0.004
   0.06982472  0.06982472  0.00976116       0.002
   0.08981265  0.06979147  0.00972790       0.004
   0.10980058  0.06975821  0.00969464       0.004
   0.12978851  0.06972495  0.00966139       0.004
  -0.13005458  0.07015730  0.01009374       0.004
  -0.11006665  0.07012404  0.01006048       0.004
  -0.09007872  0.07009079  0.01002722       0.004
  -0.07009079  0.07005753  0.00999396       0.004
  -0.05010286  0.07002427  0.00996071       0.004
  -0.03011493  0.06999101  0.00992745       0.004
  -0.01012700  0.06995775  0.00989419       0.004
   0.08977940  0.08977940  0.00969464       0.002
   0.10976733  0.08974614  0.00966139       0.004
   0.12975526  0.08971288  0.00962813       0.004
  -0.13008783  0.09014523  0.01006048       0.004
  -0.11009990  0.09011197  0.01002722       0.004
  -0.09011197  0.09007872  0.00999396       0.004
  -0.07012404  0.09004546  0.00996071       0.004
  -0.05013611  0.09001220  0.00992745       0.004
  -0.03014818  0.08997894  0.00989419       0.004
  -0.01016025  0.08994568  0.00986093       0.004
   0.10973407  0.10973407  0.00962813       0.002
   0.12972200  0.10970081  0.00959487       0.004
  -0.13012109  0.11013316  0.01002722       0.004
  -0.11013316  0.11009990  0.00999396       0.004
  -0.09014523  0.11006665  0.00996071       0.004
  -0.07015730  0.11003339  0.00992745       0.004
  -0.05016937  0.11000013  0.00989419       0.004
  -0.03018144  0.10996687  0.00986093       0.004
  -0.01019351  0.10993361  0.00982768       0.004
   0.12968874  0.12968874  0.00956161       0.002
  -0.13015435  0.13012109  0.00999396       0.004
  -0.11016642  0.13008783  0.00996071       0.004
  -0.09017849  0.13005458  0.00992745       0.004
  -0.07019056  0.13002132  0.00989419       0.004
  -0.05020263  0.12998806  0.00986093       0.004
  -0.03021470  0.12995480  0.00982768       0.004
  -0.01022677  0.12992154  0.00979442       0.004
  -0.12972200 -0.12972200  0.01042632       0.002
  -0.10973407 -0.12975526  0.01039306       0.004
  -0.08974614 -0.12978851  0.01035980       0.004
  -0.06975821 -0.12982177  0.01032654       0.004
  -0.04977028 -0.12985503  0.01029329       0.004
  -0.02978235 -0.12988829  0.01026003       0.004
  -0.10976733 -0.10976733  0.01035980       0.002
  -0.08977940 -0.10980058  0.01032654       0.004
  -0.06979147 -0.10983384  0.01029329       0.004
  -0.04980354 -0.10986710  0.01026003       0.004
  -0.02981561 -0.10990036  0.01022677       0.004
  -0.08981265 -0.08981265  0.01029329       0.002
  -0.06982472 -0.08984591  0.01026003       0.004
  -0.04983679 -0.08987917  0.01022677       0.004
  -0.02984886 -0.08991243  0.01019351       0.004
  -0.06985798 -0.06985798  0.01022677       0.002
  -0.04987005 -0.06989124  0.01019351       0.004
  -0.02988212 -0.06992450  0.01016025       0.004
  -0.04990331 -0.04990331  0.01016025       0.002
  -0.02991538 -0.04993657  0.01012700       0.004
  -0.02994864 -0.02994864  0.01009374       0.002
   0.02988212  0.02988212  0.02988212       0.001
   0.04987005  0.02984886  0.02984886       0.002
   0.06985798  0.02981561  0.02981561       0.002
   0.08984591  0.02978235  0.02978235       0.002
   0.10983384  0.02974909  0.02974909       0.002
   0.12982177  0.02971583  0.02971583       0.002
  -0.13002132  0.03014818  0.03014818       0.002
  -0.11003339  0.03011493  0.03011493       0.002
  -0.09004546  0.03008167  0.03008167       0.002
  -0.07005753  0.03004841  0.03004841       0.002
  -0.05006960  0.03001515  0.03001515       0.002
  -0.03008167  0.02998189  0.02998189       0.002
   0.04983679  0.04983679  0.02981561       0.002
   0.06982472  0.04980354  0.02978235       0.004
   0.08981265  0.04977028  0.02974909       0.004
   0.10980058  0.04973702  0.02971583       0.004
   0.12978851  0.04970376  0.02968257       0.004
  -0.13005458  0.05013611  0.03011493       0.004
  -0.11006665  0.05010286  0.03008167       0.004
  -0.09007872  0.05006960  0.03004841       0.004
  -0.07009079  0.05003634  0.03001515       0.004
  -0.05010286  0.05000308  0.02998189       0.004
  -0.03011493  0.04996982  0.02994864       0.004
   0.06979147  0.06979147  0.02974909       0.002
   0.08977940  0.06975821  0.02971583       0.004
   0.10976733  0.06972495  0.02968257       0.004
   0.12975526  0.06969169  0.02964932       0.004
  -0.13008783  0.07012404  0.03008167       0.004
  -0.11009990  0.07009079  0.03004841       0.004
  -0.09011197  0.07005753  0.03001515       0.004
  -0.07012404  0.07002427  0.02998189       0.004
  -0.05013611  0.06999101  0.02994864       0.004
  -0.03014818  0.06995775  0.02991538       0.004
   0.08974614  0.08974614  0.02968257       0.002
   0.10973407  0.08971288  0.02964932       0.004
   0.12972200  0.08967962  0.02961606       0.004
  -0.13012109  0.09011197  0.03004841       0.004
  -0.11013316  0.09007872  0.03001515       0.004
  -0.09014523  0.09004546  0.02998189       0.004
  -0.07015730  0.09001220  0.02994864       0.004
  -0.05016937  0.08997894  0.02991538       0.004
  -0.03018144  0.08994568  0.02988212       0.004
   0.10970081  0.10970081  0.02961606       0.002
   0.12968874  0.10966755  0.02958280       0.004
  -0.13015435  0.11009990  0.03001515       0.004
  -0.11016642  0.11006665  0.02998189       0.004
  -0.09017849  0.11003339  0.02994864       0.004
  -0.07019056  0.11000013  0.02991538       0.004
  -0.05020263  0.10996687  0.02988212       0.004
  -0.03021470  0.10993361  0.02984886       0.004
   0.12965548  0.12965548  0.02954954       0.002
  -0.13018761  0.13008783  0.02998189       0.004
  -0.11019968  0.13005458  0.02994864       0.004
  -0.09021175  0.13002132  0.02991538       0.004
  -0.07022382  0.12998806  0.02988212       0.004
  -0.05023589  0.12995480  0.02984886       0.004
  -0.03024796  0.12992154  0.02981561       0.004
  -0.12975526 -0.12975526  0.03041425       0.002
  -0.10976733 -0.12978851  0.03038099       0.004
  -0.08977940 -0.12982177  0.03034773       0.004
  -0.06979147 -0.12985503  0.03031447       0.004
  -0.04980354 -0.12988829  0.03028121       0.004
  -0.10980058 -0.10980058  0.03034773       0.002
  -0.08981265 -0.10983384  0.03031447       0.004
  -0.06982472 -0.10986710  0.03028121       0.004
  -0.04983679 -0.10990036  0.03024796       0.004
  -0.08984591 -0.08984591  0.03028121       0.002
  -0.06985798 -0.08987917  0.03024796       0.004
  -0.04987005 -0.08991243  0.03021470       0.004
  -0.06989124 -0.06989124  0.03021470       0.002
  -0.04990331 -0.06992450  0.03018144       0.004
  -0.04993657 -0.04993657  0.03014818       0.002
   0.04980354  0.04980354  0.04980354       0.001
   0.06979147  0.04977028  0.04977028       0.002
   0.08977940  0.04973702  0.04973702       0.002
   0.10976733  0.04970376  0.04970376       0.002
   0.12975526  0.04967050  0.04967050       0.002
  -0.13008783  0.05010286  0.05010286       0.002
  -0.11009990  0.05006960  0.05006960       0.002
  -0.09011197  0.05003634  0.05003634       0.002
  -0.07012404  0.05000308  0.05000308       0.002
  -0.05013611  0.04996982  0.04996982       0.002
   0.06975821  0.06975821  0.04973702       0.002
   0.08974614  0.06972495  0.04970376       0.004
   0.10973407  0.06969169  0.04967050       0.004
   0.12972200  0.06965843  0.04963725       0.004
  -0.13012109  0.07009079  0.05006960       0.004
  -0.11013316  0.07005753  0.05003634       0.004
  -0.09014523  0.07002427  0.05000308       0.004
  -0.07015730  0.06999101  0.04996982       0.004
  -0.05016937  0.06995775  0.04993657       0.004
   0.08971288  0.08971288  0.04967050       0.002
   0.10970081  0.08967962  0.04963725       0.004
   0.12968874  0.08964636  0.04960399       0.004
  -0.13015435  0.09007872  0.05003634       0.004
  -0.11016642  0.09004546  0.05000308       0.004
  -0.09017849  0.09001220  0.04996982       0.004
  -0.07019056  0.08997894  0.04993657       0.004
  -0.05020263  0.08994568  0.04990331       0.004
   0.10966755  0.10966755  0.04960399       0.002
   0.12965548  0.10963429  0.04957073       0.004
  -0.13018761  0.11006665  0.05000308       0.004
  -0.11019968  0.11003339  0.04996982       0.004
  -0.09021175  0.11000013  0.04993657       0.004
  -0.07022382  0.10996687  0.04990331       0.004
  -0.05023589  0.10993361  0.04987005       0.004
   0.12962222  0.12962222  0.04953747       0.002
  -0.13022086  0.13005458  0.04996982       0.004
  -0.11023293  0.13002132  0.04993657       0.004
  -0.09024500  0.12998806  0.04990331       0.004
  -0.07025707  0.12995480  0.04987005       0.004
  -0.05026914  0.12992154  0.04983679       0.004
  -0.12978851 -0.12978851  0.05040218       0.002
  -0.10980058 -0.12982177  0.05036892       0.004
  -0.08981265 -0.12985503  0.05033566       0.004
  -0.06982472 -0.12988829  0.05030240       0.004
  -0.10983384 -0.10983384  0.05033566       0.002
  -0.08984591 -0.10986710  0.05030240       0.004
  -0.06985798 -0.10990036  0.05026914       0.004
  -0.08987917 -0.08987917  0.05026914       0.002
  -0.06989124 -0.08991243  0.05023589       0.004
  -0.06992450 -0.06992450  0.05020263       0.002
   0.06972495  0.06972495  0.06972495       0.001
   0.08971288  0.06969169  0.06969169       0.002
   0.10970081  0.06965843  0.06965843       0.002
   0.12968874  0.06962518  0.06962518       0.002
  -0.13015435  0.07005753  0.07005753       0.002
  -0.11016642  0.07002427  0.07002427       0.002
  -0.09017849  0.06999101  0.06999101       0.002
  -0.07019056  0.06995775  0.06995775       0.002
   0.08967962  0.08967962  0.06965843       0.002
   0.10966755  0.08964636  0.06962518       0.004
   0.12965548  0.08961311  0.06959192       0.004
  -0.13018761  0.09004546  0.07002427       0.004
  -0.11019968  0.09001220  0.06999101       0.004
  -0.09021175  0.08997894  0.06995775       0.004
  -0.07022382  0.08994568  0.06992450       0.004
   0.10963429  0.10963429  0.06959192       0.002
   0.12962222  0.10960104  0.06955866       0.004
  -0.13022086  0.11003339  0.06999101       0.004
  -0.11023293  0.11000013  0.06995775       0.004
  -0.09024500  0.10996687  0.06992450       0.004
  -0.07025707  0.10993361  0.06989124       0.004
   0.12958897  0.12958897  0.06952540       0.002
  -0.13025412  0.13002132  0.06995775       0.004
  -0.11026619  0.12998806  0.06992450       0.004
  -0.09027826  0.12995480  0.06989124       0.004
  -0.07029033  0.12992154  0.06985798       0.004
  -0.12982177 -0.12982177  0.07039011       0.002
  -0.10983384 -0.12985503  0.07035685       0.004
  -0.08984591 -0.12988829  0.07032359       0.004
  -0.10986710 -0.10986710  0.07032359       0.002
  -0.08987917 -0.10990036  0.07029033       0.004
  -0.08991243 -0.08991243  0.07025707       0.002
   0.08964636  0.08964636  0.08964636       0.001
   0.10963429  0.08961311  0.08961311       0.002
   0.12962222  0.08957985  0.08957985       0.002
  -0.13022086  0.09001220  0.09001220       0.002
  -0.11023293  0.08997894  0.08997894       0.002
  -0.09024500  0.08994568  0.08994568       0.002
   0.10960104  0.10960104  0.08957985       0.002
   0.12958897  0.10956778  0.08954659       0.004
  -0.13025412  0.11000013  0.08997894       0.004
  -0.11026619  0.10996687  0.08994568       0.004
  -0.09027826  0.10993361  0.08991243       0.004
   0.12955571  0.12955571  0.08951333       0.002
  -0.13028738  0.12998806  0.08994568       0.004
  -0.11029945  0.12995480  0.08991243       0.004
  -0.09031152  0.12992154  0.08987917       0.004
  -0.12985503 -0.12985503  0.09037804       0.002
  -0.10986710 -0.12988829  0.09034478       0.004
  -0.10990036 -0.10990036  0.09031152       0.002
   0.10956778  0.10956778  0.10956778       0.001
   0.12955571  0.10953452  0.10953452       0.002
  -0.13028738  0.10996687  0.10996687       0.002
  -0.11029945  0.10993361  0.10993361       0.002
   0.12952245  0.12952245  0.10950126       0.002
  -0.13032064  0.12995480  0.10993361       0.004
  -0.11033271  0.12992154  0.10990036       0.004
  -0.12988829 -0.12988829  0.11036597       0.002
   0.12948919  0.12948919  0.12948919       0.001
  -0.13035390  0.12992154  0.12992154       0.002
 
 k-points in reciprocal lattice and weights: K-Mesh Generated with KP-Resolved Value 
   0.03571429  0.03571429  0.03571429       0.001
   0.10714286  0.03571429  0.03571429       0.002
   0.17857143  0.03571429  0.03571429       0.002
   0.25000000  0.03571429  0.03571429       0.002
   0.32142857  0.03571429  0.03571429       0.002
   0.39285714  0.03571429  0.03571429       0.002
   0.46428571  0.03571429  0.03571429       0.002
  -0.46428571  0.03571429  0.03571429       0.002
  -0.39285714  0.03571429  0.03571429       0.002
  -0.32142857  0.03571429  0.03571429       0.002
  -0.25000000  0.03571429  0.03571429       0.002
  -0.17857143  0.03571429  0.03571429       0.002
  -0.10714286  0.03571429  0.03571429       0.002
  -0.03571429  0.03571429  0.03571429       0.002
   0.10714286  0.10714286  0.03571429       0.002
   0.17857143  0.10714286  0.03571429       0.004
   0.25000000  0.10714286  0.03571429       0.004
   0.32142857  0.10714286  0.03571429       0.004
   0.39285714  0.10714286  0.03571429       0.004
   0.46428571  0.10714286  0.03571429       0.004
  -0.46428571  0.10714286  0.03571429       0.004
  -0.39285714  0.10714286  0.03571429       0.004
  -0.32142857  0.10714286  0.03571429       0.004
  -0.25000000  0.10714286  0.03571429       0.004
  -0.17857143  0.10714286  0.03571429       0.004
  -0.10714286  0.10714286  0.03571429       0.004
  -0.03571429  0.10714286  0.03571429       0.004
   0.17857143  0.17857143  0.03571429       0.002
   0.25000000  0.17857143  0.03571429       0.004
   0.32142857  0.17857143  0.03571429       0.004
   0.39285714  0.17857143  0.03571429       0.004
   0.46428571  0.17857143  0.03571429       0.004
  -0.46428571  0.17857143  0.03571429       0.004
  -0.39285714  0.17857143  0.03571429       0.004
  -0.32142857  0.17857143  0.03571429       0.004
  -0.25000000  0.17857143  0.03571429       0.004
  -0.17857143  0.17857143  0.03571429       0.004
  -0.10714286  0.17857143  0.03571429       0.004
  -0.03571429  0.17857143  0.03571429       0.004
   0.25000000  0.25000000  0.03571429       0.002
   0.32142857  0.25000000  0.03571429       0.004
   0.39285714  0.25000000  0.03571429       0.004
   0.46428571  0.25000000  0.03571429       0.004
  -0.46428571  0.25000000  0.03571429       0.004
  -0.39285714  0.25000000  0.03571429       0.004
  -0.32142857  0.25000000  0.03571429       0.004
  -0.25000000  0.25000000  0.03571429       0.004
  -0.17857143  0.25000000  0.03571429       0.004
  -0.10714286  0.25000000  0.03571429       0.004
  -0.03571429  0.25000000  0.03571429       0.004
   0.32142857  0.32142857  0.03571429       0.002
   0.39285714  0.32142857  0.03571429       0.004
   0.46428571  0.32142857  0.03571429       0.004
  -0.46428571  0.32142857  0.03571429       0.004
  -0.39285714  0.32142857  0.03571429       0.004
  -0.32142857  0.32142857  0.03571429       0.004
  -0.25000000  0.32142857  0.03571429       0.004
  -0.17857143  0.32142857  0.03571429       0.004
  -0.10714286  0.32142857  0.03571429       0.004
  -0.03571429  0.32142857  0.03571429       0.004
   0.39285714  0.39285714  0.03571429       0.002
   0.46428571  0.39285714  0.03571429       0.004
  -0.46428571  0.39285714  0.03571429       0.004
  -0.39285714  0.39285714  0.03571429       0.004
  -0.32142857  0.39285714  0.03571429       0.004
  -0.25000000  0.39285714  0.03571429       0.004
  -0.17857143  0.39285714  0.03571429       0.004
  -0.10714286  0.39285714  0.03571429       0.004
  -0.03571429  0.39285714  0.03571429       0.004
   0.46428571  0.46428571  0.03571429       0.002
  -0.46428571  0.46428571  0.03571429       0.004
  -0.39285714  0.46428571  0.03571429       0.004
  -0.32142857  0.46428571  0.03571429       0.004
  -0.25000000  0.46428571  0.03571429       0.004
  -0.17857143  0.46428571  0.03571429       0.004
  -0.10714286  0.46428571  0.03571429       0.004
  -0.03571429  0.46428571  0.03571429       0.004
  -0.46428571 -0.46428571  0.03571429       0.002
  -0.39285714 -0.46428571  0.03571429       0.004
  -0.32142857 -0.46428571  0.03571429       0.004
  -0.25000000 -0.46428571  0.03571429       0.004
  -0.17857143 -0.46428571  0.03571429       0.004
  -0.10714286 -0.46428571  0.03571429       0.004
  -0.39285714 -0.39285714  0.03571429       0.002
  -0.32142857 -0.39285714  0.03571429       0.004
  -0.25000000 -0.39285714  0.03571429       0.004
  -0.17857143 -0.39285714  0.03571429       0.004
  -0.10714286 -0.39285714  0.03571429       0.004
  -0.32142857 -0.32142857  0.03571429       0.002
  -0.25000000 -0.32142857  0.03571429       0.004
  -0.17857143 -0.32142857  0.03571429       0.004
  -0.10714286 -0.32142857  0.03571429       0.004
  -0.25000000 -0.25000000  0.03571429       0.002
  -0.17857143 -0.25000000  0.03571429       0.004
  -0.10714286 -0.25000000  0.03571429       0.004
  -0.17857143 -0.17857143  0.03571429       0.002
  -0.10714286 -0.17857143  0.03571429       0.004
  -0.10714286 -0.10714286  0.03571429       0.002
   0.10714286  0.10714286  0.10714286       0.001
   0.17857143  0.10714286  0.10714286       0.002
   0.25000000  0.10714286  0.10714286       0.002
   0.32142857  0.10714286  0.10714286       0.002
   0.39285714  0.10714286  0.10714286       0.002
   0.46428571  0.10714286  0.10714286       0.002
  -0.46428571  0.10714286  0.10714286       0.002
  -0.39285714  0.10714286  0.10714286       0.002
  -0.32142857  0.10714286  0.10714286       0.002
  -0.25000000  0.10714286  0.10714286       0.002
  -0.17857143  0.10714286  0.10714286       0.002
  -0.10714286  0.10714286  0.10714286       0.002
   0.17857143  0.17857143  0.10714286       0.002
   0.25000000  0.17857143  0.10714286       0.004
   0.32142857  0.17857143  0.10714286       0.004
   0.39285714  0.17857143  0.10714286       0.004
   0.46428571  0.17857143  0.10714286       0.004
  -0.46428571  0.17857143  0.10714286       0.004
  -0.39285714  0.17857143  0.10714286       0.004
  -0.32142857  0.17857143  0.10714286       0.004
  -0.25000000  0.17857143  0.10714286       0.004
  -0.17857143  0.17857143  0.10714286       0.004
  -0.10714286  0.17857143  0.10714286       0.004
   0.25000000  0.25000000  0.10714286       0.002
   0.32142857  0.25000000  0.10714286       0.004
   0.39285714  0.25000000  0.10714286       0.004
   0.46428571  0.25000000  0.10714286       0.004
  -0.46428571  0.25000000  0.10714286       0.004
  -0.39285714  0.25000000  0.10714286       0.004
  -0.32142857  0.25000000  0.10714286       0.004
  -0.25000000  0.25000000  0.10714286       0.004
  -0.17857143  0.25000000  0.10714286       0.004
  -0.10714286  0.25000000  0.10714286       0.004
   0.32142857  0.32142857  0.10714286       0.002
   0.39285714  0.32142857  0.10714286       0.004
   0.46428571  0.32142857  0.10714286       0.004
  -0.46428571  0.32142857  0.10714286       0.004
  -0.39285714  0.32142857  0.10714286       0.004
  -0.32142857  0.32142857  0.10714286       0.004
  -0.25000000  0.32142857  0.10714286       0.004
  -0.17857143  0.32142857  0.10714286       0.004
  -0.10714286  0.32142857  0.10714286       0.004
   0.39285714  0.39285714  0.10714286       0.002
   0.46428571  0.39285714  0.10714286       0.004
  -0.46428571  0.39285714  0.10714286       0.004
  -0.39285714  0.39285714  0.10714286       0.004
  -0.32142857  0.39285714  0.10714286       0.004
  -0.25000000  0.39285714  0.10714286       0.004
  -0.17857143  0.39285714  0.10714286       0.004
  -0.10714286  0.39285714  0.10714286       0.004
   0.46428571  0.46428571  0.10714286       0.002
  -0.46428571  0.46428571  0.10714286       0.004
  -0.39285714  0.46428571  0.10714286       0.004
  -0.32142857  0.46428571  0.10714286       0.004
  -0.25000000  0.46428571  0.10714286       0.004
  -0.17857143  0.46428571  0.10714286       0.004
  -0.10714286  0.46428571  0.10714286       0.004
  -0.46428571 -0.46428571  0.10714286       0.002
  -0.39285714 -0.46428571  0.10714286       0.004
  -0.32142857 -0.46428571  0.10714286       0.004
  -0.25000000 -0.46428571  0.10714286       0.004
  -0.17857143 -0.46428571  0.10714286       0.004
  -0.39285714 -0.39285714  0.10714286       0.002
  -0.32142857 -0.39285714  0.10714286       0.004
  -0.25000000 -0.39285714  0.10714286       0.004
  -0.17857143 -0.39285714  0.10714286       0.004
  -0.32142857 -0.32142857  0.10714286       0.002
  -0.25000000 -0.32142857  0.10714286       0.004
  -0.17857143 -0.32142857  0.10714286       0.004
  -0.25000000 -0.25000000  0.10714286       0.002
  -0.17857143 -0.25000000  0.10714286       0.004
  -0.17857143 -0.17857143  0.10714286       0.002
   0.17857143  0.17857143  0.17857143       0.001
   0.25000000  0.17857143  0.17857143       0.002
   0.32142857  0.17857143  0.17857143       0.002
   0.39285714  0.17857143  0.17857143       0.002
   0.46428571  0.17857143  0.17857143       0.002
  -0.46428571  0.17857143  0.17857143       0.002
  -0.39285714  0.17857143  0.17857143       0.002
  -0.32142857  0.17857143  0.17857143       0.002
  -0.25000000  0.17857143  0.17857143       0.002
  -0.17857143  0.17857143  0.17857143       0.002
   0.25000000  0.25000000  0.17857143       0.002
   0.32142857  0.25000000  0.17857143       0.004
   0.39285714  0.25000000  0.17857143       0.004
   0.46428571  0.25000000  0.17857143       0.004
  -0.46428571  0.25000000  0.17857143       0.004
  -0.39285714  0.25000000  0.17857143       0.004
  -0.32142857  0.25000000  0.17857143       0.004
  -0.25000000  0.25000000  0.17857143       0.004
  -0.17857143  0.25000000  0.17857143       0.004
   0.32142857  0.32142857  0.17857143       0.002
   0.39285714  0.32142857  0.17857143       0.004
   0.46428571  0.32142857  0.17857143       0.004
  -0.46428571  0.32142857  0.17857143       0.004
  -0.39285714  0.32142857  0.17857143       0.004
  -0.32142857  0.32142857  0.17857143       0.004
  -0.25000000  0.32142857  0.17857143       0.004
  -0.17857143  0.32142857  0.17857143       0.004
   0.39285714  0.39285714  0.17857143       0.002
   0.46428571  0.39285714  0.17857143       0.004
  -0.46428571  0.39285714  0.17857143       0.004
  -0.39285714  0.39285714  0.17857143       0.004
  -0.32142857  0.39285714  0.17857143       0.004
  -0.25000000  0.39285714  0.17857143       0.004
  -0.17857143  0.39285714  0.17857143       0.004
   0.46428571  0.46428571  0.17857143       0.002
  -0.46428571  0.46428571  0.17857143       0.004
  -0.39285714  0.46428571  0.17857143       0.004
  -0.32142857  0.46428571  0.17857143       0.004
  -0.25000000  0.46428571  0.17857143       0.004
  -0.17857143  0.46428571  0.17857143       0.004
  -0.46428571 -0.46428571  0.17857143       0.002
  -0.39285714 -0.46428571  0.17857143       0.004
  -0.32142857 -0.46428571  0.17857143       0.004
  -0.25000000 -0.46428571  0.17857143       0.004
  -0.39285714 -0.39285714  0.17857143       0.002
  -0.32142857 -0.39285714  0.17857143       0.004
  -0.25000000 -0.39285714  0.17857143       0.004
  -0.32142857 -0.32142857  0.17857143       0.002
  -0.25000000 -0.32142857  0.17857143       0.004
  -0.25000000 -0.25000000  0.17857143       0.002
   0.25000000  0.25000000  0.25000000       0.001
   0.32142857  0.25000000  0.25000000       0.002
   0.39285714  0.25000000  0.25000000       0.002
   0.46428571  0.25000000  0.25000000       0.002
  -0.46428571  0.25000000  0.25000000       0.002
  -0.39285714  0.25000000  0.25000000       0.002
  -0.32142857  0.25000000  0.25000000       0.002
  -0.25000000  0.25000000  0.25000000       0.002
   0.32142857  0.32142857  0.25000000       0.002
   0.39285714  0.32142857  0.25000000       0.004
   0.46428571  0.32142857  0.25000000       0.004
  -0.46428571  0.32142857  0.25000000       0.004
  -0.39285714  0.32142857  0.25000000       0.004
  -0.32142857  0.32142857  0.25000000       0.004
  -0.25000000  0.32142857  0.25000000       0.004
   0.39285714  0.39285714  0.25000000       0.002
   0.46428571  0.39285714  0.25000000       0.004
  -0.46428571  0.39285714  0.25000000       0.004
  -0.39285714  0.39285714  0.25000000       0.004
  -0.32142857  0.39285714  0.25000000       0.004
  -0.25000000  0.39285714  0.25000000       0.004
   0.46428571  0.46428571  0.25000000       0.002
  -0.46428571  0.46428571  0.25000000       0.004
  -0.39285714  0.46428571  0.25000000       0.004
  -0.32142857  0.46428571  0.25000000       0.004
  -0.25000000  0.46428571  0.25000000       0.004
  -0.46428571 -0.46428571  0.25000000       0.002
  -0.39285714 -0.46428571  0.25000000       0.004
  -0.32142857 -0.46428571  0.25000000       0.004
  -0.39285714 -0.39285714  0.25000000       0.002
  -0.32142857 -0.39285714  0.25000000       0.004
  -0.32142857 -0.32142857  0.25000000       0.002
   0.32142857  0.32142857  0.32142857       0.001
   0.39285714  0.32142857  0.32142857       0.002
   0.46428571  0.32142857  0.32142857       0.002
  -0.46428571  0.32142857  0.32142857       0.002
  -0.39285714  0.32142857  0.32142857       0.002
  -0.32142857  0.32142857  0.32142857       0.002
   0.39285714  0.39285714  0.32142857       0.002
   0.46428571  0.39285714  0.32142857       0.004
  -0.46428571  0.39285714  0.32142857       0.004
  -0.39285714  0.39285714  0.32142857       0.004
  -0.32142857  0.39285714  0.32142857       0.004
   0.46428571  0.46428571  0.32142857       0.002
  -0.46428571  0.46428571  0.32142857       0.004
  -0.39285714  0.46428571  0.32142857       0.004
  -0.32142857  0.46428571  0.32142857       0.004
  -0.46428571 -0.46428571  0.32142857       0.002
  -0.39285714 -0.46428571  0.32142857       0.004
  -0.39285714 -0.39285714  0.32142857       0.002
   0.39285714  0.39285714  0.39285714       0.001
   0.46428571  0.39285714  0.39285714       0.002
  -0.46428571  0.39285714  0.39285714       0.002
  -0.39285714  0.39285714  0.39285714       0.002
   0.46428571  0.46428571  0.39285714       0.002
  -0.46428571  0.46428571  0.39285714       0.004
  -0.39285714  0.46428571  0.39285714       0.004
  -0.46428571 -0.46428571  0.39285714       0.002
   0.46428571  0.46428571  0.46428571       0.001
  -0.46428571  0.46428571  0.46428571       0.002
 
 position of ions in fractional coordinates (direct lattice) 
   0.25000000  0.25000000  0.25000000
   0.00000000  0.00000000  0.00000000
   0.25000000  0.75000000  0.75000000
   0.00000000  0.50000000  0.50000000
   0.75000000  0.25000000  0.75000000
   0.50000000  0.00000000  0.50000000
   0.75000000  0.75000000  0.25000000
   0.50000000  0.50000000  0.00000000
 
 position of ions in cartesian coordinates  (Angst):
   0.89637927  0.89637927  0.89637927
   0.00000000  0.00000000  0.00000000
   0.90233528  2.68615981  2.68615981
   0.00595601  1.78978054  1.78978054
   2.68615981  0.90233528  2.68615981
   1.78978054  0.00595601  1.78978054
   2.68615981  2.68615981  0.90233528
   1.78978054  1.78978054  0.00595601
 


--------------------------------------------------------------------------------------------------------


 k-point  1 :   0.0357 0.0357 0.0357  plane waves:    2680
 k-point  2 :   0.1071 0.0357 0.0357  plane waves:    2678
 k-point  3 :   0.1786 0.0357 0.0357  plane waves:    2678
 k-point  4 :   0.2500 0.0357 0.0357  plane waves:    2692
 k-point  5 :   0.3214 0.0357 0.0357  plane waves:    2704
 k-point  6 :   0.3929 0.0357 0.0357  plane waves:    2686
 k-point  7 :   0.4643 0.0357 0.0357  plane waves:    2688
 k-point  8 :  -0.4643 0.0357 0.0357  plane waves:    2694
 k-point  9 :  -0.3929 0.0357 0.0357  plane waves:    2688
 k-point 10 :  -0.3214 0.0357 0.0357  plane waves:    2695
 k-point 11 :  -0.2500 0.0357 0.0357  plane waves:    2690
 k-point 12 :  -0.1786 0.0357 0.0357  plane waves:    2689
 k-point 13 :  -0.1071 0.0357 0.0357  plane waves:    2685
 k-point 14 :  -0.0357 0.0357 0.0357  plane waves:    2687
 k-point 15 :   0.1071 0.1071 0.0357  plane waves:    2676
 k-point 16 :   0.1786 0.1071 0.0357  plane waves:    2680
 k-point 17 :   0.2500 0.1071 0.0357  plane waves:    2693
 k-point 18 :   0.3214 0.1071 0.0357  plane waves:    2693
 k-point 19 :   0.3929 0.1071 0.0357  plane waves:    2692
 k-point 20 :   0.4643 0.1071 0.0357  plane waves:    2696
 k-point 21 :  -0.4643 0.1071 0.0357  plane waves:    2692
 k-point 22 :  -0.3929 0.1071 0.0357  plane waves:    2691
 k-point 23 :  -0.3214 0.1071 0.0357  plane waves:    2694
 k-point 24 :  -0.2500 0.1071 0.0357  plane waves:    2697
 k-point 25 :  -0.1786 0.1071 0.0357  plane waves:    2686
 k-point 26 :  -0.1071 0.1071 0.0357  plane waves:    2676
 k-point 27 :  -0.0357 0.1071 0.0357  plane waves:    2683
 k-point 28 :   0.1786 0.1786 0.0357  plane waves:    2684
 k-point 29 :   0.2500 0.1786 0.0357  plane waves:    2690
 k-point 30 :   0.3214 0.1786 0.0357  plane waves:    2687
 k-point 31 :   0.3929 0.1786 0.0357  plane waves:    2684
 k-point 32 :   0.4643 0.1786 0.0357  plane waves:    2688
 k-point 33 :  -0.4643 0.1786 0.0357  plane waves:    2694
 k-point 34 :  -0.3929 0.1786 0.0357  plane waves:    2688
 k-point 35 :  -0.3214 0.1786 0.0357  plane waves:    2685
 k-point 36 :  -0.2500 0.1786 0.0357  plane waves:    2691
 k-point 37 :  -0.1786 0.1786 0.0357  plane waves:    2689
 k-point 38 :  -0.1071 0.1786 0.0357  plane waves:    2681
 k-point 39 :  -0.0357 0.1786 0.0357  plane waves:    2676
 k-point 40 :   0.2500 0.2500 0.0357  plane waves:    2685
 k-point 41 :   0.3214 0.2500 0.0357  plane waves:    2680
 k-point 42 :   0.3929 0.2500 0.0357  plane waves:    2677
 k-point 43 :   0.4643 0.2500 0.0357  plane waves:    2678
 k-point 44 :  -0.4643 0.2500 0.0357  plane waves:    2681
 k-point 45 :  -0.3929 0.2500 0.0357  plane waves:    2678
 k-point 46 :  -0.3214 0.2500 0.0357  plane waves:    2676
 k-point 47 :  -0.2500 0.2500 0.0357  plane waves:    2683
 k-point 48 :  -0.1786 0.2500 0.0357  plane waves:    2688
 k-point 49 :  -0.1071 0.2500 0.0357  plane waves:    2696
 k-point 50 :  -0.0357 0.2500 0.0357  plane waves:    2694
 k-point 51 :   0.3214 0.3214 0.0357  plane waves:    2674
 k-point 52 :   0.3929 0.3214 0.0357  plane waves:    2675
 k-point 53 :   0.4643 0.3214 0.0357  plane waves:    2674
 k-point 54 :  -0.4643 0.3214 0.0357  plane waves:    2674
 k-point 55 :  -0.3929 0.3214 0.0357  plane waves:    2672
 k-point 56 :  -0.3214 0.3214 0.0357  plane waves:    2678
 k-point 57 :  -0.2500 0.3214 0.0357  plane waves:    2677
 k-point 58 :  -0.1786 0.3214 0.0357  plane waves:    2685
 k-point 59 :  -0.1071 0.3214 0.0357  plane waves:    2689
 k-point 60 :  -0.0357 0.3214 0.0357  plane waves:    2700
 k-point 61 :   0.3929 0.3929 0.0357  plane waves:    2683
 k-point 62 :   0.4643 0.3929 0.0357  plane waves:    2673
 k-point 63 :  -0.4643 0.3929 0.0357  plane waves:    2675
 k-point 64 :  -0.3929 0.3929 0.0357  plane waves:    2678
 k-point 65 :  -0.3214 0.3929 0.0357  plane waves:    2676
 k-point 66 :  -0.2500 0.3929 0.0357  plane waves:    2677
 k-point 67 :  -0.1786 0.3929 0.0357  plane waves:    2687
 k-point 68 :  -0.1071 0.3929 0.0357  plane waves:    2688
 k-point 69 :  -0.0357 0.3929 0.0357  plane waves:    2692
 k-point 70 :   0.4643 0.4643 0.0357  plane waves:    2687
 k-point 71 :  -0.4643 0.4643 0.0357  plane waves:    2681
 k-point 72 :  -0.3929 0.4643 0.0357  plane waves:    2683
 k-point 73 :  -0.3214 0.4643 0.0357  plane waves:    2673
 k-point 74 :  -0.2500 0.4643 0.0357  plane waves:    2684
 k-point 75 :  -0.1786 0.4643 0.0357  plane waves:    2692
 k-point 76 :  -0.1071 0.4643 0.0357  plane waves:    2690
 k-point 77 :  -0.0357 0.4643 0.0357  plane waves:    2704
 k-point 78 :  -0.4643-0.4643 0.0357  plane waves:    2692
 k-point 79 :  -0.3929-0.4643 0.0357  plane waves:    2679
 k-point 80 :  -0.3214-0.4643 0.0357  plane waves:    2679
 k-point 81 :  -0.2500-0.4643 0.0357  plane waves:    2686
 k-point 82 :  -0.1786-0.4643 0.0357  plane waves:    2686
 k-point 83 :  -0.1071-0.4643 0.0357  plane waves:    2691
 k-point 84 :  -0.3929-0.3929 0.0357  plane waves:    2686
 k-point 85 :  -0.3214-0.3929 0.0357  plane waves:    2676
 k-point 86 :  -0.2500-0.3929 0.0357  plane waves:    2679
 k-point 87 :  -0.1786-0.3929 0.0357  plane waves:    2687
 k-point 88 :  -0.1071-0.3929 0.0357  plane waves:    2687
 k-point 89 :  -0.3214-0.3214 0.0357  plane waves:    2683
 k-point 90 :  -0.2500-0.3214 0.0357  plane waves:    2681
 k-point 91 :  -0.1786-0.3214 0.0357  plane waves:    2683
 k-point 92 :  -0.1071-0.3214 0.0357  plane waves:    2690
 k-point 93 :  -0.2500-0.2500 0.0357  plane waves:    2683
 k-point 94 :  -0.1786-0.2500 0.0357  plane waves:    2689
 k-point 95 :  -0.1071-0.2500 0.0357  plane waves:    2695
 k-point 96 :  -0.1786-0.1786 0.0357  plane waves:    2690
 k-point 97 :  -0.1071-0.1786 0.0357  plane waves:    2689
 k-point 98 :  -0.1071-0.1071 0.0357  plane waves:    2672
 k-point 99 :   0.1071 0.1071 0.1071  plane waves:    2683
 k-point ** :   0.1786 0.1071 0.1071  plane waves:    2680
 k-point ** :   0.2500 0.1071 0.1071  plane waves:    2684
 k-point ** :   0.3214 0.1071 0.1071  plane waves:    2691
 k-point ** :   0.3929 0.1071 0.1071  plane waves:    2690
 k-point ** :   0.4643 0.1071 0.1071  plane waves:    2682
 k-point ** :  -0.4643 0.1071 0.1071  plane waves:    2696
 k-point ** :  -0.3929 0.1071 0.1071  plane waves:    2688
 k-point ** :  -0.3214 0.1071 0.1071  plane waves:    2691
 k-point ** :  -0.2500 0.1071 0.1071  plane waves:    2692
[...]
     16       8.1848      2.00000
     17      18.9895      0.00000
     18      19.1967      0.00000
     19      19.1967      0.00000
     20      19.3097      0.00000
     21      19.4557      0.00000
     22      19.4557      0.00000
     23      19.4563      0.00000
     24      19.9673      0.00000

 k-point   269 :      -0.3929   -0.4643    0.3214
  band No.  band energies     occupation 
      1      -6.3435      2.00000
      2      -5.7579      2.00000
      3      -4.7532      2.00000
      4      -4.5508      2.00000
      5      -2.0394      2.00000
      6      -1.7566      2.00000
      7      -0.7800      2.00000
      8      -0.2122      2.00000
      9       6.4569      2.00000
     10       6.5704      2.00000
     11       7.2703      2.00000
     12       7.4724      2.00000
     13       7.5057      2.00000
     14       7.6879      2.00000
     15       7.7945      2.00000
     16       8.2355      2.00000
     17      18.7483      0.00000
     18      18.8463      0.00000
     19      19.0076      0.00000
     20      19.0289      0.00000
     21      19.5930      0.00000
     22      19.6312      0.00000
     23      19.8586      0.00000
     24      19.8915      0.00000

 k-point   270 :      -0.3929   -0.3929    0.3214
  band No.  band energies     occupation 
      1      -6.8580      2.00000
      2      -5.1304      2.00000
      3      -5.1304      2.00000
      4      -4.4662      2.00000
      5      -1.9588      2.00000
      6      -1.2276      2.00000
      7      -1.2276      2.00000
      8       0.4450      2.00000
      9       6.2037      2.00000
     10       6.6620      2.00000
     11       6.6620      2.00000
     12       7.3219      2.00000
     13       7.3219      2.00000
     14       7.3278      2.00000
     15       8.0304      2.00000
     16       8.4671      2.00000
     17      18.4474      0.00000
     18      18.4685      0.00000
     19      18.4685      0.00000
     20      19.1541      0.00000
     21      19.3248      0.00000
     22      19.5388      0.00000
     23      20.3292      0.00000
     24      20.3292      0.00000

 k-point   271 :       0.3929    0.3929    0.3929
  band No.  band energies     occupation 
      1      -6.4747      2.00000
      2      -4.8337      2.00000
      3      -4.8337      2.00000
      4      -4.8337      2.00000
      5      -1.8516      2.00000
      6      -1.8516      2.00000
      7      -1.8516      2.00000
      8      -0.3366      2.00000
      9       7.0319      2.00000
     10       7.0319      2.00000
     11       7.0319      2.00000
     12       7.5107      2.00000
     13       7.5107      2.00000
     14       7.5107      2.00000
     15       8.3100      2.00000
     16       8.3100      2.00000
     17      18.6588      0.00000
     18      18.6588      0.00000
     19      18.6588      0.00000
     20      19.2718      0.00000
     21      19.2718      0.00000
     22      19.6292      0.00000
     23      20.3329      0.00000
     24      20.3329      0.00000

 k-point   272 :       0.4643    0.3929    0.3929
  band No.  band energies     occupation 
      1      -5.9869      2.00000
      2      -5.3837      2.00000
      3      -4.6259      2.00000
      4      -4.6259      2.00000
      5      -2.2177      2.00000
      6      -2.2177      2.00000
      7      -1.4762      2.00000
      8      -0.9721      2.00000
      9       7.1573      2.00000
     10       7.1573      2.00000
     11       7.6655      2.00000
     12       7.6655      2.00000
     13       7.7220      2.00000
     14       7.7567      2.00000
     15       8.0684      2.00000
     16       8.1988      2.00000
     17      18.8878      0.00000
     18      18.9958      0.00000
     19      18.9958      0.00000
     20      19.1328      0.00000
     21      19.5201      0.00000
     22      19.7596      0.00000
     23      19.7596      0.00000
     24      19.7935      0.00000

 k-point   273 :      -0.4643    0.3929    0.3929
  band No.  band energies     occupation 
      1      -5.9300      2.00000
      2      -5.4525      2.00000
      3      -4.6288      2.00000
      4      -4.6288      2.00000
      5      -2.2125      2.00000
      6      -2.2125      2.00000
      7      -1.4914      2.00000
      8      -0.9420      2.00000
      9       7.1583      2.00000
     10       7.1583      2.00000
     11       7.6598      2.00000
     12       7.6598      2.00000
     13       7.7707      2.00000
     14       7.8140      2.00000
     15       8.0077      2.00000
     16       8.1486      2.00000
     17      18.9392      0.00000
     18      18.9757      0.00000
     19      18.9757      0.00000
     20      19.0639      0.00000
     21      19.5299      0.00000
     22      19.6293      0.00000
     23      19.7688      0.00000
     24      19.7688      0.00000

 k-point   274 :      -0.3929    0.3929    0.3929
  band No.  band energies     occupation 
      1      -6.4281      2.00000
      2      -4.9151      2.00000
      3      -4.8402      2.00000
      4      -4.8402      2.00000
      5      -1.8502      2.00000
      6      -1.8383      2.00000
      7      -1.8383      2.00000
      8      -0.2938      2.00000
      9       7.0280      2.00000
     10       7.0280      2.00000
     11       7.0815      2.00000
     12       7.5016      2.00000
     13       7.5016      2.00000
     14       7.5622      2.00000
     15       8.2492      2.00000
     16       8.2550      2.00000
     17      18.6275      0.00000
     18      18.6275      0.00000
     19      18.7003      0.00000
     20      19.1766      0.00000
     21      19.2869      0.00000
     22      19.4991      0.00000
     23      20.2763      0.00000
     24      20.2764      0.00000

 k-point   275 :       0.4643    0.4643    0.3929
  band No.  band energies     occupation 
      1      -5.5392      2.00000
      2      -5.0049      2.00000
      3      -5.0049      2.00000
      4      -4.7126      2.00000
      5      -2.2973      2.00000
      6      -2.0104      2.00000
      7      -2.0104      2.00000
      8      -1.5728      2.00000
      9       7.4676      2.00000
     10       7.6376      2.00000
     11       7.6376      2.00000
     12       7.8796      2.00000
     13       7.9372      2.00000
     14       7.9372      2.00000
     15       7.9489      2.00000
     16       8.2003      2.00000
     17      19.1009      0.00000
     18      19.1439      0.00000
     19      19.1439      0.00000
     20      19.3257      0.00000
     21      19.3651      0.00000
     22      19.5228      0.00000
     23      19.5228      0.00000
     24      19.6934      0.00000

 k-point   276 :      -0.4643    0.4643    0.3929
  band No.  band energies     occupation 
      1      -5.4727      2.00000
      2      -5.0854      2.00000
      3      -5.0105      2.00000
      4      -4.7093      2.00000
      5      -2.2992      2.00000
      6      -2.0159      2.00000
      7      -2.0031      2.00000
      8      -1.5510      2.00000
      9       7.4673      2.00000
     10       7.6343      2.00000
     11       7.6921      2.00000
     12       7.8803      2.00000
     13       7.8887      2.00000
     14       7.9336      2.00000
     15       7.9956      2.00000
     16       8.1443      2.00000
     17      19.0880      0.00000
     18      19.1577      0.00000
     19      19.2139      0.00000
     20      19.2300      0.00000
     21      19.3596      0.00000
     22      19.5187      0.00000
     23      19.5410      0.00000
     24      19.6291      0.00000

 k-point   277 :      -0.3929    0.4643    0.3929
  band No.  band energies     occupation 
      1      -5.9333      2.00000
      2      -5.3897      2.00000
      3      -4.7167      2.00000
      4      -4.6265      2.00000
      5      -2.2127      2.00000
      6      -2.2101      2.00000
      7      -1.4656      2.00000
      8      -0.9362      2.00000
      9       7.1447      2.00000
     10       7.2090      2.00000
     11       7.6735      2.00000
     12       7.7125      2.00000
     13       7.7231      2.00000
     14       7.7537      2.00000
     15       8.0089      2.00000
     16       8.1388      2.00000
     17      18.8809      0.00000
     18      18.9931      0.00000
     19      19.0453      0.00000
     20      19.0909      0.00000
     21      19.4616      0.00000
     22      19.6641      0.00000
     23      19.6763      0.00000
     24      19.7974      0.00000

 k-point   278 :      -0.4643   -0.4643    0.3929
  band No.  band energies     occupation 
      1      -5.4764      2.00000
      2      -5.0070      2.00000
      3      -5.0070      2.00000
      4      -4.8004      2.00000
      5      -2.2953      2.00000
      6      -2.0060      2.00000
      7      -2.0060      2.00000
      8      -1.5465      2.00000
      9       7.5255      2.00000
     10       7.6281      2.00000
     11       7.6281      2.00000
     12       7.8889      2.00000
     13       7.9379      2.00000
     14       7.9424      2.00000
     15       7.9424      2.00000
     16       8.1384      2.00000
     17      19.1511      0.00000
     18      19.1893      0.00000
     19      19.1893      0.00000
     20      19.2911      0.00000
     21      19.3350      0.00000
     22      19.4078      0.00000
     23      19.4078      0.00000
     24      19.6591      0.00000

 k-point   279 :       0.4643    0.4643    0.4643
  band No.  band energies     occupation 
      1      -5.1704      2.00000
      2      -4.7927      2.00000
      3      -4.7927      2.00000
      4      -4.7927      2.00000
      5      -2.3854      2.00000
      6      -2.3854      2.00000
      7      -2.3854      2.00000
      8      -2.1007      2.00000
      9       7.9304      2.00000
     10       7.9304      2.00000
     11       7.9304      2.00000
     12       7.9822      2.00000
     13       7.9822      2.00000
     14       7.9822      2.00000
     15       8.1345      2.00000
     16       8.1345      2.00000
     17      19.1899      0.00000
     18      19.1899      0.00000
     19      19.1899      0.00000
     20      19.3207      0.00000
     21      19.3207      0.00000
     22      19.4507      0.00000
     23      19.4507      0.00000
     24      19.4507      0.00000

 k-point   280 :      -0.4643    0.4643    0.4643
  band No.  band energies     occupation 
      1      -5.0919      2.00000
      2      -4.8839      2.00000
      3      -4.7936      2.00000
      4      -4.7936      2.00000
      5      -2.3837      2.00000
      6      -2.3837      2.00000
      7      -2.3819      2.00000
      8      -2.0904      2.00000
      9       7.9242      2.00000
     10       7.9242      2.00000
     11       7.9860      2.00000
     12       7.9866      2.00000
     13       7.9866      2.00000
     14       8.0451      2.00000
     15       8.0706      2.00000
     16       8.0786      2.00000
     17      19.2110      0.00000
     18      19.2110      0.00000
     19      19.2216      0.00000
     20      19.2637      0.00000
     21      19.3295      0.00000
     22      19.3917      0.00000
     23      19.3917      0.00000
     24      19.4445      0.00000


--------------------------------------------------------------------------------------------------------


 soft charge-density along one line, spin component           1
         0         1         2         3         4         5         6         7         8         9
 total charge-density along one line
 
 pseudopotential strength for first ion, spin component:           1
 12.170  20.467  -0.000  -0.000  -0.000  -0.000  -0.000  -0.000
 20.467  34.420  -0.000  -0.000  -0.000  -0.000  -0.000  -0.000
 -0.000  -0.000  -2.970  -0.000  -0.000  -5.307  -0.000  -0.000
 -0.000  -0.000  -0.000  -2.970  -0.000  -0.000  -5.307  -0.000
 -0.000  -0.000  -0.000  -0.000  -2.970  -0.000  -0.000  -5.307
 -0.000  -0.000  -5.307  -0.000  -0.000  -9.460  -0.000  -0.000
 -0.000  -0.000  -0.000  -5.307  -0.000  -0.000  -9.460  -0.000
 -0.000  -0.000  -0.000  -0.000  -5.307  -0.000  -0.000  -9.460
 total augmentation occupancy for first ion, spin component:           1
  7.187  -2.505   0.020   0.020   0.020  -0.008  -0.008  -0.008
 -2.505   0.929  -0.009  -0.009  -0.009   0.004   0.004   0.004
  0.020  -0.009   5.670  -0.011  -0.011  -1.836   0.004   0.004
  0.020  -0.009  -0.011   5.670  -0.011   0.004  -1.836   0.004
  0.020  -0.009  -0.011  -0.011   5.670   0.004   0.004  -1.836
 -0.008   0.004  -1.836   0.004   0.004   0.612  -0.001  -0.001
 -0.008   0.004   0.004  -1.836   0.004  -0.001   0.612  -0.001
 -0.008   0.004   0.004   0.004  -1.836  -0.001  -0.001   0.612


------------------------ aborting loop because EDIFF is reached ----------------------------------------


    CHARGE:  cpu time    0.2100: real time    0.2098
    FORLOC:  cpu time    0.0000: real time    0.0003
    FORNL :  cpu time    0.6399: real time    0.6404
    STRESS:  cpu time    4.0024: real time    4.0115
    FORCOR:  cpu time    0.0040: real time    0.0034
    FORHAR:  cpu time    0.0010: real time    0.0009
    MIXING:  cpu time    0.0000: real time    0.0003
    OFIELD:  cpu time    0.0000: real time    0.0001

  FORCE on cell =-STRESS in cart. coord.  units (eV):
  Direction    XX          YY          ZZ          XY          YZ          ZX
  --------------------------------------------------------------------------------------
  Alpha Z    76.87920    76.87920    76.87920
  Ewald    -463.06149  -463.06149  -463.06149    -1.58131    -1.58131    -1.58131
  Hartree    35.19501    35.19501    35.19501    -0.42279    -0.42279    -0.42279
  E(xc)    -132.03236  -132.03236  -132.03236     0.00537     0.00537     0.00537
  Local    -126.65805  -126.65805  -126.65805     1.93046     1.93046     1.93046
  n-local    28.68727    28.68726    28.78530     0.01171     0.50092    -0.33808
  augment     0.48714     0.48714     0.48714    -0.00119    -0.00119    -0.00119
  Kinetic   577.44806   577.43616   585.37212     0.00096    -4.98295     3.43911
  Fock        0.00000     0.00000     0.00000     0.00000     0.00000     0.00000
  -------------------------------------------------------------------------------------
  Total      -0.38516    -0.38516    -0.38516    -0.52557    -0.52557    -0.52557
  in kB     -13.52180   -13.52180   -13.52180   -18.45130   -18.45130   -18.45130
  external pressure =      -13.52 kB  Pullay stress =        0.00 kB


 VOLUME and BASIS-vectors are now :
 -----------------------------------------------------------------------------
  energy-cutoff  :      875.00
  volume of cell :       45.64
      direct lattice vectors                 reciprocal lattice vectors
     3.573605071  0.005956008  0.005956008     0.279831018 -0.000465609 -0.000465609
     0.005956008  3.573605071  0.005956008    -0.000465609  0.279831018 -0.000465609
     0.005956008  0.005956008  3.573605071    -0.000465609 -0.000465609  0.279831018

  length of vectors
     3.573614998  3.573614998  3.573614998     0.279831793  0.279831793  0.279831793


 FORCES acting on ions
    electron-ion (+dipol)            ewald-force                    non-local-force                 convergence-correction
 -----------------------------------------------------------------------------------------------
   0.630E+00 0.630E+00 0.630E+00   -.586E+00 -.586E+00 -.586E+00   -.438E-01 -.438E-01 -.438E-01   -.445E-04 -.445E-04 -.445E-04
   -.630E+00 -.630E+00 -.630E+00   0.586E+00 0.586E+00 0.586E+00   0.438E-01 0.438E-01 0.438E-01   0.445E-04 0.445E-04 0.445E-04
   0.630E+00 0.630E+00 0.630E+00   -.586E+00 -.586E+00 -.586E+00   -.438E-01 -.438E-01 -.438E-01   -.445E-04 -.445E-04 -.445E-04
   -.630E+00 -.630E+00 -.630E+00   0.586E+00 0.586E+00 0.586E+00   0.438E-01 0.438E-01 0.438E-01   0.445E-04 0.445E-04 0.445E-04
   0.630E+00 0.630E+00 0.630E+00   -.586E+00 -.586E+00 -.586E+00   -.438E-01 -.438E-01 -.438E-01   -.445E-04 -.445E-04 -.445E-04
   -.630E+00 -.630E+00 -.630E+00   0.586E+00 0.586E+00 0.586E+00   0.438E-01 0.438E-01 0.438E-01   0.445E-04 0.445E-04 0.445E-04
   0.630E+00 0.630E+00 0.630E+00   -.586E+00 -.586E+00 -.586E+00   -.438E-01 -.438E-01 -.438E-01   -.445E-04 -.445E-04 -.445E-04
   -.630E+00 -.630E+00 -.630E+00   0.586E+00 0.586E+00 0.586E+00   0.438E-01 0.438E-01 0.438E-01   0.445E-04 0.445E-04 0.445E-04
 -----------------------------------------------------------------------------------------------
   0.205E-12 0.126E-11 -.142E-11   -.261E-13 -.222E-15 -.200E-14   -.625E-16 0.902E-16 0.555E-16   0.309E-13 0.230E-13 -.756E-14
 
 
 POSITION                                       TOTAL-FORCE (eV/Angst)
 -----------------------------------------------------------------------------------
      0.89627      0.89627      0.89627        -0.000008     -0.000008     -0.000008
      0.00011      0.00011      0.00011         0.000008      0.000008      0.000008
      0.90223      2.68605      2.68605        -0.000008     -0.000008     -0.000008
      0.00606      1.78989      1.78989         0.000008      0.000008      0.000008
      2.68605      0.90223      2.68605        -0.000008     -0.000008     -0.000008
      1.78989      0.00606      1.78989         0.000008      0.000008      0.000008
      2.68605      2.68605      0.90223        -0.000008     -0.000008     -0.000008
      1.78989      1.78989      0.00606         0.000008      0.000008      0.000008
 -----------------------------------------------------------------------------------
    total drift:                                0.000000      0.000000     -0.000000


--------------------------------------------------------------------------------------------------------



  FREE ENERGIE OF THE ION-ELECTRON SYSTEM (eV)
  ---------------------------------------------------
  free  energy   TOTEN  =       -72.84246207 eV

  energy  without entropy=      -72.84246207  energy(sigma->0) =      -72.84246207
 
 d Force = 0.6142964E-04[-0.512E-07, 0.123E-03]  d Energy = 0.6143249E-04-0.284E-08
 d Force =-0.3603795E-02[-0.375E-02,-0.346E-02]  d Ewald  =-0.3603926E-02 0.131E-06


--------------------------------------------------------------------------------------------------------


    POTLOK:  cpu time    0.0110: real time    0.0114


--------------------------------------------------------------------------------------------------------


 stress matrix after NEB project (eV)
     -0.38516     -0.52557     -0.52557
     -0.52557     -0.38516     -0.52557
     -0.52557     -0.52557     -0.38516
  FORCES: max atom, RMS     0.000014    0.000014
  FORCE total and by dimension    0.000039    0.000008
  Stress total and by dimension    1.449965    0.525572


--------------------------------------------------------------------------------------------------------


  
 reached required accuracy - stopping structural energy minimisation
     LOOP+:  cpu time   40.6438: real time   40.8130
    4ORBIT:  cpu time    0.0000: real time    0.0000

 total amount of memory used by VASP MPI-rank0    94461. kBytes
=======================================================================

   base      :      30000. kBytes
   nonl-proj :      48946. kBytes
   fftplans  :        905. kBytes
   grid      :       2114. kBytes
   one-center:         24. kBytes
   wavefun   :      12472. kBytes
 
  
  
 General timing and accounting informations for this job:
 ========================================================
  
                  Total CPU time used (sec):      183.831
                            User time (sec):      181.900
                          System time (sec):        1.931
                         Elapsed time (sec):      195.677
  
                   Maximum memory used (kb):      188704.
                   Average memory used (kb):           0.
  
                          Minor page faults:        47217
                          Major page faults:          385
                 Voluntary context switches:         8184
