 running on   24 total cores
 distrk:  each k-point on   24 cores,    1 groups
 distr:  one band on    1 cores,   24 groups
 using from now: INCAR     
 vasp.5.4.4.18Apr17-6-g9f103f2a35 (build Jan 14 2019 14:48:31) complex          
  
 POSCAR found type information on POSCAR  C 
 POSCAR found :  1 types and       8 ions
 scaLAPACK will be used

 ----------------------------------------------------------------------------- 
|                                                                             |
|           W    W    AA    RRRRR   N    N  II  N    N   GGGG   !!!           |
|           W    W   A  A   R    R  NN   N  II  NN   N  G    G  !!!           |
|           W    W  A    A  R    R  N N  N  II  N N  N  G       !!!           |
|           W WW W  AAAAAA  RRRRR   N  N N  II  N  N N  G  GGG   !            |
|           WW  WW  A    A  R   R   N   NN  II  N   NN  G    G                |
|           W    W  A    A  R    R  N    N  II  N    N   GGGG   !!!           |
|                                                                             |
|      For optimal performance we recommend to set                            |
|        NCORE= 4 - approx SQRT( number of cores)                             |
|      NCORE specifies how many cores store one orbital (NPAR=cpu/NCORE).     |
|      This setting can  greatly improve the performance of VASP for DFT.     |
|      The default,   NCORE=1            might be grossly inefficient         |
|      on modern multi-core architectures or massively parallel machines.     |
|      Do your own testing !!!!                                               |
|      Unfortunately you need to use the default for GW and RPA calculations. |
|      (for HF NCORE is supported but not extensively tested yet)             |
|                                                                             |
 ----------------------------------------------------------------------------- 

 WARNING: for PREC=h ENMAX is automatically increase by 25 %
        this was not the case for versions prior to vasp.4.4
 LDA part: xc-table for Pade appr. of Perdew
 POSCAR found type information on POSCAR  C 
 POSCAR found :  1 types and       8 ions
 POSCAR, INCAR and KPOINTS ok, starting setup
 FFT: planning ...
 WAVECAR not read
 entering main loop
       N       E                     dE             d eps       ncg     rms          rms(c)
DAV:   1     0.100622280412E+03    0.10062E+03   -0.25910E+04 13440   0.199E+03
DAV:   2    -0.724783151060E+02   -0.17310E+03   -0.17047E+03 21624   0.225E+02
DAV:   3    -0.752616019461E+02   -0.27833E+01   -0.27833E+01 15312   0.403E+01
DAV:   4    -0.752812678113E+02   -0.19666E-01   -0.19666E-01 25224   0.263E+00
DAV:   5    -0.752812705542E+02   -0.27429E-05   -0.27428E-05 15216   0.368E-02    0.165E+01
DAV:   6    -0.734551767765E+02    0.18261E+01   -0.13761E+00 15720   0.625E+00    0.108E+01
DAV:   7    -0.728437970015E+02    0.61138E+00   -0.17869E+00 19656   0.720E+00    0.229E+00
DAV:   8    -0.728421464352E+02    0.16506E-02   -0.24153E-02 21672   0.118E+00    0.119E-01
DAV:   9    -0.728423281479E+02   -0.18171E-03   -0.45800E-04 19512   0.142E-01    0.616E-02
DAV:  10    -0.728424505967E+02   -0.12245E-03   -0.11588E-04 20736   0.854E-02    0.481E-03
DAV:  11    -0.728424517403E+02   -0.11436E-05   -0.16627E-06 20592   0.101E-02    0.285E-03
DAV:  12    -0.728424520957E+02   -0.35543E-06   -0.64203E-08 20856   0.231E-03    0.145E-04
DAV:  13    -0.728424521053E+02   -0.96134E-08   -0.18952E-10 20784   0.108E-04
   1 F= -.72842452E+02 E0= -.72842452E+02  d E =-.728425E+02
 curvature:   0.00 expect dE= 0.000E+00 dE for cont linesearch  0.000E+00
 trial: gam= 0.00000 g(F)=  0.694E-04 g(S)=  0.000E+00 ort = 0.000E+00 (trialstep = 0.100E+01)
 search vector abs. value=  0.694E-04
 bond charge predicted
       N       E                     dE             d eps       ncg     rms          rms(c)
DAV:   1    -0.728423970710E+02    0.55025E-04   -0.14389E-02 17616   0.968E-01    0.235E-02
DAV:   2    -0.728424018612E+02   -0.47902E-05   -0.82410E-05 22848   0.667E-02    0.119E-02
DAV:   3    -0.728424005946E+02    0.12666E-05   -0.35376E-06 18672   0.125E-02    0.251E-03
DAV:   4    -0.728424006362E+02   -0.41564E-07   -0.32575E-07 21720   0.404E-03    0.915E-04
DAV:   5    -0.728424006396E+02   -0.34506E-08   -0.29247E-08 18168   0.120E-03
   2 F= -.72842401E+02 E0= -.72842401E+02  d E =0.514657E-04
 trial-energy change:    0.000051  1 .order    0.000051   -0.000069    0.000172
 step:   0.2870(harm=  0.2870)  dis= 0.00011  next Energy=   -72.842462 (dE=-0.996E-05)
 bond charge predicted
       N       E                     dE             d eps       ncg     rms          rms(c)
DAV:   1    -0.728424601058E+02   -0.59470E-04   -0.73167E-03 17232   0.691E-01    0.168E-02
DAV:   2    -0.728424626936E+02   -0.25879E-05   -0.42934E-05 22824   0.481E-02    0.850E-03
DAV:   3    -0.728424620565E+02    0.63711E-06   -0.17602E-06 18264   0.882E-03    0.187E-03
DAV:   4    -0.728424620771E+02   -0.20584E-07   -0.17330E-07 21960   0.293E-03    0.649E-04
DAV:   5    -0.728424620721E+02    0.50131E-08   -0.15678E-08 15816   0.884E-04
   3 F= -.72842462E+02 E0= -.72842462E+02  d E =-.996676E-05
 curvature:  -0.14 expect dE=-0.107E-10 dE for cont linesearch -0.107E-10
 trial: gam=-0.00103 g(F)=  0.742E-10 g(S)=  0.000E+00 ort = 0.718E-07 (trialstep = 0.857E+00)
 search vector abs. value=  0.100E-09
 reached required accuracy - stopping structural energy minimisation
