<?xml version="1.0" encoding="ISO-8859-1"?>
<modeling>
 <generator>
  <i name="program" type="string">vasp </i>
  <i name="version" type="string">5.4.4.18Apr17-6-g9f103f2a35  </i>
  <i name="subversion" type="string">(build Jan 14 2019 14:48:31) complex            parallel </i>
  <i name="platform" type="string">LinuxIFC </i>
  <i name="date" type="string">2019 08 26 </i>
  <i name="time" type="string">21:07:08 </i>
 </generator>
 <incar>
  <i type="int" name="ISTART">     0</i>
  <i type="string" name="PREC">high     (precision level)</i>
  <i type="logical" name="ADDGRID"> T  </i>
  <i type="int" name="NELM">    40</i>
  <i type="int" name="NELMIN">     4</i>
  <i type="int" name="IBRION">     2</i>
  <i name="EDIFF">      0.00000001</i>
  <i name="EDIFFG">     -0.01000000</i>
  <i type="int" name="NSW">   100</i>
  <i type="int" name="ISIF">     2</i>
  <i type="logical" name="LREAL"> F  </i>
  <i type="int" name="ISMEAR">     0</i>
  <i name="SIGMA">      0.05000000</i>
  <i type="logical" name="LWAVE"> F  </i>
  <i type="logical" name="LCHARG"> F  </i>
  <v type="int" name="KPOINT_BSE">    -1     0     0     0</v>
  <i type="int" name="NELM">    40</i>
 </incar>
 <structure name="primitive_cell" >
  <crystal>
   <varray name="basis" >
    <v>      -0.00595601      -1.78978054      -1.78978054 </v>
    <v>      -1.78978054      -1.78978054      -0.00595601 </v>
    <v>      -1.78978054      -0.00595601      -1.78978054 </v>
   </varray>
   <i name="volume">     11.40922279 </i>
   <varray name="rec_basis" >
    <v>       0.28076224      -0.27983102      -0.27983102 </v>
    <v>      -0.27983102      -0.27983102       0.28076224 </v>
    <v>      -0.27983102       0.28076224      -0.27983102 </v>
   </varray>
  </crystal>
  <varray name="positions" >
   <v>      -0.25000000      -0.25000000      -0.25000000 </v>
   <v>       0.00000000       0.00000000       0.00000000 </v>
  </varray>
 </structure>
 <varray name="primitive_index" >
  <v type="int" >        1 </v>
  <v type="int" >        4 </v>
 </varray>
 <kpoints>
  <generation param="Monkhorst-Pack">
   <v type="int" name="divisions">      14       14       14 </v>
   <v name="usershift">      0.00000000       0.00000000       0.00000000 </v>
   <v name="genvec1">      0.07142857       0.00000000       0.00000000 </v>
   <v name="genvec2">      0.00000000       0.07142857       0.00000000 </v>
   <v name="genvec3">      0.00000000       0.00000000       0.07142857 </v>
   <v name="shift">      0.50000000       0.50000000       0.50000000 </v>
  </generation>
  <varray name="kpointlist" >
   <v>       0.03571429       0.03571429       0.03571429 </v>
   <v>       0.10714286       0.03571429       0.03571429 </v>
   <v>       0.17857143       0.03571429       0.03571429 </v>
   <v>       0.25000000       0.03571429       0.03571429 </v>
   <v>       0.32142857       0.03571429       0.03571429 </v>
   <v>       0.39285714       0.03571429       0.03571429 </v>
   <v>       0.46428571       0.03571429       0.03571429 </v>
   <v>      -0.46428571       0.03571429       0.03571429 </v>
   <v>      -0.39285714       0.03571429       0.03571429 </v>
   <v>      -0.32142857       0.03571429       0.03571429 </v>
   <v>      -0.25000000       0.03571429       0.03571429 </v>
   <v>      -0.17857143       0.03571429       0.03571429 </v>
   <v>      -0.10714286       0.03571429       0.03571429 </v>
   <v>      -0.03571429       0.03571429       0.03571429 </v>
   <v>       0.10714286       0.10714286       0.03571429 </v>
   <v>       0.17857143       0.10714286       0.03571429 </v>
   <v>       0.25000000       0.10714286       0.03571429 </v>
   <v>       0.32142857       0.10714286       0.03571429 </v>
   <v>       0.39285714       0.10714286       0.03571429 </v>
   <v>       0.46428571       0.10714286       0.03571429 </v>
   <v>      -0.46428571       0.10714286       0.03571429 </v>
   <v>      -0.39285714       0.10714286       0.03571429 </v>
   <v>      -0.32142857       0.10714286       0.03571429 </v>
   <v>      -0.25000000       0.10714286       0.03571429 </v>
   <v>      -0.17857143       0.10714286       0.03571429 </v>
   <v>      -0.10714286       0.10714286       0.03571429 </v>
   <v>      -0.03571429       0.10714286       0.03571429 </v>
   <v>       0.17857143       0.17857143       0.03571429 </v>
   <v>       0.25000000       0.17857143       0.03571429 </v>
   <v>       0.32142857       0.17857143       0.03571429 </v>
   <v>       0.39285714       0.17857143       0.03571429 </v>
   <v>       0.46428571       0.17857143       0.03571429 </v>
   <v>      -0.46428571       0.17857143       0.03571429 </v>
   <v>      -0.39285714       0.17857143       0.03571429 </v>
   <v>      -0.32142857       0.17857143       0.03571429 </v>
   <v>      -0.25000000       0.17857143       0.03571429 </v>
   <v>      -0.17857143       0.17857143       0.03571429 </v>
   <v>      -0.10714286       0.17857143       0.03571429 </v>
   <v>      -0.03571429       0.17857143       0.03571429 </v>
   <v>       0.25000000       0.25000000       0.03571429 </v>
   <v>       0.32142857       0.25000000       0.03571429 </v>
   <v>       0.39285714       0.25000000       0.03571429 </v>
   <v>       0.46428571       0.25000000       0.03571429 </v>
   <v>      -0.46428571       0.25000000       0.03571429 </v>
   <v>      -0.39285714       0.25000000       0.03571429 </v>
   <v>      -0.32142857       0.25000000       0.03571429 </v>
   <v>      -0.25000000       0.25000000       0.03571429 </v>
   <v>      -0.17857143       0.25000000       0.03571429 </v>
   <v>      -0.10714286       0.25000000       0.03571429 </v>
   <v>      -0.03571429       0.25000000       0.03571429 </v>
   <v>       0.32142857       0.32142857       0.03571429 </v>
   <v>       0.39285714       0.32142857       0.03571429 </v>
   <v>       0.46428571       0.32142857       0.03571429 </v>
   <v>      -0.46428571       0.32142857       0.03571429 </v>
   <v>      -0.39285714       0.32142857       0.03571429 </v>
   <v>      -0.32142857       0.32142857       0.03571429 </v>
   <v>      -0.25000000       0.32142857       0.03571429 </v>
   <v>      -0.17857143       0.32142857       0.03571429 </v>
   <v>      -0.10714286       0.32142857       0.03571429 </v>
   <v>      -0.03571429       0.32142857       0.03571429 </v>
   <v>       0.39285714       0.39285714       0.03571429 </v>
   <v>       0.46428571       0.39285714       0.03571429 </v>
   <v>      -0.46428571       0.39285714       0.03571429 </v>
   <v>      -0.39285714       0.39285714       0.03571429 </v>
   <v>      -0.32142857       0.39285714       0.03571429 </v>
   <v>      -0.25000000       0.39285714       0.03571429 </v>
   <v>      -0.17857143       0.39285714       0.03571429 </v>
   <v>      -0.10714286       0.39285714       0.03571429 </v>
   <v>      -0.03571429       0.39285714       0.03571429 </v>
   <v>       0.46428571       0.46428571       0.03571429 </v>
   <v>      -0.46428571       0.46428571       0.03571429 </v>
   <v>      -0.39285714       0.46428571       0.03571429 </v>
   <v>      -0.32142857       0.46428571       0.03571429 </v>
   <v>      -0.25000000       0.46428571       0.03571429 </v>
   <v>      -0.17857143       0.46428571       0.03571429 </v>
   <v>      -0.10714286       0.46428571       0.03571429 </v>
   <v>      -0.03571429       0.46428571       0.03571429 </v>
   <v>      -0.46428571      -0.46428571       0.03571429 </v>
   <v>      -0.39285714      -0.46428571       0.03571429 </v>
   <v>      -0.32142857      -0.46428571       0.03571429 </v>
   <v>      -0.25000000      -0.46428571       0.03571429 </v>
   <v>      -0.17857143      -0.46428571       0.03571429 </v>
   <v>      -0.10714286      -0.46428571       0.03571429 </v>
   <v>      -0.39285714      -0.39285714       0.03571429 </v>
   <v>      -0.32142857      -0.39285714       0.03571429 </v>
   <v>      -0.25000000      -0.39285714       0.03571429 </v>
   <v>      -0.17857143      -0.39285714       0.03571429 </v>
   <v>      -0.10714286      -0.39285714       0.03571429 </v>
   <v>      -0.32142857      -0.32142857       0.03571429 </v>
   <v>      -0.25000000      -0.32142857       0.03571429 </v>
   <v>      -0.17857143      -0.32142857       0.03571429 </v>
   <v>      -0.10714286      -0.32142857       0.03571429 </v>
   <v>      -0.25000000      -0.25000000       0.03571429 </v>
   <v>      -0.17857143      -0.25000000       0.03571429 </v>
   <v>      -0.10714286      -0.25000000       0.03571429 </v>
   <v>      -0.17857143      -0.17857143       0.03571429 </v>
   <v>      -0.10714286      -0.17857143       0.03571429 </v>
   <v>      -0.10714286      -0.10714286       0.03571429 </v>
   <v>       0.10714286       0.10714286       0.10714286 </v>
   <v>       0.17857143       0.10714286       0.10714286 </v>
   <v>       0.25000000       0.10714286       0.10714286 </v>
   <v>       0.32142857       0.10714286       0.10714286 </v>
   <v>       0.39285714       0.10714286       0.10714286 </v>
   <v>       0.46428571       0.10714286       0.10714286 </v>
   <v>      -0.46428571       0.10714286       0.10714286 </v>
   <v>      -0.39285714       0.10714286       0.10714286 </v>
   <v>      -0.32142857       0.10714286       0.10714286 </v>
   <v>      -0.25000000       0.10714286       0.10714286 </v>
   <v>      -0.17857143       0.10714286       0.10714286 </v>
   <v>      -0.10714286       0.10714286       0.10714286 </v>
   <v>       0.17857143       0.17857143       0.10714286 </v>
   <v>       0.25000000       0.17857143       0.10714286 </v>
   <v>       0.32142857       0.17857143       0.10714286 </v>
   <v>       0.39285714       0.17857143       0.10714286 </v>
   <v>       0.46428571       0.17857143       0.10714286 </v>
   <v>      -0.46428571       0.17857143       0.10714286 </v>
   <v>      -0.39285714       0.17857143       0.10714286 </v>
   <v>      -0.32142857       0.17857143       0.10714286 </v>
   <v>      -0.25000000       0.17857143       0.10714286 </v>
   <v>      -0.17857143       0.17857143       0.10714286 </v>
   <v>      -0.10714286       0.17857143       0.10714286 </v>
   <v>       0.25000000       0.25000000       0.10714286 </v>
   <v>       0.32142857       0.25000000       0.10714286 </v>
   <v>       0.39285714       0.25000000       0.10714286 </v>
   <v>       0.46428571       0.25000000       0.10714286 </v>
   <v>      -0.46428571       0.25000000       0.10714286 </v>
   <v>      -0.39285714       0.25000000       0.10714286 </v>
   <v>      -0.32142857       0.25000000       0.10714286 </v>
   <v>      -0.25000000       0.25000000       0.10714286 </v>
   <v>      -0.17857143       0.25000000       0.10714286 </v>
   <v>      -0.10714286       0.25000000       0.10714286 </v>
   <v>       0.32142857       0.32142857       0.10714286 </v>
   <v>       0.39285714       0.32142857       0.10714286 </v>
   <v>       0.46428571       0.32142857       0.10714286 </v>
   <v>      -0.46428571       0.32142857       0.10714286 </v>
   <v>      -0.39285714       0.32142857       0.10714286 </v>
   <v>      -0.32142857       0.32142857       0.10714286 </v>
   <v>      -0.25000000       0.32142857       0.10714286 </v>
   <v>      -0.17857143       0.32142857       0.10714286 </v>
   <v>      -0.10714286       0.32142857       0.10714286 </v>
   <v>       0.39285714       0.39285714       0.10714286 </v>
   <v>       0.46428571       0.39285714       0.10714286 </v>
   <v>      -0.46428571       0.39285714       0.10714286 </v>
   <v>      -0.39285714       0.39285714       0.10714286 </v>
   <v>      -0.32142857       0.39285714       0.10714286 </v>
   <v>      -0.25000000       0.39285714       0.10714286 </v>
   <v>      -0.17857143       0.39285714       0.10714286 </v>
   <v>      -0.10714286       0.39285714       0.10714286 </v>
   <v>       0.46428571       0.46428571       0.10714286 </v>
   <v>      -0.46428571       0.46428571       0.10714286 </v>
   <v>      -0.39285714       0.46428571       0.10714286 </v>
   <v>      -0.32142857       0.46428571       0.10714286 </v>
   <v>      -0.25000000       0.46428571       0.10714286 </v>
   <v>      -0.17857143       0.46428571       0.10714286 </v>
   <v>      -0.10714286       0.46428571       0.10714286 </v>
   <v>      -0.46428571      -0.46428571       0.10714286 </v>
   <v>      -0.39285714      -0.46428571       0.10714286 </v>
   <v>      -0.32142857      -0.46428571       0.10714286 </v>
   <v>      -0.25000000      -0.46428571       0.10714286 </v>
   <v>      -0.17857143      -0.46428571       0.10714286 </v>
   <v>      -0.39285714      -0.39285714       0.10714286 </v>
   <v>      -0.32142857      -0.39285714       0.10714286 </v>
   <v>      -0.25000000      -0.39285714       0.10714286 </v>
   <v>      -0.17857143      -0.39285714       0.10714286 </v>
   <v>      -0.32142857      -0.32142857       0.10714286 </v>
   <v>      -0.25000000      -0.32142857       0.10714286 </v>
   <v>      -0.17857143      -0.32142857       0.10714286 </v>
   <v>      -0.25000000      -0.25000000       0.10714286 </v>
   <v>      -0.17857143      -0.25000000       0.10714286 </v>
   <v>      -0.17857143      -0.17857143       0.10714286 </v>
   <v>       0.17857143       0.17857143       0.17857143 </v>
   <v>       0.25000000       0.17857143       0.17857143 </v>
   <v>       0.32142857       0.17857143       0.17857143 </v>
   <v>       0.39285714       0.17857143       0.17857143 </v>
   <v>       0.46428571       0.17857143       0.17857143 </v>
   <v>      -0.46428571       0.17857143       0.17857143 </v>
   <v>      -0.39285714       0.17857143       0.17857143 </v>
   <v>      -0.32142857       0.17857143       0.17857143 </v>
   <v>      -0.25000000       0.17857143       0.17857143 </v>
   <v>      -0.17857143       0.17857143       0.17857143 </v>
   <v>       0.25000000       0.25000000       0.17857143 </v>
   <v>       0.32142857       0.25000000       0.17857143 </v>
   <v>       0.39285714       0.25000000       0.17857143 </v>
   <v>       0.46428571       0.25000000       0.17857143 </v>
   <v>      -0.46428571       0.25000000       0.17857143 </v>
   <v>      -0.39285714       0.25000000       0.17857143 </v>
   <v>      -0.32142857       0.25000000       0.17857143 </v>
   <v>      -0.25000000       0.25000000       0.17857143 </v>
   <v>      -0.17857143       0.25000000       0.17857143 </v>
   <v>       0.32142857       0.32142857       0.17857143 </v>
   <v>       0.39285714       0.32142857       0.17857143 </v>
   <v>       0.46428571       0.32142857       0.17857143 </v>
   <v>      -0.46428571       0.32142857       0.17857143 </v>
   <v>      -0.39285714       0.32142857       0.17857143 </v>
   <v>      -0.32142857       0.32142857       0.17857143 </v>
   <v>      -0.25000000       0.32142857       0.17857143 </v>
   <v>      -0.17857143       0.32142857       0.17857143 </v>
   <v>       0.39285714       0.39285714       0.17857143 </v>
   <v>       0.46428571       0.39285714       0.17857143 </v>
   <v>      -0.46428571       0.39285714       0.17857143 </v>
   <v>      -0.39285714       0.39285714       0.17857143 </v>
   <v>      -0.32142857       0.39285714       0.17857143 </v>
   <v>      -0.25000000       0.39285714       0.17857143 </v>
   <v>      -0.17857143       0.39285714       0.17857143 </v>
   <v>       0.46428571       0.46428571       0.17857143 </v>
   <v>      -0.46428571       0.46428571       0.17857143 </v>
   <v>      -0.39285714       0.46428571       0.17857143 </v>
   <v>      -0.32142857       0.46428571       0.17857143 </v>
   <v>      -0.25000000       0.46428571       0.17857143 </v>
   <v>      -0.17857143       0.46428571       0.17857143 </v>
   <v>      -0.46428571      -0.46428571       0.17857143 </v>
   <v>      -0.39285714      -0.46428571       0.17857143 </v>
   <v>      -0.32142857      -0.46428571       0.17857143 </v>
   <v>      -0.25000000      -0.46428571       0.17857143 </v>
   <v>      -0.39285714      -0.39285714       0.17857143 </v>
   <v>      -0.32142857      -0.39285714       0.17857143 </v>
   <v>      -0.25000000      -0.39285714       0.17857143 </v>
   <v>      -0.32142857      -0.32142857       0.17857143 </v>
   <v>      -0.25000000      -0.32142857       0.17857143 </v>
   <v>      -0.25000000      -0.25000000       0.17857143 </v>
   <v>       0.25000000       0.25000000       0.25000000 </v>
   <v>       0.32142857       0.25000000       0.25000000 </v>
   <v>       0.39285714       0.25000000       0.25000000 </v>
   <v>       0.46428571       0.25000000       0.25000000 </v>
   <v>      -0.46428571       0.25000000       0.25000000 </v>
   <v>      -0.39285714       0.25000000       0.25000000 </v>
   <v>      -0.32142857       0.25000000       0.25000000 </v>
   <v>      -0.25000000       0.25000000       0.25000000 </v>
   <v>       0.32142857       0.32142857       0.25000000 </v>
   <v>       0.39285714       0.32142857       0.25000000 </v>
   <v>       0.46428571       0.32142857       0.25000000 </v>
   <v>      -0.46428571       0.32142857       0.25000000 </v>
   <v>      -0.39285714       0.32142857       0.25000000 </v>
   <v>      -0.32142857       0.32142857       0.25000000 </v>
   <v>      -0.25000000       0.32142857       0.25000000 </v>
   <v>       0.39285714       0.39285714       0.25000000 </v>
   <v>       0.46428571       0.39285714       0.25000000 </v>
   <v>      -0.46428571       0.39285714       0.25000000 </v>
   <v>      -0.39285714       0.39285714       0.25000000 </v>
   <v>      -0.32142857       0.39285714       0.25000000 </v>
   <v>      -0.25000000       0.39285714       0.25000000 </v>
   <v>       0.46428571       0.46428571       0.25000000 </v>
   <v>      -0.46428571       0.46428571       0.25000000 </v>
   <v>      -0.39285714       0.46428571       0.25000000 </v>
   <v>      -0.32142857       0.46428571       0.25000000 </v>
   <v>      -0.25000000       0.46428571       0.25000000 </v>
   <v>      -0.46428571      -0.46428571       0.25000000 </v>
   <v>      -0.39285714      -0.46428571       0.25000000 </v>
   <v>      -0.32142857      -0.46428571       0.25000000 </v>
   <v>      -0.39285714      -0.39285714       0.25000000 </v>
   <v>      -0.32142857      -0.39285714       0.25000000 </v>
   <v>      -0.32142857      -0.32142857       0.25000000 </v>
   <v>       0.32142857       0.32142857       0.32142857 </v>
   <v>       0.39285714       0.32142857       0.32142857 </v>
   <v>       0.46428571       0.32142857       0.32142857 </v>
   <v>      -0.46428571       0.32142857       0.32142857 </v>
   <v>      -0.39285714       0.32142857       0.32142857 </v>
   <v>      -0.32142857       0.32142857       0.32142857 </v>
   <v>       0.39285714       0.39285714       0.32142857 </v>
   <v>       0.46428571       0.39285714       0.32142857 </v>
   <v>      -0.46428571       0.39285714       0.32142857 </v>
   <v>      -0.39285714       0.39285714       0.32142857 </v>
   <v>      -0.32142857       0.39285714       0.32142857 </v>
   <v>       0.46428571       0.46428571       0.32142857 </v>
   <v>      -0.46428571       0.46428571       0.32142857 </v>
   <v>      -0.39285714       0.46428571       0.32142857 </v>
   <v>      -0.32142857       0.46428571       0.32142857 </v>
   <v>      -0.46428571      -0.46428571       0.32142857 </v>
   <v>      -0.39285714      -0.46428571       0.32142857 </v>
   <v>      -0.39285714      -0.39285714       0.32142857 </v>
   <v>       0.39285714       0.39285714       0.39285714 </v>
   <v>       0.46428571       0.39285714       0.39285714 </v>
   <v>      -0.46428571       0.39285714       0.39285714 </v>
   <v>      -0.39285714       0.39285714       0.39285714 </v>
   <v>       0.46428571       0.46428571       0.39285714 </v>
   <v>      -0.46428571       0.46428571       0.39285714 </v>
   <v>      -0.39285714       0.46428571       0.39285714 </v>
   <v>      -0.46428571      -0.46428571       0.39285714 </v>
   <v>       0.46428571       0.46428571       0.46428571 </v>
   <v>      -0.46428571       0.46428571       0.46428571 </v>
  </varray>
  <varray name="weights" >
   <v>       0.00072886 </v>
   <v>       0.00218659 </v>
   <v>       0.00218659 </v>
   <v>       0.00218659 </v>
   <v>       0.00218659 </v>
   <v>       0.00218659 </v>
   <v>       0.00218659 </v>
   <v>       0.00218659 </v>
   <v>       0.00218659 </v>
   <v>       0.00218659 </v>
   <v>       0.00218659 </v>
   <v>       0.00218659 </v>
   <v>       0.00218659 </v>
   <v>       0.00218659 </v>
   <v>       0.00218659 </v>
   <v>       0.00437318 </v>
   <v>       0.00437318 </v>
   <v>       0.00437318 </v>
   <v>       0.00437318 </v>
   <v>       0.00437318 </v>
   <v>       0.00437318 </v>
   <v>       0.00437318 </v>
   <v>       0.00437318 </v>
   <v>       0.00437318 </v>
   <v>       0.00437318 </v>
   <v>       0.00437318 </v>
   <v>       0.00437318 </v>
   <v>       0.00218659 </v>
   <v>       0.00437318 </v>
   <v>       0.00437318 </v>
   <v>       0.00437318 </v>
   <v>       0.00437318 </v>
   <v>       0.00437318 </v>
   <v>       0.00437318 </v>
   <v>       0.00437318 </v>
   <v>       0.00437318 </v>
   <v>       0.00437318 </v>
   <v>       0.00437318 </v>
   <v>       0.00437318 </v>
   <v>       0.00218659 </v>
   <v>       0.00437318 </v>
   <v>       0.00437318 </v>
   <v>       0.00437318 </v>
   <v>       0.00437318 </v>
   <v>       0.00437318 </v>
   <v>       0.00437318 </v>
   <v>       0.00437318 </v>
   <v>       0.00437318 </v>
   <v>       0.00437318 </v>
   <v>       0.00437318 </v>
   <v>       0.00218659 </v>
   <v>       0.00437318 </v>
   <v>       0.00437318 </v>
   <v>       0.00437318 </v>
   <v>       0.00437318 </v>
   <v>       0.00437318 </v>
   <v>       0.00437318 </v>
   <v>       0.00437318 </v>
   <v>       0.00437318 </v>
   <v>       0.00437318 </v>
   <v>       0.00218659 </v>
   <v>       0.00437318 </v>
   <v>       0.00437318 </v>
   <v>       0.00437318 </v>
   <v>       0.00437318 </v>
   <v>       0.00437318 </v>
   <v>       0.00437318 </v>
   <v>       0.00437318 </v>
   <v>       0.00437318 </v>
   <v>       0.00218659 </v>
   <v>       0.00437318 </v>
   <v>       0.00437318 </v>
   <v>       0.00437318 </v>
   <v>       0.00437318 </v>
   <v>       0.00437318 </v>
   <v>       0.00437318 </v>
   <v>       0.00437318 </v>
   <v>       0.00218659 </v>
   <v>       0.00437318 </v>
   <v>       0.00437318 </v>
   <v>       0.00437318 </v>
   <v>       0.00437318 </v>
   <v>       0.00437318 </v>
   <v>       0.00218659 </v>
   <v>       0.00437318 </v>
   <v>       0.00437318 </v>
   <v>       0.00437318 </v>
   <v>       0.00437318 </v>
   <v>       0.00218659 </v>
   <v>       0.00437318 </v>
   <v>       0.00437318 </v>
   <v>       0.00437318 </v>
   <v>       0.00218659 </v>
   <v>       0.00437318 </v>
   <v>       0.00437318 </v>
   <v>       0.00218659 </v>
   <v>       0.00437318 </v>
   <v>       0.00218659 </v>
   <v>       0.00072886 </v>
   <v>       0.00218659 </v>
   <v>       0.00218659 </v>
   <v>       0.00218659 </v>
   <v>       0.00218659 </v>
   <v>       0.00218659 </v>
   <v>       0.00218659 </v>
   <v>       0.00218659 </v>
   <v>       0.00218659 </v>
   <v>       0.00218659 </v>
   <v>       0.00218659 </v>
   <v>       0.00218659 </v>
   <v>       0.00218659 </v>
   <v>       0.00437318 </v>
   <v>       0.00437318 </v>
   <v>       0.00437318 </v>
   <v>       0.00437318 </v>
   <v>       0.00437318 </v>
   <v>       0.00437318 </v>
   <v>       0.00437318 </v>
   <v>       0.00437318 </v>
   <v>       0.00437318 </v>
   <v>       0.00437318 </v>
   <v>       0.00218659 </v>
   <v>       0.00437318 </v>
   <v>       0.00437318 </v>
   <v>       0.00437318 </v>
   <v>       0.00437318 </v>
   <v>       0.00437318 </v>
   <v>       0.00437318 </v>
   <v>       0.00437318 </v>
   <v>       0.00437318 </v>
   <v>       0.00437318 </v>
   <v>       0.00218659 </v>
   <v>       0.00437318 </v>
   <v>       0.00437318 </v>
   <v>       0.00437318 </v>
   <v>       0.00437318 </v>
   <v>       0.00437318 </v>
   <v>       0.00437318 </v>
   <v>       0.00437318 </v>
   <v>       0.00437318 </v>
   <v>       0.00218659 </v>
   <v>       0.00437318 </v>
   <v>       0.00437318 </v>
   <v>       0.00437318 </v>
   <v>       0.00437318 </v>
   <v>       0.00437318 </v>
   <v>       0.00437318 </v>
   <v>       0.00437318 </v>
   <v>       0.00218659 </v>
   <v>       0.00437318 </v>
   <v>       0.00437318 </v>
   <v>       0.00437318 </v>
   <v>       0.00437318 </v>
   <v>       0.00437318 </v>
   <v>       0.00437318 </v>
   <v>       0.00218659 </v>
   <v>       0.00437318 </v>
   <v>       0.00437318 </v>
   <v>       0.00437318 </v>
   <v>       0.00437318 </v>
   <v>       0.00218659 </v>
   <v>       0.00437318 </v>
   <v>       0.00437318 </v>
   <v>       0.00437318 </v>
   <v>       0.00218659 </v>
   <v>       0.00437318 </v>
   <v>       0.00437318 </v>
   <v>       0.00218659 </v>
   <v>       0.00437318 </v>
   <v>       0.00218659 </v>
   <v>       0.00072886 </v>
   <v>       0.00218659 </v>
   <v>       0.00218659 </v>
   <v>       0.00218659 </v>
   <v>       0.00218659 </v>
   <v>       0.00218659 </v>
   <v>       0.00218659 </v>
   <v>       0.00218659 </v>
   <v>       0.00218659 </v>
   <v>       0.00218659 </v>
   <v>       0.00218659 </v>
   <v>       0.00437318 </v>
   <v>       0.00437318 </v>
   <v>       0.00437318 </v>
   <v>       0.00437318 </v>
   <v>       0.00437318 </v>
   <v>       0.00437318 </v>
   <v>       0.00437318 </v>
   <v>       0.00437318 </v>
   <v>       0.00218659 </v>
   <v>       0.00437318 </v>
   <v>       0.00437318 </v>
   <v>       0.00437318 </v>
   <v>       0.00437318 </v>
   <v>       0.00437318 </v>
   <v>       0.00437318 </v>
   <v>       0.00437318 </v>
   <v>       0.00218659 </v>
   <v>       0.00437318 </v>
   <v>       0.00437318 </v>
   <v>       0.00437318 </v>
   <v>       0.00437318 </v>
   <v>       0.00437318 </v>
   <v>       0.00437318 </v>
   <v>       0.00218659 </v>
   <v>       0.00437318 </v>
   <v>       0.00437318 </v>
   <v>       0.00437318 </v>
   <v>       0.00437318 </v>
   <v>       0.00437318 </v>
   <v>       0.00218659 </v>
   <v>       0.00437318 </v>
   <v>       0.00437318 </v>
   <v>       0.00437318 </v>
   <v>       0.00218659 </v>
   <v>       0.00437318 </v>
   <v>       0.00437318 </v>
   <v>       0.00218659 </v>
   <v>       0.00437318 </v>
   <v>       0.00218659 </v>
   <v>       0.00072886 </v>
   <v>       0.00218659 </v>
   <v>       0.00218659 </v>
   <v>       0.00218659 </v>
   <v>       0.00218659 </v>
   <v>       0.00218659 </v>
   <v>       0.00218659 </v>
   <v>       0.00218659 </v>
   <v>       0.00218659 </v>
   <v>       0.00437318 </v>
   <v>       0.00437318 </v>
   <v>       0.00437318 </v>
   <v>       0.00437318 </v>
   <v>       0.00437318 </v>
   <v>       0.00437318 </v>
   <v>       0.00218659 </v>
   <v>       0.00437318 </v>
   <v>       0.00437318 </v>
   <v>       0.00437318 </v>
   <v>       0.00437318 </v>
   <v>       0.00437318 </v>
   <v>       0.00218659 </v>
   <v>       0.00437318 </v>
   <v>       0.00437318 </v>
   <v>       0.00437318 </v>
   <v>       0.00437318 </v>
   <v>       0.00218659 </v>
   <v>       0.00437318 </v>
   <v>       0.00437318 </v>
   <v>       0.00218659 </v>
   <v>       0.00437318 </v>
   <v>       0.00218659 </v>
   <v>       0.00072886 </v>
   <v>       0.00218659 </v>
   <v>       0.00218659 </v>
   <v>       0.00218659 </v>
   <v>       0.00218659 </v>
   <v>       0.00218659 </v>
   <v>       0.00218659 </v>
   <v>       0.00437318 </v>
   <v>       0.00437318 </v>
   <v>       0.00437318 </v>
   <v>       0.00437318 </v>
   <v>       0.00218659 </v>
   <v>       0.00437318 </v>
   <v>       0.00437318 </v>
   <v>       0.00437318 </v>
   <v>       0.00218659 </v>
   <v>       0.00437318 </v>
   <v>       0.00218659 </v>
   <v>       0.00072886 </v>
   <v>       0.00218659 </v>
   <v>       0.00218659 </v>
   <v>       0.00218659 </v>
   <v>       0.00218659 </v>
   <v>       0.00437318 </v>
   <v>       0.00437318 </v>
   <v>       0.00218659 </v>
   <v>       0.00072886 </v>
   <v>       0.00218659 </v>
  </varray>
 </kpoints>
 <parameters>
  <separator name="general" >
   <i type="string" name="SYSTEM">unknown system</i>
   <i type="logical" name="LCOMPAT"> F  </i>
  </separator>
  <separator name="electronic" >
   <i type="string" name="PREC">high</i>
   <i name="ENMAX">    875.00000000</i>
   <i name="ENAUG">    946.76800000</i>
   <i name="EDIFF">      0.00000001</i>
   <i type="int" name="IALGO">    38</i>
   <i type="int" name="IWAVPR">    11</i>
   <i type="int" name="NBANDS">    24</i>
   <i name="NELECT">     32.00000000</i>
   <i type="int" name="TURBO">     0</i>
   <i type="int" name="IRESTART">     0</i>
   <i type="int" name="NREBOOT">     0</i>
   <i type="int" name="NMIN">     0</i>
   <i name="EREF">      0.00000000</i>
   <separator name="electronic smearing" >
    <i type="int" name="ISMEAR">     0</i>
    <i name="SIGMA">      0.05000000</i>
    <i name="KSPACING">      0.50000000</i>
    <i type="logical" name="KGAMMA"> T  </i>
   </separator>
   <separator name="electronic projectors" >
    <i type="logical" name="LREAL"> F  </i>
    <v name="ROPT">      0.00000000</v>
    <i type="int" name="LMAXPAW">  -100</i>
    <i type="int" name="LMAXMIX">     2</i>
    <i type="logical" name="NLSPLINE"> F  </i>
   </separator>
   <separator name="electronic startup" >
    <i type="int" name="ISTART">     0</i>
    <i type="int" name="ICHARG">     2</i>
    <i type="int" name="INIWAV">     1</i>
   </separator>
   <separator name="electronic spin" >
    <i type="int" name="ISPIN">     1</i>
    <i type="logical" name="LNONCOLLINEAR"> F  </i>
    <v name="MAGMOM">      1.00000000      1.00000000      1.00000000      1.00000000      1.00000000      1.00000000      1.00000000      1.00000000</v>
    <i name="NUPDOWN">     -1.00000000</i>
    <i type="logical" name="LSORBIT"> F  </i>
    <v name="SAXIS">      0.00000000      0.00000000      1.00000000</v>
    <i type="logical" name="LSPIRAL"> F  </i>
    <v name="QSPIRAL">      0.00000000      0.00000000      0.00000000</v>
    <i type="logical" name="LZEROZ"> F  </i>
   </separator>
   <separator name="electronic exchange-correlation" >
    <i type="logical" name="LASPH"> F  </i>
    <i type="logical" name="LMETAGGA"> F  </i>
   </separator>
   <separator name="electronic convergence" >
    <i type="int" name="NELM">    40</i>
    <i type="int" name="NELMDL">    -5</i>
    <i type="int" name="NELMIN">     4</i>
    <i name="ENINI">    875.00000000</i>
    <separator name="electronic convergence detail" >
     <i type="logical" name="LDIAG"> T  </i>
     <i type="logical" name="LSUBROT"> F  </i>
     <i name="WEIMIN">      0.00100000</i>
     <i name="EBREAK">      0.00000000</i>
     <i name="DEPER">      0.30000000</i>
     <i type="int" name="NRMM">     4</i>
     <i name="TIME">      0.40000000</i>
    </separator>
   </separator>
   <separator name="electronic mixer" >
    <i name="AMIX">      0.40000000</i>
    <i name="BMIX">      1.00000000</i>
    <i name="AMIN">      0.10000000</i>
    <i name="AMIX_MAG">      1.60000000</i>
    <i name="BMIX_MAG">      1.00000000</i>
    <separator name="electronic mixer details" >
     <i type="int" name="IMIX">     4</i>
     <i type="logical" name="MIXFIRST"> F  </i>
     <i type="int" name="MAXMIX">   -45</i>
     <i name="WC">    100.00000000</i>
     <i type="int" name="INIMIX">     1</i>
     <i type="int" name="MIXPRE">     1</i>
     <i type="int" name="MREMOVE">     5</i>
    </separator>
   </separator>
   <separator name="electronic dipolcorrection" >
    <i type="logical" name="LDIPOL"> F  </i>
    <i type="logical" name="LMONO"> F  </i>
    <i type="int" name="IDIPOL">     0</i>
    <i name="EPSILON">      1.00000000</i>
    <v name="DIPOL">   -100.00000000   -100.00000000   -100.00000000</v>
    <i name="EFIELD">      0.00000000</i>
   </separator>
  </separator>
  <separator name="grids" >
   <i type="int" name="NGX">    36</i>
   <i type="int" name="NGY">    36</i>
   <i type="int" name="NGZ">    36</i>
   <i type="int" name="NGXF">    48</i>
   <i type="int" name="NGYF">    48</i>
   <i type="int" name="NGZF">    48</i>
   <i type="logical" name="ADDGRID"> T  </i>
  </separator>
  <separator name="ionic" >
   <i type="int" name="NSW">   100</i>
   <i type="int" name="IBRION">     2</i>
   <i type="int" name="MDALGO">     0</i>
   <i type="int" name="ISIF">     2</i>
   <i name="PSTRESS">      0.00000000</i>
   <i name="EDIFFG">     -0.01000000</i>
   <i type="int" name="NFREE">     1</i>
   <i name="POTIM">      0.50000000</i>
   <i name="SMASS">     -3.00000000</i>
   <i name="SCALEE">      1.00000000</i>
  </separator>
  <separator name="ionic md" >
   <i name="TEBEG">      0.00010000</i>
   <i name="TEEND">      0.00010000</i>
   <i type="int" name="NBLOCK">     1</i>
   <i type="int" name="KBLOCK">   100</i>
   <i type="int" name="NPACO">   256</i>
   <i name="APACO">     16.00000000</i>
  </separator>
  <separator name="symmetry" >
   <i type="int" name="ISYM">     2</i>
   <i name="SYMPREC">      0.00001000</i>
  </separator>
  <separator name="dos" >
   <i type="int" name="LORBIT">     0</i>
   <v name="RWIGS">     -1.00000000</v>
   <i type="int" name="NEDOS">   301</i>
   <i name="EMIN">     10.00000000</i>
   <i name="EMAX">    -10.00000000</i>
   <i name="EFERMI">      0.00000000</i>
  </separator>
  <separator name="writing" >
   <i type="int" name="NWRITE">     2</i>
   <i type="logical" name="LWAVE"> F  </i>
   <i type="logical" name="LDOWNSAMPLE"> F  </i>
   <i type="logical" name="LCHARG"> F  </i>
   <i type="logical" name="LPARD"> F  </i>
   <i type="logical" name="LVTOT"> F  </i>
   <i type="logical" name="LVHAR"> F  </i>
   <i type="logical" name="LELF"> F  </i>
   <i type="logical" name="LOPTICS"> F  </i>
   <v name="STM">      0.00000000      0.00000000      0.00000000      0.00000000      0.00000000      0.00000000      0.00000000</v>
  </separator>
  <separator name="performance" >
   <i type="int" name="NPAR">    24</i>
   <i type="int" name="NSIM">     4</i>
   <i type="int" name="NBLK">    -1</i>
   <i type="logical" name="LPLANE"> T  </i>
   <i type="logical" name="LSCALAPACK"> T  </i>
   <i type="logical" name="LSCAAWARE"> F  </i>
   <i type="logical" name="LSCALU"> F  </i>
   <i type="logical" name="LASYNC"> F  </i>
   <i type="logical" name="LORBITALREAL"> F  </i>
  </separator>
  <separator name="miscellaneous" >
   <i type="int" name="IDIOT">     3</i>
   <i type="int" name="ISPECIAL">     0</i>
   <i type="logical" name="LMUSIC"> F  </i>
   <v name="POMASS">     12.01100000</v>
   <v name="DARWINR">      0.00000000</v>
   <v name="DARWINV">      1.00000000</v>
   <i type="logical" name="LCORR"> T  </i>
  </separator>
  <i type="logical" name="GGA_COMPAT"> T  </i>
  <i type="logical" name="LBERRY"> F  </i>
  <i type="int" name="ICORELEVEL">     0</i>
  <i type="logical" name="LDAU"> F  </i>
  <i type="int" name="I_CONSTRAINED_M">     0</i>
  <separator name="electronic exchange-correlation" >
   <i type="string" name="GGA">--</i>
   <i type="int" name="VOSKOWN">     0</i>
   <i type="logical" name="LHFCALC"> F  </i>
   <i type="string" name="PRECFOCK"></i>
   <i type="logical" name="LSYMGRAD"> F  </i>
   <i type="logical" name="LHFONE"> F  </i>
   <i type="logical" name="LRHFCALC"> F  </i>
   <i type="logical" name="LTHOMAS"> F  </i>
   <i type="logical" name="LMODELHF"> F  </i>
   <i name="ENCUT4O">     -1.00000000</i>
   <i type="int" name="EXXOEP">     0</i>
   <i type="int" name="FOURORBIT">     0</i>
   <i name="AEXX">      0.00000000</i>
   <i name="HFALPHA">      0.00000000</i>
   <i name="MCALPHA">      0.00000000</i>
   <i name="ALDAX">      1.00000000</i>
   <i name="AGGAX">      1.00000000</i>
   <i name="ALDAC">      1.00000000</i>
   <i name="AGGAC">      1.00000000</i>
   <i type="int" name="NKREDX">     1</i>
   <i type="int" name="NKREDY">     1</i>
   <i type="int" name="NKREDZ">     1</i>
   <i type="logical" name="SHIFTRED"> F  </i>
   <i type="logical" name="ODDONLY"> F  </i>
   <i type="logical" name="EVENONLY"> F  </i>
   <i type="int" name="LMAXFOCK">     0</i>
   <i type="int" name="NMAXFOCKAE">     0</i>
   <i type="logical" name="LFOCKAEDFT"> F  </i>
   <i name="HFSCREEN">      0.00000000</i>
   <i name="HFSCREENC">      0.00000000</i>
   <i type="int" name="NBANDSGWLOW">     0</i>
  </separator>
  <separator name="vdW DFT" >
   <i type="logical" name="LUSE_VDW"> F  </i>
   <i name="Zab_VDW">     -0.84910000</i>
   <i name="PARAM1">      0.12340000</i>
   <i name="PARAM2">      1.00000000</i>
   <i name="PARAM3">      0.00000000</i>
  </separator>
  <separator name="model GW" >
   <i type="int" name="MODEL_GW">     0</i>
   <i name="MODEL_EPS0">      3.42276684</i>
   <i name="MODEL_ALPHA">      1.00000000</i>
  </separator>
  <separator name="linear response parameters" >
   <i type="logical" name="LEPSILON"> F  </i>
   <i type="logical" name="LRPA"> F  </i>
   <i type="logical" name="LNABLA"> F  </i>
   <i type="logical" name="LVEL"> F  </i>
   <i type="int" name="KINTER">     0</i>
   <i name="CSHIFT">      0.10000000</i>
   <i name="OMEGAMAX">     -1.00000000</i>
   <i name="DEG_THRESHOLD">      0.00200000</i>
   <i name="RTIME">     -0.10000000</i>
   <i name="WPLASMAI">      0.00000000</i>
   <v name="DFIELD">      0.00000000      0.00000000      0.00000000</v>
   <v name="WPLASMA">      0.00000000      0.00000000      0.00000000      0.00000000      0.00000000      0.00000000      0.00000000      0.00000000      0.00000000</v>
  </separator>
  <separator name="orbital magnetization" >
   <i type="logical" name="NUCIND"> F  </i>
   <v name="MAGPOS">      0.00000000      0.00000000      0.00000000</v>
   <i type="logical" name="LNICSALL"> T  </i>
   <i type="logical" name="ORBITALMAG"> F  </i>
   <i type="logical" name="LMAGBLOCH"> F  </i>
   <i type="logical" name="LCHIMAG"> F  </i>
   <i type="logical" name="LGAUGE"> T  </i>
   <i type="int" name="MAGATOM">     0</i>
   <v name="MAGDIPOL">      0.00000000      0.00000000      0.00000000</v>
   <v name="AVECCONST">      0.00000000      0.00000000      0.00000000</v>
  </separator>
  <separator name="response functions" >
   <i type="logical" name="LADDER"> F  </i>
   <i type="logical" name="LRPAFORCE"> F  </i>
   <i type="logical" name="LFXC"> F  </i>
   <i type="logical" name="LHARTREE"> T  </i>
   <i type="int" name="IBSE">     0</i>
   <v type="int" name="KPOINT">    -1     0     0     0</v>
   <i type="logical" name="LTCTE"> F  </i>
   <i type="logical" name="LTETE"> F  </i>
   <i type="logical" name="LTRIPLET"> F  </i>
   <i type="logical" name="LFXCEPS"> F  </i>
   <i type="logical" name="LFXHEG"> F  </i>
   <i type="int" name="NATURALO">     2</i>
   <i type="logical" name="L2ORDER"> F  </i>
   <i type="logical" name="LMP2LT"> F  </i>
   <i type="logical" name="LUSEW"> F  </i>
   <i name="ENCUTGW">     -2.00000000</i>
   <i name="ENCUTGWSOFT">     -2.00000000</i>
   <i name="ENCUTLF">     -1.00000000</i>
   <i type="int" name="LMAXMP2">    -1</i>
   <i name="SCISSOR">      0.00000000</i>
   <i type="int" name="NOMEGA">     0</i>
   <i type="int" name="NOMEGAR">     0</i>
   <i type="int" name="NBANDSGW">    -1</i>
   <i type="int" name="NBANDSO">    -1</i>
   <i type="int" name="NBANDSV">    -1</i>
   <i type="int" name="NELM">    40</i>
   <i type="int" name="NELMHF">     1</i>
   <i type="int" name="DIM">     3</i>
   <i type="int" name="ANTIRES">     0</i>
   <i name="OMEGAMAX">    -30.00000000</i>
   <i name="OMEGAMIN">    -30.00000000</i>
   <i name="OMEGATL">   -200.00000000</i>
   <i type="int" name="OMEGAGRID">   140</i>
   <i name="CSHIFT">     -0.10000000</i>
   <i type="logical" name="SELFENERGY"> F  </i>
   <i type="logical" name="LSPECTRAL"> F  </i>
   <i type="logical" name="LSPECTRALGW"> F  </i>
   <i type="logical" name="LSINGLES"> F  </i>
   <i type="logical" name="LFERMIGW"> F  </i>
   <i type="logical" name="ODDONLYGW"> F  </i>
   <i type="logical" name="EVENONLYGW"> F  </i>
   <i type="int" name="NKREDLFX">     1</i>
   <i type="int" name="NKREDLFY">     1</i>
   <i type="int" name="NKREDLFZ">     1</i>
   <i type="int" name="MAXMEM">  2800</i>
   <i type="int" name="TELESCOPE">     0</i>
   <i type="int" name="TAUPAR">     1</i>
   <i type="int" name="OMEGAPAR">    -1</i>
   <i name="LAMBDA">      1.00000000</i>
  </separator>
  <separator name="External order field" >
   <i name="OFIELD_KAPPA">      0.00000000</i>
   <v name="OFIELD_K">      0.00000000      0.00000000      0.00000000</v>
   <i name="OFIELD_Q6_NEAR">      0.00000000</i>
   <i name="OFIELD_Q6_FAR">      0.00000000</i>
   <i name="OFIELD_A">      0.00000000</i>
  </separator>
 </parameters>
 <atominfo>
  <atoms>       8 </atoms>
  <types>       1 </types>
  <array name="atoms" >
   <dimension dim="1">ion</dimension>
   <field type="string">element</field>
   <field type="int">atomtype</field>
   <set>
    <rc><c>C </c><c>   1</c></rc>
    <rc><c>C </c><c>   1</c></rc>
    <rc><c>C </c><c>   1</c></rc>
    <rc><c>C </c><c>   1</c></rc>
    <rc><c>C </c><c>   1</c></rc>
    <rc><c>C </c><c>   1</c></rc>
    <rc><c>C </c><c>   1</c></rc>
    <rc><c>C </c><c>   1</c></rc>
   </set>
  </array>
  <array name="atomtypes" >
   <dimension dim="1">type</dimension>
   <field type="int">atomspertype</field>
   <field type="string">element</field>
   <field>mass</field>
   <field>valence</field>
   <field type="string">pseudopotential</field>
   <set>
    <rc><c>   8</c><c>C </c><c>     12.01100000</c><c>      4.00000000</c><c>  PAW_PBE C_h 06Feb2004                 </c></rc>
   </set>
  </array>
 </atominfo>
 <structure name="initialpos" >
  <crystal>
   <varray name="basis" >
    <v>       3.57360507       0.00595601       0.00595601 </v>
    <v>       0.00595601       3.57360507       0.00595601 </v>
    <v>       0.00595601       0.00595601       3.57360507 </v>
   </varray>
   <i name="volume">     45.63689116 </i>
   <varray name="rec_basis" >
    <v>       0.27983102      -0.00046561      -0.00046561 </v>
    <v>      -0.00046561       0.27983102      -0.00046561 </v>
    <v>      -0.00046561      -0.00046561       0.27983102 </v>
   </varray>
  </crystal>
  <varray name="positions" >
   <v>       0.25000000       0.25000000       0.25000000 </v>
   <v>       0.00000000       0.00000000       0.00000000 </v>
   <v>       0.25000000       0.75000000       0.75000000 </v>
   <v>       0.00000000       0.50000000       0.50000000 </v>
   <v>       0.75000000       0.25000000       0.75000000 </v>
   <v>       0.50000000       0.00000000       0.50000000 </v>
   <v>       0.75000000       0.75000000       0.25000000 </v>
   <v>       0.50000000       0.50000000       0.00000000 </v>
  </varray>
 </structure>
 <calculation>
  <scstep>
   <time name="dav">    4.45    5.43</time>
   <time name="total">    4.48    5.50</time>
   <energy>
    <i name="alphaZ">     76.87919854 </i>
    <i name="ewald">  -1389.18056441 </i>
    <i name="hartreedc">    -70.48379600 </i>
    <i name="XCdc">     62.04347900 </i>
    <i name="pawpsdc">    914.77613359 </i>
    <i name="pawaedc">   -872.73161751 </i>
    <i name="eentropy">     -0.00136931 </i>
    <i name="bandstr">    202.10804385 </i>
    <i name="atom">   1177.21277265 </i>
    <i name="e_fr_energy">    100.62228041 </i>
    <i name="e_wo_entrp">    100.62364972 </i>
    <i name="e_0_energy">    100.62296507 </i>
   </energy>
  </scstep>
  <scstep>
   <time name="dav">    7.62    7.66</time>
   <time name="total">    7.62    7.66</time>
   <energy>
    <i name="e_fr_energy">    -72.47831511 </i>
    <i name="e_wo_entrp">    -72.47831511 </i>
    <i name="e_0_energy">    -72.47831511 </i>
   </energy>
  </scstep>
  <scstep>
   <time name="dav">    5.23    5.26</time>
   <time name="total">    5.23    5.26</time>
   <energy>
    <i name="e_fr_energy">    -75.26160195 </i>
    <i name="e_wo_entrp">    -75.26160195 </i>
    <i name="e_0_energy">    -75.26160195 </i>
   </energy>
  </scstep>
  <scstep>
   <time name="dav">    9.52    9.55</time>
   <time name="total">    9.52    9.56</time>
   <energy>
    <i name="e_fr_energy">    -75.28126781 </i>
    <i name="e_wo_entrp">    -75.28126781 </i>
    <i name="e_0_energy">    -75.28126781 </i>
   </energy>
  </scstep>
  <scstep>
   <time name="dav">    5.20    5.22</time>
   <time name="total">    5.42    5.50</time>
   <energy>
    <i name="e_fr_energy">    -75.28127055 </i>
    <i name="e_wo_entrp">    -75.28127055 </i>
    <i name="e_0_energy">    -75.28127055 </i>
   </energy>
  </scstep>
  <scstep>
   <time name="dav">    5.29    5.30</time>
   <time name="total">    5.52    5.55</time>
   <energy>
    <i name="e_fr_energy">    -73.45517678 </i>
    <i name="e_wo_entrp">    -73.45517678 </i>
    <i name="e_0_energy">    -73.45517678 </i>
   </energy>
  </scstep>
  <scstep>
   <time name="dav">    6.94    6.96</time>
   <time name="total">    7.16    7.19</time>
   <energy>
    <i name="e_fr_energy">    -72.84379700 </i>
    <i name="e_wo_entrp">    -72.84379700 </i>
    <i name="e_0_energy">    -72.84379700 </i>
   </energy>
  </scstep>
  <scstep>
   <time name="dav">    7.91    7.93</time>
   <time name="total">    8.13    8.16</time>
   <energy>
    <i name="e_fr_energy">    -72.84214644 </i>
    <i name="e_wo_entrp">    -72.84214644 </i>
    <i name="e_0_energy">    -72.84214644 </i>
   </energy>
  </scstep>
  <scstep>
   <time name="dav">    7.03    7.04</time>
   <time name="total">    7.25    7.27</time>
   <energy>
    <i name="e_fr_energy">    -72.84232815 </i>
    <i name="e_wo_entrp">    -72.84232815 </i>
    <i name="e_0_energy">    -72.84232815 </i>
   </energy>
  </scstep>
  <scstep>
   <time name="dav">    7.58    7.60</time>
   <time name="total">    7.81    7.84</time>
   <energy>
    <i name="e_fr_energy">    -72.84245060 </i>
    <i name="e_wo_entrp">    -72.84245060 </i>
    <i name="e_0_energy">    -72.84245060 </i>
   </energy>
  </scstep>
  <scstep>
   <time name="dav">    7.53    7.55</time>
   <time name="total">    7.75    7.78</time>
   <energy>
    <i name="e_fr_energy">    -72.84245174 </i>
    <i name="e_wo_entrp">    -72.84245174 </i>
    <i name="e_0_energy">    -72.84245174 </i>
   </energy>
  </scstep>
  <scstep>
   <time name="dav">    7.84    7.99</time>
   <time name="total">    8.06    8.22</time>
   <energy>
    <i name="e_fr_energy">    -72.84245210 </i>
    <i name="e_wo_entrp">    -72.84245210 </i>
    <i name="e_0_energy">    -72.84245210 </i>
   </energy>
  </scstep>
  <scstep>
   <time name="dav">    7.62    7.65</time>
   <time name="total">    7.64    7.67</time>
   <energy>
    <i name="alphaZ">     76.87919854 </i>
    <i name="ewald">  -1389.18056441 </i>
    <i name="hartreedc">   -105.58588074 </i>
    <i name="XCdc">     65.06751435 </i>
    <i name="pawpsdc">  14456.18751129 </i>
    <i name="pawaedc"> -14414.65840691 </i>
    <i name="eentropy">     -0.00000000 </i>
    <i name="bandstr">     61.23540313 </i>
    <i name="atom">   1177.21277265 </i>
    <i name="e_fr_energy">    -72.84245211 </i>
    <i name="e_wo_entrp">    -72.84245211 </i>
    <i name="e_0_energy">    -72.84245211 </i>
   </energy>
  </scstep>
  <structure>
   <crystal>
    <varray name="basis" >
     <v>       3.57360507       0.00595601       0.00595601 </v>
     <v>       0.00595601       3.57360507       0.00595601 </v>
     <v>       0.00595601       0.00595601       3.57360507 </v>
    </varray>
    <i name="volume">     45.63689116 </i>
    <varray name="rec_basis" >
     <v>       0.27983102      -0.00046561      -0.00046561 </v>
     <v>      -0.00046561       0.27983102      -0.00046561 </v>
     <v>      -0.00046561      -0.00046561       0.27983102 </v>
    </varray>
   </crystal>
   <varray name="positions" >
    <v>       0.25000000       0.25000000       0.25000000 </v>
    <v>       0.00000000       0.00000000       0.00000000 </v>
    <v>       0.25000000       0.75000000       0.75000000 </v>
    <v>       0.00000000       0.50000000       0.50000000 </v>
    <v>       0.75000000       0.25000000       0.75000000 </v>
    <v>       0.50000000       0.00000000       0.50000000 </v>
    <v>       0.75000000       0.75000000       0.25000000 </v>
    <v>       0.50000000       0.50000000       0.00000000 </v>
   </varray>
  </structure>
  <varray name="forces" >
   <v>      -0.00774254      -0.00774254      -0.00774254 </v>
   <v>       0.00774254       0.00774254       0.00774254 </v>
   <v>      -0.00774254      -0.00774254      -0.00774254 </v>
   <v>       0.00774254       0.00774254       0.00774254 </v>
   <v>      -0.00774254      -0.00774254      -0.00774254 </v>
   <v>       0.00774254       0.00774254       0.00774254 </v>
   <v>      -0.00774254      -0.00774254      -0.00774254 </v>
   <v>       0.00774254       0.00774254       0.00774254 </v>
  </varray>
  <varray name="stress" >
   <v>     -13.50677274     -18.51713591     -18.51713591 </v>
   <v>     -18.51713591     -13.50677274     -18.51713591 </v>
   <v>     -18.51713591     -18.51713591     -13.50677274 </v>
  </varray>
  <energy>
   <i name="e_fr_energy">    -72.84245211 </i>
   <i name="e_wo_entrp">    -72.84245211 </i>
   <i name="e_0_energy">     -0.00000000 </i>
  </energy>
  <time name="totalsc">   97.02   98.67</time>
 </calculation>
 <calculation>
  <scstep>
   <time name="dav">    6.17    6.19</time>
   <time name="total">    6.40    6.47</time>
   <energy>
    <i name="alphaZ">     76.87919854 </i>
    <i name="ewald">  -1389.18569959 </i>
    <i name="hartreedc">   -105.58342621 </i>
    <i name="XCdc">     65.06738075 </i>
    <i name="pawpsdc">  14456.18965394 </i>
    <i name="pawaedc"> -14414.66054824 </i>
    <i name="eentropy">     -0.00000000 </i>
    <i name="bandstr">     61.23827109 </i>
    <i name="atom">   1177.21277265 </i>
    <i name="e_fr_energy">    -72.84239707 </i>
    <i name="e_wo_entrp">    -72.84239707 </i>
    <i name="e_0_energy">    -72.84239707 </i>
   </energy>
  </scstep>
  <scstep>
   <time name="dav">    8.44    8.46</time>
   <time name="total">    8.66    8.69</time>
   <energy>
    <i name="e_fr_energy">    -72.84240186 </i>
    <i name="e_wo_entrp">    -72.84240186 </i>
    <i name="e_0_energy">    -72.84240186 </i>
   </energy>
  </scstep>
  <scstep>
   <time name="dav">    6.64    6.66</time>
   <time name="total">    6.87    6.90</time>
   <energy>
    <i name="e_fr_energy">    -72.84240059 </i>
    <i name="e_wo_entrp">    -72.84240059 </i>
    <i name="e_0_energy">    -72.84240059 </i>
   </energy>
  </scstep>
  <scstep>
   <time name="dav">    8.01    8.03</time>
   <time name="total">    8.24    8.26</time>
   <energy>
    <i name="e_fr_energy">    -72.84240064 </i>
    <i name="e_wo_entrp">    -72.84240064 </i>
    <i name="e_0_energy">    -72.84240064 </i>
   </energy>
  </scstep>
  <scstep>
   <time name="dav">    6.47    6.48</time>
   <time name="total">    6.48    6.51</time>
   <energy>
    <i name="alphaZ">     76.87919854 </i>
    <i name="ewald">  -1389.18569959 </i>
    <i name="hartreedc">   -105.58294923 </i>
    <i name="XCdc">     65.06733859 </i>
    <i name="pawpsdc">  14455.67796673 </i>
    <i name="pawaedc"> -14414.14882975 </i>
    <i name="eentropy">     -0.00000000 </i>
    <i name="bandstr">     61.23780141 </i>
    <i name="atom">   1177.21277265 </i>
    <i name="e_fr_energy">    -72.84240064 </i>
    <i name="e_wo_entrp">    -72.84240064 </i>
    <i name="e_0_energy">    -72.84240064 </i>
   </energy>
  </scstep>
  <structure>
   <crystal>
    <varray name="basis" >
     <v>       3.57360507       0.00595601       0.00595601 </v>
     <v>       0.00595601       3.57360507       0.00595601 </v>
     <v>       0.00595601       0.00595601       3.57360507 </v>
    </varray>
    <i name="volume">     45.63689116 </i>
    <varray name="rec_basis" >
     <v>       0.27983102      -0.00046561      -0.00046561 </v>
     <v>      -0.00046561       0.27983102      -0.00046561 </v>
     <v>      -0.00046561      -0.00046561       0.27983102 </v>
    </varray>
   </crystal>
   <varray name="positions" >
    <v>       0.24989583       0.24989583       0.24989583 </v>
    <v>       0.00010417       0.00010417       0.00010417 </v>
    <v>       0.24989583       0.74989583       0.74989583 </v>
    <v>       0.00010417       0.50010417       0.50010417 </v>
    <v>       0.74989583       0.24989583       0.74989583 </v>
    <v>       0.50010417       0.00010417       0.50010417 </v>
    <v>       0.74989583       0.74989583       0.24989583 </v>
    <v>       0.50010417       0.50010417       0.00010417 </v>
   </varray>
  </structure>
  <varray name="forces" >
   <v>       0.01923090       0.01923090       0.01923090 </v>
   <v>      -0.01923090      -0.01923090      -0.01923090 </v>
   <v>       0.01923090       0.01923090       0.01923090 </v>
   <v>      -0.01923090      -0.01923090      -0.01923090 </v>
   <v>       0.01923090       0.01923090       0.01923090 </v>
   <v>      -0.01923090      -0.01923090      -0.01923090 </v>
   <v>       0.01923090       0.01923090       0.01923090 </v>
   <v>      -0.01923090      -0.01923090      -0.01923090 </v>
  </varray>
  <varray name="stress" >
   <v>     -13.55634809     -18.30353002     -18.30353002 </v>
   <v>     -18.30353002     -13.55634809     -18.30353002 </v>
   <v>     -18.30353002     -18.30353002     -13.55634809 </v>
  </varray>
  <energy>
   <i name="e_fr_energy">    -72.84240064 </i>
   <i name="e_wo_entrp">    -72.84240064 </i>
   <i name="e_0_energy">     -0.00000000 </i>
  </energy>
  <time name="totalsc">   42.12   42.34</time>
 </calculation>
 <calculation>
  <scstep>
   <time name="dav">    5.99    6.01</time>
   <time name="total">    6.21    6.24</time>
   <energy>
    <i name="alphaZ">     76.87919854 </i>
    <i name="ewald">  -1389.18209566 </i>
    <i name="hartreedc">   -105.58462162 </i>
    <i name="XCdc">     65.06743195 </i>
    <i name="pawpsdc">  14455.70752848 </i>
    <i name="pawaedc"> -14414.17838963 </i>
    <i name="eentropy">     -0.00000000 </i>
    <i name="bandstr">     61.23571518 </i>
    <i name="atom">   1177.21277265 </i>
    <i name="e_fr_energy">    -72.84246011 </i>
    <i name="e_wo_entrp">    -72.84246011 </i>
    <i name="e_0_energy">    -72.84246011 </i>
   </energy>
  </scstep>
  <scstep>
   <time name="dav">    8.44    8.45</time>
   <time name="total">    8.66    8.69</time>
   <energy>
    <i name="e_fr_energy">    -72.84246269 </i>
    <i name="e_wo_entrp">    -72.84246269 </i>
    <i name="e_0_energy">    -72.84246269 </i>
   </energy>
  </scstep>
  <scstep>
   <time name="dav">    6.47    6.48</time>
   <time name="total">    6.69    6.72</time>
   <energy>
    <i name="e_fr_energy">    -72.84246206 </i>
    <i name="e_wo_entrp">    -72.84246206 </i>
    <i name="e_0_energy">    -72.84246206 </i>
   </energy>
  </scstep>
  <scstep>
   <time name="dav">    8.12    8.13</time>
   <time name="total">    8.34    8.37</time>
   <energy>
    <i name="e_fr_energy">    -72.84246208 </i>
    <i name="e_wo_entrp">    -72.84246208 </i>
    <i name="e_0_energy">    -72.84246208 </i>
   </energy>
  </scstep>
  <scstep>
   <time name="dav">    5.62    5.63</time>
   <time name="total">    5.63    5.65</time>
   <energy>
    <i name="alphaZ">     76.87919854 </i>
    <i name="ewald">  -1389.18209566 </i>
    <i name="hartreedc">   -105.58498351 </i>
    <i name="XCdc">     65.06746213 </i>
    <i name="pawpsdc">  14456.07131061 </i>
    <i name="pawaedc"> -14414.54219306 </i>
    <i name="eentropy">     -0.00000000 </i>
    <i name="bandstr">     61.23606622 </i>
    <i name="atom">   1177.21277265 </i>
    <i name="e_fr_energy">    -72.84246207 </i>
    <i name="e_wo_entrp">    -72.84246207 </i>
    <i name="e_0_energy">    -72.84246207 </i>
   </energy>
  </scstep>
  <structure>
   <crystal>
    <varray name="basis" >
     <v>       3.57360507       0.00595601       0.00595601 </v>
     <v>       0.00595601       3.57360507       0.00595601 </v>
     <v>       0.00595601       0.00595601       3.57360507 </v>
    </varray>
    <i name="volume">     45.63689116 </i>
    <varray name="rec_basis" >
     <v>       0.27983102      -0.00046561      -0.00046561 </v>
     <v>      -0.00046561       0.27983102      -0.00046561 </v>
     <v>      -0.00046561      -0.00046561       0.27983102 </v>
    </varray>
   </crystal>
   <varray name="positions" >
    <v>       0.24997010       0.24997010       0.24997010 </v>
    <v>       0.00002990       0.00002990       0.00002990 </v>
    <v>       0.24997010       0.74997010       0.74997010 </v>
    <v>       0.00002990       0.50002990       0.50002990 </v>
    <v>       0.74997010       0.24997010       0.74997010 </v>
    <v>       0.50002990       0.00002990       0.50002990 </v>
    <v>       0.74997010       0.74997010       0.24997010 </v>
    <v>       0.50002990       0.50002990       0.00002990 </v>
   </varray>
  </structure>
  <varray name="forces" >
   <v>      -0.00000801      -0.00000801      -0.00000801 </v>
   <v>       0.00000801       0.00000801       0.00000801 </v>
   <v>      -0.00000801      -0.00000801      -0.00000801 </v>
   <v>       0.00000801       0.00000801       0.00000801 </v>
   <v>      -0.00000801      -0.00000801      -0.00000801 </v>
   <v>       0.00000801       0.00000801       0.00000801 </v>
   <v>      -0.00000801      -0.00000801      -0.00000801 </v>
   <v>       0.00000801       0.00000801       0.00000801 </v>
  </varray>
  <varray name="stress" >
   <v>     -13.52180022     -18.45130239     -18.45130239 </v>
   <v>     -18.45130239     -13.52180022     -18.45130239 </v>
   <v>     -18.45130239     -18.45130239     -13.52180022 </v>
  </varray>
  <energy>
   <i name="e_fr_energy">    -72.84246207 </i>
   <i name="e_wo_entrp">    -72.84246207 </i>
   <i name="e_0_energy">     -0.00000000 </i>
  </energy>
  <time name="totalsc">   40.64   40.81</time>
  <eigenvalues>
   <array>
    <dimension dim="1">band</dimension>
    <dimension dim="2">kpoint</dimension>
    <dimension dim="3">spin</dimension>
    <field>eigene</field>
    <field>occ</field>
    <set>
     <set comment="spin 1">
      <set comment="kpoint 1">
       <r>  -10.5109    1.0000 </r>
       <r>   -2.4143    1.0000 </r>
       <r>   -2.4143    1.0000 </r>
       <r>   -2.4143    1.0000 </r>
       <r>   -1.2892    1.0000 </r>
       <r>   -1.2892    1.0000 </r>
       <r>   -1.2892    1.0000 </r>
       <r>    4.4452    1.0000 </r>
       <r>    4.4452    1.0000 </r>
       <r>    4.4452    1.0000 </r>
       <r>    4.6539    1.0000 </r>
       <r>    4.6539    1.0000 </r>
       <r>    4.6539    1.0000 </r>
       <r>   10.5822    1.0000 </r>
       <r>   10.7921    1.0000 </r>
       <r>   10.7921    1.0000 </r>
       <r>   15.5387    0.0000 </r>
       <r>   15.5387    0.0000 </r>
       <r>   15.5387    0.0000 </r>
       <r>   15.8870    0.0000 </r>
       <r>   15.8870    0.0000 </r>
       <r>   15.8870    0.0000 </r>
       <r>   16.5082    0.0000 </r>
       <r>   16.5646    0.0000 </r>
      </set>
      <set comment="kpoint 2">
       <r>  -10.4175    1.0000 </r>
       <r>   -3.5006    1.0000 </r>
       <r>   -2.3455    1.0000 </r>
       <r>   -2.3455    1.0000 </r>
       <r>   -1.2436    1.0000 </r>
       <r>   -1.2436    1.0000 </r>
       <r>   -0.1191    1.0000 </r>
       <r>    4.1245    1.0000 </r>
       <r>    4.1245    1.0000 </r>
       <r>    4.5428    1.0000 </r>
       <r>    4.5883    1.0000 </r>
       <r>    4.5883    1.0000 </r>
       <r>    4.7446    1.0000 </r>
       <r>   10.1226    1.0000 </r>
       <r>   10.4370    1.0000 </r>
       <r>   10.6755    1.0000 </r>
       <r>   15.2924    0.0000 </r>
       <r>   15.8580    0.0000 </r>
       <r>   15.8580    0.0000 </r>
       <r>   16.3131    0.0000 </r>
       <r>   16.3131    0.0000 </r>
       <r>   16.3489    0.0000 </r>
       <r>   16.4686    0.0000 </r>
       <r>   16.9598    0.0000 </r>
      </set>
      <set comment="kpoint 3">
       <r>  -10.2304    1.0000 </r>
       <r>   -4.5284    1.0000 </r>
       <r>   -2.2172    1.0000 </r>
       <r>   -2.2172    1.0000 </r>
       <r>   -1.1533    1.0000 </r>
       <r>   -1.1533    1.0000 </r>
       <r>    1.0723    1.0000 </r>
       <r>    3.6892    1.0000 </r>
       <r>    3.6892    1.0000 </r>
       <r>    4.3420    1.0000 </r>
       <r>    4.3420    1.0000 </r>
       <r>    4.7356    1.0000 </r>
       <r>    4.9255    1.0000 </r>
       <r>    9.4863    1.0000 </r>
       <r>    9.8515    1.0000 </r>
       <r>   10.2986    1.0000 </r>
       <r>   15.1410    0.0000 </r>
       <r>   16.3264    0.0000 </r>
       <r>   16.4763    0.0000 </r>
       <r>   16.4763    0.0000 </r>
       <r>   16.9337    0.0000 </r>
       <r>   17.0955    0.0000 </r>
       <r>   17.0955    0.0000 </r>
       <r>   17.6977    0.0000 </r>
      </set>
      <set comment="kpoint 4">
       <r>   -9.9504    1.0000 </r>
       <r>   -5.4895    1.0000 </r>
       <r>   -2.0402    1.0000 </r>
       <r>   -2.0402    1.0000 </r>
       <r>   -1.0331    1.0000 </r>
       <r>   -1.0331    1.0000 </r>
       <r>    2.2665    1.0000 </r>
       <r>    3.2173    1.0000 </r>
       <r>    3.2173    1.0000 </r>
       <r>    3.9822    1.0000 </r>
       <r>    3.9822    1.0000 </r>
       <r>    5.0244    1.0000 </r>
       <r>    5.1952    1.0000 </r>
       <r>    8.7651    1.0000 </r>
       <r>    9.1620    1.0000 </r>
       <r>    9.7175    1.0000 </r>
       <r>   15.0755    0.0000 </r>
       <r>   16.1384    0.0000 </r>
       <r>   17.3667    0.0000 </r>
       <r>   17.3667    0.0000 </r>
       <r>   17.6486    0.0000 </r>
       <r>   18.1170    0.0000 </r>
       <r>   18.1170    0.0000 </r>
       <r>   18.6177    0.0000 </r>
      </set>
      <set comment="kpoint 5">
       <r>   -9.5780    1.0000 </r>
       <r>   -6.3775    1.0000 </r>
       <r>   -1.8358    1.0000 </r>
       <r>   -1.8358    1.0000 </r>
       <r>   -0.9070    1.0000 </r>
       <r>   -0.9070    1.0000 </r>
       <r>    2.7853    1.0000 </r>
       <r>    2.7853    1.0000 </r>
       <r>    3.4406    1.0000 </r>
       <r>    3.5898    1.0000 </r>
       <r>    3.5898    1.0000 </r>
       <r>    5.4126    1.0000 </r>
       <r>    5.5513    1.0000 </r>
       <r>    8.0164    1.0000 </r>
       <r>    8.4478    1.0000 </r>
       <r>    8.9854    1.0000 </r>
       <r>   15.0865    0.0000 </r>
       <r>   15.9236    0.0000 </r>
       <r>   18.4582    0.0000 </r>
       <r>   18.4582    0.0000 </r>
       <r>   18.4970    0.0000 </r>
       <r>   19.2918    0.0000 </r>
       <r>   19.2918    0.0000 </r>
       <r>   19.6398    0.0000 </r>
      </set>
      <set comment="kpoint 6">
       <r>   -9.1144    1.0000 </r>
       <r>   -7.1872    1.0000 </r>
       <r>   -1.6424    1.0000 </r>
       <r>   -1.6424    1.0000 </r>
       <r>   -0.8051    1.0000 </r>
       <r>   -0.8051    1.0000 </r>
       <r>    2.4613    1.0000 </r>
       <r>    2.4613    1.0000 </r>
       <r>    3.2471    1.0000 </r>
       <r>    3.2471    1.0000 </r>
       <r>    4.5640    1.0000 </r>
       <r>    5.9098    1.0000 </r>
       <r>    5.9907    1.0000 </r>
       <r>    7.2632    1.0000 </r>
       <r>    7.7528    1.0000 </r>
       <r>    8.1528    1.0000 </r>
       <r>   15.1643    0.0000 </r>
       <r>   15.7024    0.0000 </r>
       <r>   19.4737    0.0000 </r>
       <r>   19.6653    0.0000 </r>
       <r>   19.6653    0.0000 </r>
       <r>   20.5251    0.0000 </r>
       <r>   20.5251    0.0000 </r>
       <r>   20.7148    0.0000 </r>
      </set>
      <set comment="kpoint 7">
       <r>   -8.5610    1.0000 </r>
       <r>   -7.9146    1.0000 </r>
       <r>   -1.5223    1.0000 </r>
       <r>   -1.5223    1.0000 </r>
       <r>   -0.7459    1.0000 </r>
       <r>   -0.7459    1.0000 </r>
       <r>    2.2936    1.0000 </r>
       <r>    2.2936    1.0000 </r>
       <r>    3.0374    1.0000 </r>
       <r>    3.0374    1.0000 </r>
       <r>    5.5899    1.0000 </r>
       <r>    6.4860    1.0000 </r>
       <r>    6.5082    1.0000 </r>
       <r>    6.5379    1.0000 </r>
       <r>    7.1029    1.0000 </r>
       <r>    7.2890    1.0000 </r>
       <r>   15.2978    0.0000 </r>
       <r>   15.4935    0.0000 </r>
       <r>   20.5569    0.0000 </r>
       <r>   20.8142    0.0000 </r>
       <r>   20.8142    0.0000 </r>
       <r>   21.5181    0.0000 </r>
       <r>   21.5181    0.0000 </r>
       <r>   21.7060    0.0000 </r>
      </set>
      <set comment="kpoint 8">
       <r>   -8.5566    1.0000 </r>
       <r>   -7.9198    1.0000 </r>
       <r>   -1.5352    1.0000 </r>
       <r>   -1.5352    1.0000 </r>
       <r>   -0.7289    1.0000 </r>
       <r>   -0.7289    1.0000 </r>
       <r>    2.2984    1.0000 </r>
       <r>    2.2984    1.0000 </r>
       <r>    3.0276    1.0000 </r>
       <r>    3.0276    1.0000 </r>
       <r>    5.6088    1.0000 </r>
       <r>    6.4795    1.0000 </r>
       <r>    6.5059    1.0000 </r>
       <r>    6.5138    1.0000 </r>
       <r>    7.0966    1.0000 </r>
       <r>    7.3116    1.0000 </r>
       <r>   15.3139    0.0000 </r>
       <r>   15.4748    0.0000 </r>
       <r>   20.5722    0.0000 </r>
       <r>   20.7053    0.0000 </r>
       <r>   20.7053    0.0000 </r>
       <r>   21.6346    0.0000 </r>
       <r>   21.6347    0.0000 </r>
       <r>   21.6490    0.0000 </r>
      </set>
      <set comment="kpoint 9">
       <r>   -9.1106    1.0000 </r>
       <r>   -7.1931    1.0000 </r>
       <r>   -1.6718    1.0000 </r>
       <r>   -1.6718    1.0000 </r>
       <r>   -0.7660    1.0000 </r>
       <r>   -0.7660    1.0000 </r>
       <r>    2.4768    1.0000 </r>
       <r>    2.4768    1.0000 </r>
       <r>    3.2196    1.0000 </r>
       <r>    3.2196    1.0000 </r>
       <r>    4.5850    1.0000 </r>
       <r>    5.8786    1.0000 </r>
       <r>    5.9955    1.0000 </r>
       <r>    7.2713    1.0000 </r>
       <r>    7.7460    1.0000 </r>
       <r>    8.1634    1.0000 </r>
       <r>   15.1777    0.0000 </r>
       <r>   15.6808    0.0000 </r>
       <r>   19.4876    0.0000 </r>
       <r>   19.5330    0.0000 </r>
       <r>   19.5330    0.0000 </r>
       <r>   20.6755    0.0000 </r>
       <r>   20.6755    0.0000 </r>
       <r>   20.6776    0.0000 </r>
      </set>
      <set comment="kpoint 10">
       <r>   -9.5750    1.0000 </r>
       <r>   -6.3842    1.0000 </r>
       <r>   -1.8684    1.0000 </r>
       <r>   -1.8684    1.0000 </r>
       <r>   -0.8636    1.0000 </r>
       <r>   -0.8636    1.0000 </r>
       <r>    2.8130    1.0000 </r>
       <r>    2.8130    1.0000 </r>
       <r>    3.4598    1.0000 </r>
       <r>    3.5477    1.0000 </r>
       <r>    3.5477    1.0000 </r>
       <r>    5.3870    1.0000 </r>
       <r>    5.5554    1.0000 </r>
       <r>    8.0344    1.0000 </r>
       <r>    8.4405    1.0000 </r>
       <r>    8.9882    1.0000 </r>
       <r>   15.0972    0.0000 </r>
       <r>   15.8992    0.0000 </r>
       <r>   18.3269    0.0000 </r>
       <r>   18.3269    0.0000 </r>
       <r>   18.5094    0.0000 </r>
       <r>   19.4415    0.0000 </r>
       <r>   19.4415    0.0000 </r>
       <r>   19.6085    0.0000 </r>
      </set>
      <set comment="kpoint 11">
       <r>   -9.9480    1.0000 </r>
       <r>   -5.4970    1.0000 </r>
       <r>   -2.0689    1.0000 </r>
       <r>   -2.0689    1.0000 </r>
       <r>   -0.9953    1.0000 </r>
       <r>   -0.9953    1.0000 </r>
       <r>    2.2832    1.0000 </r>
       <r>    3.2573    1.0000 </r>
       <r>    3.2573    1.0000 </r>
       <r>    3.9288    1.0000 </r>
       <r>    3.9288    1.0000 </r>
       <r>    5.0048    1.0000 </r>
       <r>    5.1983    1.0000 </r>
       <r>    8.7890    1.0000 </r>
       <r>    9.1547    1.0000 </r>
       <r>    9.7158    1.0000 </r>
       <r>   15.0833    0.0000 </r>
       <r>   16.1097    0.0000 </r>
       <r>   17.2400    0.0000 </r>
       <r>   17.2400    0.0000 </r>
       <r>   17.6592    0.0000 </r>
       <r>   18.2600    0.0000 </r>
       <r>   18.2600    0.0000 </r>
       <r>   18.5945    0.0000 </r>
      </set>
      <set comment="kpoint 12">
       <r>  -10.2288    1.0000 </r>
       <r>   -4.5368    1.0000 </r>
       <r>   -2.2388    1.0000 </r>
       <r>   -2.2388    1.0000 </r>
       <r>   -1.1252    1.0000 </r>
       <r>   -1.1252    1.0000 </r>
       <r>    1.0869    1.0000 </r>
       <r>    3.7398    1.0000 </r>
       <r>    3.7398    1.0000 </r>
       <r>    4.2802    1.0000 </r>
       <r>    4.2802    1.0000 </r>
       <r>    4.7218    1.0000 </r>
       <r>    4.9277    1.0000 </r>
       <r>    9.5126    1.0000 </r>
       <r>    9.8446    1.0000 </r>
       <r>   10.2934    1.0000 </r>
       <r>   15.1461    0.0000 </r>
       <r>   16.2903    0.0000 </r>
       <r>   16.3572    0.0000 </r>
       <r>   16.3572    0.0000 </r>
       <r>   16.9420    0.0000 </r>
       <r>   17.2276    0.0000 </r>
       <r>   17.2276    0.0000 </r>
       <r>   17.6894    0.0000 </r>
      </set>
      <set comment="kpoint 13">
       <r>  -10.4165    1.0000 </r>
       <r>   -3.5099    1.0000 </r>
       <r>   -2.3588    1.0000 </r>
       <r>   -2.3588    1.0000 </r>
       <r>   -1.2265    1.0000 </r>
       <r>   -1.2265    1.0000 </r>
       <r>   -0.1062    1.0000 </r>
       <r>    4.1838    1.0000 </r>
       <r>    4.1838    1.0000 </r>
       <r>    4.5218    1.0000 </r>
       <r>    4.5218    1.0000 </r>
       <r>    4.5345    1.0000 </r>
       <r>    4.7459    1.0000 </r>
       <r>   10.1477    1.0000 </r>
       <r>   10.4319    1.0000 </r>
       <r>   10.6674    1.0000 </r>
       <r>   15.2946    0.0000 </r>
       <r>   15.7551    0.0000 </r>
       <r>   15.7551    0.0000 </r>
       <r>   16.3548    0.0000 </r>
       <r>   16.4129    0.0000 </r>
       <r>   16.4245    0.0000 </r>
       <r>   16.4245    0.0000 </r>
       <r>   16.9839    0.0000 </r>
      </set>
      <set comment="kpoint 14">
       <r>  -10.5106    1.0000 </r>
       <r>   -2.4246    1.0000 </r>
       <r>   -2.4187    1.0000 </r>
       <r>   -2.4187    1.0000 </r>
       <r>   -1.2835    1.0000 </r>
       <r>   -1.2835    1.0000 </r>
       <r>   -1.2777    1.0000 </r>
       <r>    4.4424    1.0000 </r>
       <r>    4.5104    1.0000 </r>
       <r>    4.5104    1.0000 </r>
       <r>    4.5861    1.0000 </r>
       <r>    4.5861    1.0000 </r>
       <r>    4.6544    1.0000 </r>
       <r>   10.6018    1.0000 </r>
       <r>   10.7794    1.0000 </r>
       <r>   10.7902    1.0000 </r>
       <r>   15.4880    0.0000 </r>
       <r>   15.4880    0.0000 </r>
       <r>   15.5381    0.0000 </r>
       <r>   15.8903    0.0000 </r>
       <r>   15.9407    0.0000 </r>
       <r>   15.9407    0.0000 </r>
       <r>   16.4293    0.0000 </r>
       <r>   16.5668    0.0000 </r>
      </set>
      <set comment="kpoint 15">
       <r>  -10.3245    1.0000 </r>
       <r>   -3.4229    1.0000 </r>
       <r>   -3.4229    1.0000 </r>
       <r>   -2.2844    1.0000 </r>
       <r>   -1.2020    1.0000 </r>
       <r>   -0.0964    1.0000 </r>
       <r>   -0.0964    1.0000 </r>
       <r>    3.6092    1.0000 </r>
       <r>    4.2331    1.0000 </r>
       <r>    4.2331    1.0000 </r>
       <r>    4.6828    1.0000 </r>
       <r>    4.6828    1.0000 </r>
       <r>    4.8085    1.0000 </r>
       <r>    9.5666    1.0000 </r>
       <r>   10.1613    1.0000 </r>
       <r>   10.6823    1.0000 </r>
       <r>   15.6540    0.0000 </r>
       <r>   15.6540    0.0000 </r>
       <r>   15.8292    0.0000 </r>
       <r>   16.7263    0.0000 </r>
       <r>   16.7263    0.0000 </r>
       <r>   16.7451    0.0000 </r>
       <r>   17.0037    0.0000 </r>
       <r>   17.0576    0.0000 </r>
      </set>
      <set comment="kpoint 16">
       <r>  -10.1380    1.0000 </r>
       <r>   -4.4451    1.0000 </r>
       <r>   -3.2746    1.0000 </r>
       <r>   -2.1741    1.0000 </r>
       <r>   -1.1189    1.0000 </r>
       <r>   -0.0557    1.0000 </r>
       <r>    1.0588    1.0000 </r>
       <r>    3.0572    1.0000 </r>
       <r>    3.8104    1.0000 </r>
       <r>    4.4470    1.0000 </r>
       <r>    4.4533    1.0000 </r>
       <r>    4.8198    1.0000 </r>
       <r>    4.8739    1.0000 </r>
       <r>    8.8794    1.0000 </r>
       <r>    9.6027    1.0000 </r>
       <r>   10.4659    1.0000 </r>
       <r>   15.5154    0.0000 </r>
       <r>   16.1420    0.0000 </r>
       <r>   16.3282    0.0000 </r>
       <r>   16.6913    0.0000 </r>
       <r>   17.2884    0.0000 </r>
       <r>   17.4430    0.0000 </r>
       <r>   17.7077    0.0000 </r>
       <r>   17.8913    0.0000 </r>
      </set>
      <set comment="kpoint 17">
       <r>   -9.8586    1.0000 </r>
       <r>   -5.4025    1.0000 </r>
       <r>   -3.0620    1.0000 </r>
       <r>   -2.0368    1.0000 </r>
       <r>   -1.0054    1.0000 </r>
       <r>   -0.0220    1.0000 </r>
       <r>    2.1929    1.0000 </r>
       <r>    2.5499    1.0000 </r>
       <r>    3.3476    1.0000 </r>
       <r>    4.1335    1.0000 </r>
       <r>    4.6513    1.0000 </r>
       <r>    4.7689    1.0000 </r>
       <r>    5.1671    1.0000 </r>
       <r>    8.1355    1.0000 </r>
       <r>    8.9309    1.0000 </r>
       <r>   10.0044    1.0000 </r>
       <r>   15.4560    0.0000 </r>
       <r>   16.5184    0.0000 </r>
       <r>   16.7973    0.0000 </r>
       <r>   17.2590    0.0000 </r>
       <r>   17.9834    0.0000 </r>
       <r>   18.4092    0.0000 </r>
       <r>   18.6136    0.0000 </r>
       <r>   18.6753    0.0000 </r>
      </set>
      <set comment="kpoint 18">
       <r>   -9.4870    1.0000 </r>
       <r>   -6.2879    1.0000 </r>
       <r>   -2.7967    1.0000 </r>
       <r>   -1.9188    1.0000 </r>
       <r>   -0.8687    1.0000 </r>
       <r>   -0.0330    1.0000 </r>
       <r>    2.1674    1.0000 </r>
       <r>    2.9053    1.0000 </r>
       <r>    3.2670    1.0000 </r>
       <r>    3.8226    1.0000 </r>
       <r>    4.3693    1.0000 </r>
       <r>    5.1971    1.0000 </r>
       <r>    5.5794    1.0000 </r>
       <r>    7.3774    1.0000 </r>
       <r>    8.2268    1.0000 </r>
       <r>    9.3524    1.0000 </r>
       <r>   15.4701    0.0000 </r>
       <r>   16.3111    0.0000 </r>
       <r>   17.7248    0.0000 </r>
       <r>   18.3788    0.0000 </r>
       <r>   18.8115    0.0000 </r>
       <r>   19.5285    0.0000 </r>
       <r>   19.5757    0.0000 </r>
       <r>   19.6388    0.0000 </r>
      </set>
      <set comment="kpoint 19">
       <r>   -9.0243    1.0000 </r>
       <r>   -7.0958    1.0000 </r>
       <r>   -2.4994    1.0000 </r>
       <r>   -1.8935    1.0000 </r>
       <r>   -0.6975    1.0000 </r>
       <r>   -0.1239    1.0000 </r>
       <r>    1.9763    1.0000 </r>
       <r>    2.5173    1.0000 </r>
       <r>    3.6228    1.0000 </r>
       <r>    4.0510    1.0000 </r>
       <r>    4.2396    1.0000 </r>
       <r>    5.7089    1.0000 </r>
       <r>    6.1480    1.0000 </r>
       <r>    6.6256    1.0000 </r>
       <r>    7.5341    1.0000 </r>
       <r>    8.5700    1.0000 </r>
       <r>   15.5485    0.0000 </r>
       <r>   16.0946    0.0000 </r>
       <r>   18.8340    0.0000 </r>
       <r>   19.6091    0.0000 </r>
       <r>   19.7667    0.0000 </r>
       <r>   20.5560    0.0000 </r>
       <r>   20.6497    0.0000 </r>
       <r>   20.7130    0.0000 </r>
      </set>
      <set comment="kpoint 20">
       <r>   -8.4722    1.0000 </r>
       <r>   -7.8221    1.0000 </r>
       <r>   -2.2061    1.0000 </r>
       <r>   -2.0129    1.0000 </r>
       <r>   -0.4804    1.0000 </r>
       <r>   -0.2966    1.0000 </r>
       <r>    1.9983    1.0000 </r>
       <r>    2.2035    1.0000 </r>
       <r>    3.6011    1.0000 </r>
       <r>    3.7717    1.0000 </r>
       <r>    5.0981    1.0000 </r>
       <r>    5.8797    1.0000 </r>
       <r>    6.2713    1.0000 </r>
       <r>    6.8755    1.0000 </r>
       <r>    6.8873    1.0000 </r>
       <r>    7.7181    1.0000 </r>
       <r>   15.6808    0.0000 </r>
       <r>   15.8883    0.0000 </r>
       <r>   20.0006    0.0000 </r>
       <r>   20.6406    0.0000 </r>
       <r>   20.8262    0.0000 </r>
       <r>   21.2421    0.0000 </r>
       <r>   21.5709    0.0000 </r>
       <r>   21.8105    0.0000 </r>
      </set>
      <set comment="kpoint 21">
       <r>   -8.4633    1.0000 </r>
       <r>   -7.8324    1.0000 </r>
       <r>   -2.2508    1.0000 </r>
       <r>   -1.9750    1.0000 </r>
       <r>   -0.5064    1.0000 </r>
       <r>   -0.2496    1.0000 </r>
       <r>    2.0052    1.0000 </r>
       <r>    2.1976    1.0000 </r>
       <r>    3.6034    1.0000 </r>
       <r>    3.7513    1.0000 </r>
       <r>    5.1121    1.0000 </r>
       <r>    5.8816    1.0000 </r>
       <r>    6.2592    1.0000 </r>
       <r>    6.8739    1.0000 </r>
       <r>    6.8789    1.0000 </r>
       <r>    7.7281    1.0000 </r>
       <r>   15.7094    0.0000 </r>
       <r>   15.8549    0.0000 </r>
       <r>   19.8847    0.0000 </r>
       <r>   20.5999    0.0000 </r>
       <r>   20.8557    0.0000 </r>
       <r>   21.3244    0.0000 </r>
       <r>   21.5125    0.0000 </r>
       <r>   21.7793    0.0000 </r>
      </set>
      <set comment="kpoint 22">
       <r>   -9.0169    1.0000 </r>
       <r>   -7.1077    1.0000 </r>
       <r>   -2.5423    1.0000 </r>
       <r>   -1.8742    1.0000 </r>
       <r>   -0.6949    1.0000 </r>
       <r>   -0.0674    1.0000 </r>
       <r>    1.9854    1.0000 </r>
       <r>    2.5174    1.0000 </r>
       <r>    3.6046    1.0000 </r>
       <r>    4.0153    1.0000 </r>
       <r>    4.2670    1.0000 </r>
       <r>    5.6830    1.0000 </r>
       <r>    6.1393    1.0000 </r>
       <r>    6.6412    1.0000 </r>
       <r>    7.5327    1.0000 </r>
       <r>    8.5746    1.0000 </r>
       <r>   15.5720    0.0000 </r>
       <r>   16.0561    0.0000 </r>
       <r>   18.7079    0.0000 </r>
       <r>   19.5097    0.0000 </r>
       <r>   19.7940    0.0000 </r>
       <r>   20.5054    0.0000 </r>
       <r>   20.7048    0.0000 </r>
       <r>   20.7858    0.0000 </r>
      </set>
      <set comment="kpoint 23">
       <r>   -9.4809    1.0000 </r>
       <r>   -6.3013    1.0000 </r>
       <r>   -2.8337    1.0000 </r>
       <r>   -1.9199    1.0000 </r>
       <r>   -0.8433    1.0000 </r>
       <r>    0.0223    1.0000 </r>
       <r>    2.1841    1.0000 </r>
       <r>    2.9177    1.0000 </r>
       <r>    3.3000    1.0000 </r>
       <r>    3.7846    1.0000 </r>
       <r>    4.3212    1.0000 </r>
       <r>    5.1617    1.0000 </r>
       <r>    5.5794    1.0000 </r>
       <r>    7.4034    1.0000 </r>
       <r>    8.2228    1.0000 </r>
       <r>    9.3523    1.0000 </r>
       <r>   15.4885    0.0000 </r>
       <r>   16.2671    0.0000 </r>
       <r>   17.5980    0.0000 </r>
       <r>   18.2874    0.0000 </r>
       <r>   18.8362    0.0000 </r>
       <r>   19.5232    0.0000 </r>
       <r>   19.6448    0.0000 </r>
       <r>   19.6549    0.0000 </r>
      </set>
      <set comment="kpoint 24">
       <r>   -9.8538    1.0000 </r>
       <r>   -5.4175    1.0000 </r>
       <r>   -3.0914    1.0000 </r>
       <r>   -2.0482    1.0000 </r>
       <r>   -0.9736    1.0000 </r>
       <r>    0.0246    1.0000 </r>
       <r>    2.2249    1.0000 </r>
       <r>    2.5783    1.0000 </r>
       <r>    3.3750    1.0000 </r>
       <r>    4.0804    1.0000 </r>
       <r>    4.5940    1.0000 </r>
       <r>    4.7357    1.0000 </r>
       <r>    5.1707    1.0000 </r>
       <r>    8.1684    1.0000 </r>
       <r>    8.9255    1.0000 </r>
[...]
       <r>   -4.7167    1.0000 </r>
       <r>   -4.6265    1.0000 </r>
       <r>   -2.2127    1.0000 </r>
       <r>   -2.2101    1.0000 </r>
       <r>   -1.4656    1.0000 </r>
       <r>   -0.9362    1.0000 </r>
       <r>    7.1447    1.0000 </r>
       <r>    7.2090    1.0000 </r>
       <r>    7.6735    1.0000 </r>
       <r>    7.7125    1.0000 </r>
       <r>    7.7231    1.0000 </r>
       <r>    7.7537    1.0000 </r>
       <r>    8.0089    1.0000 </r>
       <r>    8.1388    1.0000 </r>
       <r>   18.8809    0.0000 </r>
       <r>   18.9931    0.0000 </r>
       <r>   19.0453    0.0000 </r>
       <r>   19.0909    0.0000 </r>
       <r>   19.4616    0.0000 </r>
       <r>   19.6641    0.0000 </r>
       <r>   19.6763    0.0000 </r>
       <r>   19.7974    0.0000 </r>
      </set>
      <set comment="kpoint 278">
       <r>   -5.4764    1.0000 </r>
       <r>   -5.0070    1.0000 </r>
       <r>   -5.0070    1.0000 </r>
       <r>   -4.8004    1.0000 </r>
       <r>   -2.2953    1.0000 </r>
       <r>   -2.0060    1.0000 </r>
       <r>   -2.0060    1.0000 </r>
       <r>   -1.5465    1.0000 </r>
       <r>    7.5255    1.0000 </r>
       <r>    7.6281    1.0000 </r>
       <r>    7.6281    1.0000 </r>
       <r>    7.8889    1.0000 </r>
       <r>    7.9379    1.0000 </r>
       <r>    7.9424    1.0000 </r>
       <r>    7.9424    1.0000 </r>
       <r>    8.1384    1.0000 </r>
       <r>   19.1511    0.0000 </r>
       <r>   19.1893    0.0000 </r>
       <r>   19.1893    0.0000 </r>
       <r>   19.2911    0.0000 </r>
       <r>   19.3350    0.0000 </r>
       <r>   19.4078    0.0000 </r>
       <r>   19.4078    0.0000 </r>
       <r>   19.6591    0.0000 </r>
      </set>
      <set comment="kpoint 279">
       <r>   -5.1704    1.0000 </r>
       <r>   -4.7927    1.0000 </r>
       <r>   -4.7927    1.0000 </r>
       <r>   -4.7927    1.0000 </r>
       <r>   -2.3854    1.0000 </r>
       <r>   -2.3854    1.0000 </r>
       <r>   -2.3854    1.0000 </r>
       <r>   -2.1007    1.0000 </r>
       <r>    7.9304    1.0000 </r>
       <r>    7.9304    1.0000 </r>
       <r>    7.9304    1.0000 </r>
       <r>    7.9822    1.0000 </r>
       <r>    7.9822    1.0000 </r>
       <r>    7.9822    1.0000 </r>
       <r>    8.1345    1.0000 </r>
       <r>    8.1345    1.0000 </r>
       <r>   19.1899    0.0000 </r>
       <r>   19.1899    0.0000 </r>
       <r>   19.1899    0.0000 </r>
       <r>   19.3207    0.0000 </r>
       <r>   19.3207    0.0000 </r>
       <r>   19.4507    0.0000 </r>
       <r>   19.4507    0.0000 </r>
       <r>   19.4507    0.0000 </r>
      </set>
      <set comment="kpoint 280">
       <r>   -5.0919    1.0000 </r>
       <r>   -4.8839    1.0000 </r>
       <r>   -4.7936    1.0000 </r>
       <r>   -4.7936    1.0000 </r>
       <r>   -2.3837    1.0000 </r>
       <r>   -2.3837    1.0000 </r>
       <r>   -2.3819    1.0000 </r>
       <r>   -2.0904    1.0000 </r>
       <r>    7.9242    1.0000 </r>
       <r>    7.9242    1.0000 </r>
       <r>    7.9860    1.0000 </r>
       <r>    7.9866    1.0000 </r>
       <r>    7.9866    1.0000 </r>
       <r>    8.0451    1.0000 </r>
       <r>    8.0706    1.0000 </r>
       <r>    8.0786    1.0000 </r>
       <r>   19.2110    0.0000 </r>
       <r>   19.2110    0.0000 </r>
       <r>   19.2216    0.0000 </r>
       <r>   19.2637    0.0000 </r>
       <r>   19.3295    0.0000 </r>
       <r>   19.3917    0.0000 </r>
       <r>   19.3917    0.0000 </r>
       <r>   19.4445    0.0000 </r>
      </set>
     </set>
    </set>
   </array>
  </eigenvalues>
  <separator name="orbital magnetization" >
   <v name="MAGDIPOLOUT">      0.00000000      0.00000000      0.00000000</v>
  </separator>
  <dos>
   <i name="efermi">     11.09899658 </i>
   <total>
    <array>
     <dimension dim="1">gridpoints</dimension>
     <dimension dim="2">spin</dimension>
     <field>energy</field>
     <field>total</field>
     <field>integrated</field>
     <set>
      <set comment="spin 1">
       <r>   -12.1718     0.0000     0.0000 </r>
       <r>   -12.0500     0.0000     0.0000 </r>
       <r>   -11.9282     0.0000     0.0000 </r>
       <r>   -11.8064     0.0000     0.0000 </r>
       <r>   -11.6846     0.0000     0.0000 </r>
       <r>   -11.5628     0.0000     0.0000 </r>
       <r>   -11.4410     0.0000     0.0000 </r>
       <r>   -11.3192     0.0000     0.0000 </r>
       <r>   -11.1974     0.0000     0.0000 </r>
       <r>   -11.0756     0.0000     0.0000 </r>
       <r>   -10.9538     0.0000     0.0000 </r>
       <r>   -10.8320     0.0000     0.0000 </r>
       <r>   -10.7102     0.0000     0.0000 </r>
       <r>   -10.5884     0.0007     0.0001 </r>
       <r>   -10.4666     0.0536     0.0066 </r>
       <r>   -10.3448     0.1732     0.0277 </r>
       <r>   -10.2230     0.2190     0.0544 </r>
       <r>   -10.1012     0.3276     0.0943 </r>
       <r>    -9.9794     0.2346     0.1229 </r>
       <r>    -9.8576     0.4426     0.1768 </r>
       <r>    -9.7358     0.3463     0.2189 </r>
       <r>    -9.6141     0.4007     0.2677 </r>
       <r>    -9.4923     0.5003     0.3287 </r>
       <r>    -9.3705     0.4939     0.3888 </r>
       <r>    -9.2487     0.5407     0.4547 </r>
       <r>    -9.1269     0.3869     0.5018 </r>
       <r>    -9.0051     0.6794     0.5846 </r>
       <r>    -8.8833     0.6477     0.6634 </r>
       <r>    -8.7615     0.5286     0.7278 </r>
       <r>    -8.6397     0.4949     0.7881 </r>
       <r>    -8.5179     0.7415     0.8784 </r>
       <r>    -8.3961     0.8107     0.9772 </r>
       <r>    -8.2743     0.5856     1.0485 </r>
       <r>    -8.1525     0.7553     1.1405 </r>
       <r>    -8.0307     0.6317     1.2174 </r>
       <r>    -7.9089     0.8634     1.3226 </r>
       <r>    -7.7871     0.5685     1.3918 </r>
       <r>    -7.6653     0.9493     1.5074 </r>
       <r>    -7.5435     1.0455     1.6348 </r>
       <r>    -7.4217     0.5443     1.7011 </r>
       <r>    -7.2999     0.8198     1.8009 </r>
       <r>    -7.1781     0.7308     1.8899 </r>
       <r>    -7.0563     1.2399     2.0409 </r>
       <r>    -6.9345     0.8725     2.1472 </r>
       <r>    -6.8127     0.9430     2.2621 </r>
       <r>    -6.6909     0.7495     2.3534 </r>
       <r>    -6.5691     1.0753     2.4843 </r>
       <r>    -6.4473     0.8738     2.5907 </r>
       <r>    -6.3255     1.0874     2.7232 </r>
       <r>    -6.2037     1.0017     2.8452 </r>
       <r>    -6.0819     1.1060     2.9799 </r>
       <r>    -5.9602     1.0803     3.1115 </r>
       <r>    -5.8384     1.1587     3.2526 </r>
       <r>    -5.7166     1.2772     3.4082 </r>
       <r>    -5.5948     0.6706     3.4898 </r>
       <r>    -5.4730     1.0150     3.6135 </r>
       <r>    -5.3512     1.6677     3.8166 </r>
       <r>    -5.2294     1.2980     3.9747 </r>
       <r>    -5.1076     1.2018     4.1211 </r>
       <r>    -4.9858     1.4469     4.2973 </r>
       <r>    -4.8640     1.1108     4.4326 </r>
       <r>    -4.7422     1.4543     4.6097 </r>
       <r>    -4.6204     1.5886     4.8032 </r>
       <r>    -4.4986     1.5982     4.9978 </r>
       <r>    -4.3768     1.3946     5.1677 </r>
       <r>    -4.2550     1.3939     5.3375 </r>
       <r>    -4.1332     1.3210     5.4984 </r>
       <r>    -4.0114     2.0153     5.7438 </r>
       <r>    -3.8896     0.9003     5.8535 </r>
       <r>    -3.7678     1.2331     6.0037 </r>
       <r>    -3.6460     0.9789     6.1229 </r>
       <r>    -3.5242     1.0414     6.2498 </r>
       <r>    -3.4024     1.6676     6.4529 </r>
       <r>    -3.2806     1.3867     6.6218 </r>
       <r>    -3.1588     0.6335     6.6989 </r>
       <r>    -3.0370     1.1888     6.8437 </r>
       <r>    -2.9152     1.1001     6.9777 </r>
       <r>    -2.7934     1.2175     7.1260 </r>
       <r>    -2.6716     0.8719     7.2322 </r>
       <r>    -2.5498     0.5481     7.2989 </r>
       <r>    -2.4280     0.7127     7.3857 </r>
       <r>    -2.3063     1.0249     7.5106 </r>
       <r>    -2.1845     1.3025     7.6692 </r>
       <r>    -2.0627     1.2485     7.8213 </r>
       <r>    -1.9409     1.4635     7.9995 </r>
       <r>    -1.8191     1.1974     8.1454 </r>
       <r>    -1.6973     0.5946     8.2178 </r>
       <r>    -1.5755     0.7837     8.3132 </r>
       <r>    -1.4537     1.1812     8.4571 </r>
       <r>    -1.3319     0.8297     8.5581 </r>
       <r>    -1.2101     0.9504     8.6739 </r>
       <r>    -1.0883     1.7563     8.8878 </r>
       <r>    -0.9665     1.7552     9.1016 </r>
       <r>    -0.8447     1.7133     9.3103 </r>
       <r>    -0.7229     2.4870     9.6132 </r>
       <r>    -0.6011     2.0367     9.8612 </r>
       <r>    -0.4793     2.3683    10.1497 </r>
       <r>    -0.3575     1.2587    10.3030 </r>
       <r>    -0.2357     2.1865    10.5693 </r>
       <r>    -0.1139     2.1991    10.8371 </r>
       <r>     0.0079     2.7481    11.1719 </r>
       <r>     0.1297     1.4589    11.3495 </r>
       <r>     0.2515     1.4758    11.5293 </r>
       <r>     0.3733     0.8218    11.6294 </r>
       <r>     0.4951     1.1092    11.7645 </r>
       <r>     0.6169     1.4823    11.9450 </r>
       <r>     0.7387     0.9650    12.0626 </r>
       <r>     0.8605     1.2699    12.2172 </r>
       <r>     0.9823     1.4187    12.3900 </r>
       <r>     1.1041     1.6254    12.5880 </r>
       <r>     1.2259     0.7741    12.6823 </r>
       <r>     1.3476     0.8558    12.7865 </r>
       <r>     1.4694     1.3630    12.9525 </r>
       <r>     1.5912     1.1057    13.0872 </r>
       <r>     1.7130     0.9543    13.2034 </r>
       <r>     1.8348     1.5628    13.3938 </r>
       <r>     1.9566     1.4945    13.5758 </r>
       <r>     2.0784     2.4450    13.8736 </r>
       <r>     2.2002     1.5542    14.0629 </r>
       <r>     2.3220     2.4425    14.3604 </r>
       <r>     2.4438     1.9641    14.5996 </r>
       <r>     2.5656     2.6922    14.9275 </r>
       <r>     2.6874     1.7681    15.1428 </r>
       <r>     2.8092     1.6851    15.3481 </r>
       <r>     2.9310     1.3833    15.5165 </r>
       <r>     3.0528     1.9301    15.7516 </r>
       <r>     3.1746     3.0582    16.1241 </r>
       <r>     3.2964     3.0869    16.5001 </r>
       <r>     3.4182     1.0506    16.6280 </r>
       <r>     3.5400     1.8112    16.8486 </r>
       <r>     3.6618     2.2654    17.1246 </r>
       <r>     3.7836     2.4240    17.4198 </r>
       <r>     3.9054     2.7296    17.7522 </r>
       <r>     4.0272     2.2990    18.0323 </r>
       <r>     4.1490     2.4149    18.3264 </r>
       <r>     4.2708     1.6967    18.5330 </r>
       <r>     4.3926     2.9905    18.8973 </r>
       <r>     4.5144     3.5937    19.3350 </r>
       <r>     4.6362     3.0603    19.7077 </r>
       <r>     4.7580     2.8624    20.0563 </r>
       <r>     4.8798     2.9853    20.4199 </r>
       <r>     5.0015     2.6674    20.7448 </r>
       <r>     5.1233     2.8077    21.0868 </r>
       <r>     5.2451     4.2658    21.6063 </r>
       <r>     5.3669     4.0890    22.1044 </r>
       <r>     5.4887     2.1037    22.3606 </r>
       <r>     5.6105     1.7315    22.5715 </r>
       <r>     5.7323     3.1607    22.9565 </r>
       <r>     5.8541     3.3824    23.3684 </r>
       <r>     5.9759     4.0616    23.8631 </r>
       <r>     6.0977     2.2233    24.1339 </r>
       <r>     6.2195     2.3442    24.4194 </r>
       <r>     6.3413     3.2127    24.8107 </r>
       <r>     6.4631     2.7015    25.1397 </r>
       <r>     6.5849     2.6065    25.4572 </r>
       <r>     6.7067     3.2919    25.8581 </r>
       <r>     6.8285     2.5483    26.1685 </r>
       <r>     6.9503     2.1168    26.4264 </r>
       <r>     7.0721     3.0211    26.7943 </r>
       <r>     7.1939     3.5363    27.2250 </r>
       <r>     7.3157     2.2082    27.4940 </r>
       <r>     7.4375     2.0428    27.7428 </r>
       <r>     7.5593     2.7977    28.0835 </r>
       <r>     7.6811     1.8965    28.3145 </r>
       <r>     7.8029     3.8524    28.7837 </r>
       <r>     7.9247     2.8291    29.1283 </r>
       <r>     8.0465     1.5395    29.3158 </r>
       <r>     8.1683     1.6355    29.5150 </r>
       <r>     8.2901     2.5836    29.8297 </r>
       <r>     8.4119     1.9788    30.0707 </r>
       <r>     8.5337     2.0159    30.3162 </r>
       <r>     8.6555     1.0484    30.4439 </r>
       <r>     8.7772     0.7553    30.5359 </r>
       <r>     8.8990     1.3704    30.7028 </r>
       <r>     9.0208     1.7024    30.9102 </r>
       <r>     9.1426     1.2099    31.0575 </r>
       <r>     9.2644     0.7749    31.1519 </r>
       <r>     9.3862     0.8114    31.2507 </r>
       <r>     9.5080     0.6034    31.3242 </r>
       <r>     9.6298     1.2240    31.4733 </r>
       <r>     9.7516     0.8200    31.5732 </r>
       <r>     9.8734     0.4297    31.6255 </r>
       <r>     9.9952     0.6279    31.7020 </r>
       <r>    10.1170     0.4245    31.7537 </r>
       <r>    10.2388     0.6491    31.8327 </r>
       <r>    10.3606     0.3317    31.8731 </r>
       <r>    10.4824     0.5092    31.9352 </r>
       <r>    10.6042     0.1367    31.9518 </r>
       <r>    10.7260     0.2843    31.9864 </r>
       <r>    10.8478     0.1071    31.9995 </r>
       <r>    10.9696     0.0042    32.0000 </r>
       <r>    11.0914     0.0000    32.0000 </r>
       <r>    11.2132     0.0000    32.0000 </r>
       <r>    11.3350     0.0000    32.0000 </r>
       <r>    11.4568     0.0000    32.0000 </r>
       <r>    11.5786     0.0000    32.0000 </r>
       <r>    11.7004     0.0000    32.0000 </r>
       <r>    11.8222     0.0000    32.0000 </r>
       <r>    11.9440     0.0000    32.0000 </r>
       <r>    12.0658     0.0000    32.0000 </r>
       <r>    12.1876     0.0000    32.0000 </r>
       <r>    12.3094     0.0000    32.0000 </r>
       <r>    12.4311     0.0000    32.0000 </r>
       <r>    12.5529     0.0000    32.0000 </r>
       <r>    12.6747     0.0000    32.0000 </r>
       <r>    12.7965     0.0000    32.0000 </r>
       <r>    12.9183     0.0000    32.0000 </r>
       <r>    13.0401     0.0000    32.0000 </r>
       <r>    13.1619     0.0000    32.0000 </r>
       <r>    13.2837     0.0000    32.0000 </r>
       <r>    13.4055     0.0000    32.0000 </r>
       <r>    13.5273     0.0000    32.0000 </r>
       <r>    13.6491     0.0000    32.0000 </r>
       <r>    13.7709     0.0000    32.0000 </r>
       <r>    13.8927     0.0000    32.0000 </r>
       <r>    14.0145     0.0000    32.0000 </r>
       <r>    14.1363     0.0000    32.0000 </r>
       <r>    14.2581     0.0000    32.0000 </r>
       <r>    14.3799     0.0000    32.0000 </r>
       <r>    14.5017     0.0000    32.0000 </r>
       <r>    14.6235     0.0000    32.0000 </r>
       <r>    14.7453     0.0000    32.0000 </r>
       <r>    14.8671     0.0000    32.0000 </r>
       <r>    14.9889     0.0013    32.0002 </r>
       <r>    15.1107     0.2597    32.0318 </r>
       <r>    15.2325     0.3211    32.0709 </r>
       <r>    15.3543     0.2644    32.1031 </r>
       <r>    15.4761     0.5327    32.1680 </r>
       <r>    15.5979     0.9567    32.2845 </r>
       <r>    15.7197     1.0091    32.4074 </r>
       <r>    15.8415     0.7034    32.4931 </r>
       <r>    15.9633     0.7135    32.5800 </r>
       <r>    16.0850     0.8798    32.6871 </r>
       <r>    16.2068     1.9238    32.9215 </r>
       <r>    16.3286     1.6951    33.1279 </r>
       <r>    16.4504     1.7284    33.3384 </r>
       <r>    16.5722     1.5317    33.5250 </r>
       <r>    16.6940     1.4234    33.6984 </r>
       <r>    16.8158     1.7628    33.9131 </r>
       <r>    16.9376     1.4789    34.0932 </r>
       <r>    17.0594     1.9767    34.3339 </r>
       <r>    17.1812     2.8871    34.6856 </r>
       <r>    17.3030     2.3569    34.9726 </r>
       <r>    17.4248     2.0580    35.2233 </r>
       <r>    17.5466     1.5262    35.4092 </r>
       <r>    17.6684     2.1854    35.6754 </r>
       <r>    17.7902     3.0577    36.0478 </r>
       <r>    17.9120     2.4366    36.3446 </r>
       <r>    18.0338     2.2552    36.6192 </r>
       <r>    18.1556     1.8201    36.8409 </r>
       <r>    18.2774     3.0461    37.2119 </r>
       <r>    18.3992     3.2933    37.6130 </r>
       <r>    18.5210     3.4545    38.0338 </r>
       <r>    18.6428     3.8397    38.5014 </r>
       <r>    18.7646     3.3535    38.9099 </r>
       <r>    18.8864     3.2057    39.3003 </r>
       <r>    19.0082     3.2631    39.6978 </r>
       <r>    19.1300     3.6988    40.1483 </r>
       <r>    19.2518     3.8467    40.6168 </r>
       <r>    19.3736     3.9897    41.1027 </r>
       <r>    19.4954     4.8018    41.6875 </r>
       <r>    19.6172     5.8288    42.3975 </r>
       <r>    19.7389     3.1936    42.7864 </r>
       <r>    19.8607     2.9799    43.1494 </r>
       <r>    19.9825     3.6050    43.5885 </r>
       <r>    20.1043     2.3386    43.8733 </r>
       <r>    20.2261     2.4602    44.1730 </r>
       <r>    20.3479     2.0210    44.4191 </r>
       <r>    20.4697     3.0813    44.7944 </r>
       <r>    20.5915     4.1045    45.2943 </r>
       <r>    20.7133     2.7823    45.6332 </r>
       <r>    20.8351     2.9597    45.9937 </r>
       <r>    20.9569     2.2624    46.2692 </r>
       <r>    21.0787     2.5910    46.5848 </r>
       <r>    21.2005     2.2034    46.8532 </r>
       <r>    21.3223     1.1831    46.9972 </r>
       <r>    21.4441     1.1679    47.1395 </r>
       <r>    21.5659     2.2358    47.4118 </r>
       <r>    21.6877     1.1686    47.5541 </r>
       <r>    21.8095     1.5764    47.7461 </r>
       <r>    21.9313     0.7956    47.8430 </r>
       <r>    22.0531     0.5407    47.9089 </r>
       <r>    22.1749     0.3725    47.9543 </r>
       <r>    22.2967     0.0615    47.9618 </r>
       <r>    22.4185     0.0266    47.9650 </r>
       <r>    22.5403     0.0087    47.9661 </r>
       <r>    22.6621     0.1452    47.9837 </r>
       <r>    22.7839     0.1321    47.9998 </r>
       <r>    22.9057     0.0014    48.0000 </r>
       <r>    23.0275     0.0000    48.0000 </r>
       <r>    23.1493     0.0000    48.0000 </r>
       <r>    23.2711     0.0000    48.0000 </r>
       <r>    23.3929     0.0000    48.0000 </r>
       <r>    23.5146     0.0000    48.0000 </r>
       <r>    23.6364     0.0000    48.0000 </r>
       <r>    23.7582     0.0000    48.0000 </r>
       <r>    23.8800     0.0000    48.0000 </r>
       <r>    24.0018     0.0000    48.0000 </r>
       <r>    24.1236     0.0000    48.0000 </r>
       <r>    24.2454     0.0000    48.0000 </r>
       <r>    24.3672     0.0000    48.0000 </r>
      </set>
     </set>
    </array>
   </total>
  </dos>
 </calculation>
 <structure name="finalpos" >
  <crystal>
   <varray name="basis" >
    <v>       3.57360507       0.00595601       0.00595601 </v>
    <v>       0.00595601       3.57360507       0.00595601 </v>
    <v>       0.00595601       0.00595601       3.57360507 </v>
   </varray>
   <i name="volume">     45.63689116 </i>
   <varray name="rec_basis" >
    <v>       0.27983102      -0.00046561      -0.00046561 </v>
    <v>      -0.00046561       0.27983102      -0.00046561 </v>
    <v>      -0.00046561      -0.00046561       0.27983102 </v>
   </varray>
  </crystal>
  <varray name="positions" >
   <v>       0.24997010       0.24997010       0.24997010 </v>
   <v>       0.00002990       0.00002990       0.00002990 </v>
   <v>       0.24997010       0.74997010       0.74997010 </v>
   <v>       0.00002990       0.50002990       0.50002990 </v>
   <v>       0.74997010       0.24997010       0.74997010 </v>
   <v>       0.50002990       0.00002990       0.50002990 </v>
   <v>       0.74997010       0.74997010       0.24997010 </v>
   <v>       0.50002990       0.50002990       0.00002990 </v>
  </varray>
 </structure>
</modeling>
