unknown system                          
           1
     3.573605    0.005956    0.005956
     0.005956    3.573605    0.005956
     0.005956    0.005956    3.573605
   C 
   8
Direct configuration=     1
   0.25000000  0.25000000  0.25000000
   0.00000000  0.00000000  0.00000000
   0.25000000  0.75000000  0.75000000
   0.00000000  0.50000000  0.50000000
   0.75000000  0.25000000  0.75000000
   0.50000000  0.00000000  0.50000000
   0.75000000  0.75000000  0.25000000
   0.50000000  0.50000000  0.00000000
Direct configuration=     2
   0.24989583  0.24989583  0.24989583
   0.00010417  0.00010417  0.00010417
   0.24989583  0.74989583  0.74989583
   0.00010417  0.50010417  0.50010417
   0.74989583  0.24989583  0.74989583
   0.50010417  0.00010417  0.50010417
   0.74989583  0.74989583  0.24989583
   0.50010417  0.50010417  0.00010417
Direct configuration=     3
   0.24997010  0.24997010  0.24997010
   0.00002990  0.00002990  0.00002990
   0.24997010  0.74997010  0.74997010
   0.00002990  0.50002990  0.50002990
   0.74997010  0.24997010  0.74997010
   0.50002990  0.00002990  0.50002990
   0.74997010  0.74997010  0.24997010
   0.50002990  0.50002990  0.00002990
