   2   2   0   0
  0.7883479E+02  0.2451962E-09  0.2451962E-09  0.3028239E-08  0.5000000E-15
  1.000000000000000E-004
  CAR 
 unknown system                          
     17.86587509    -24.66445751  301     -3.52333801      1.00000000
    -24.664  0.0000E+00  0.0000E+00
    -24.523  0.0000E+00  0.0000E+00
    -24.381  0.0000E+00  0.0000E+00
    -24.239  0.0000E+00  0.0000E+00
    -24.097  0.0000E+00  0.0000E+00
    -23.956  0.0000E+00  0.0000E+00
    -23.814  0.0000E+00  0.0000E+00
    -23.672  0.0000E+00  0.0000E+00
    -23.530  0.0000E+00  0.0000E+00
    -23.389  0.0000E+00  0.0000E+00
    -23.247  0.0000E+00  0.0000E+00
    -23.105  0.0000E+00  0.0000E+00
    -22.963  0.5219E-13  0.7399E-14
    -22.821  0.1050E-04  0.1489E-05
    -22.680  0.2176E-02  0.3100E-03
    -22.538  0.1967E-02  0.5890E-03
    -22.396  0.4733E-02  0.1260E-02
    -22.254  0.2078E-02  0.1554E-02
    -22.113  0.2751E-02  0.1944E-02
    -21.971  0.2861E-02  0.2350E-02
    -21.829  0.4936E-02  0.3050E-02
    -21.687  0.2334E-02  0.3381E-02
    -21.546  0.1965E-02  0.3659E-02
    -21.404  0.3563E-02  0.4164E-02
    -21.262  0.1610E-02  0.4393E-02
    -21.120  0.5962E-02  0.5238E-02
    -20.978  0.3446E-02  0.5726E-02
    -20.837  0.8936E-03  0.5853E-02
    -20.695  0.5613E-02  0.6649E-02
    -20.553  0.1287E-03  0.6667E-02
    -20.411  0.3217E-02  0.7123E-02
    -20.270  0.3430E-02  0.7610E-02
    -20.128  0.5081E-02  0.8330E-02
    -19.986  0.3746E-02  0.8861E-02
    -19.844  0.7188E-03  0.8963E-02
    -19.703  0.4883E-02  0.9655E-02
    -19.561  0.2828E-02  0.1006E-01
    -19.419  0.3477E-02  0.1055E-01
    -19.277  0.4799E-04  0.1056E-01
    -19.136  0.1180E-02  0.1072E-01
    -18.994  0.9729E-02  0.1210E-01
    -18.852  0.3435E-02  0.1259E-01
    -18.710  0.1405E-02  0.1279E-01
    -18.568  0.3740E-02  0.1332E-01
    -18.427  0.1304E-02  0.1350E-01
    -18.285  0.6366E-02  0.1441E-01
    -18.143  0.1038E-02  0.1455E-01
    -18.001  0.3696E-02  0.1508E-01
    -17.860  0.1416E-02  0.1528E-01
    -17.718  0.3082E-02  0.1571E-01
    -17.576  0.8471E-02  0.1692E-01
    -17.434  0.4531E-02  0.1756E-01
    -17.293  0.5356E-02  0.1832E-01
    -17.151  0.1139E-03  0.1833E-01
    -17.009  0.1689E-02  0.1857E-01
    -16.867  0.4174E-02  0.1916E-01
    -16.725  0.1444E-04  0.1917E-01
    -16.584  0.2414E-04  0.1917E-01
    -16.442  0.1887E-02  0.1944E-01
    -16.300  0.5628E-02  0.2024E-01
    -16.158  0.4201E-02  0.2083E-01
    -16.017  0.3110E-02  0.2127E-01
    -15.875  0.1919E-02  0.2154E-01
    -15.733  0.1070E-02  0.2170E-01
    -15.591  0.5553E-02  0.2248E-01
    -15.450  0.4060E-02  0.2306E-01
    -15.308  0.7750E-02  0.2416E-01
    -15.166  0.3537E-02  0.2466E-01
    -15.024  0.4497E-03  0.2472E-01
    -14.882  0.2616E-02  0.2509E-01
    -14.741  0.7153E-02  0.2611E-01
    -14.599  0.2697E-04  0.2611E-01
    -14.457  0.1800E-03  0.2614E-01
    -14.315  0.7458E-02  0.2719E-01
    -14.174  0.3940E-02  0.2775E-01
    -14.032  0.9224E-03  0.2788E-01
    -13.890  0.4113E-02  0.2847E-01
    -13.748  0.1022E-02  0.2861E-01
    -13.607  0.2808E-02  0.2901E-01
    -13.465  0.4897E-02  0.2970E-01
    -13.323  0.2564E-02  0.3007E-01
    -13.181  0.6890E-02  0.3104E-01
    -13.039  0.4398E-02  0.3167E-01
    -12.898  0.1835E-02  0.3193E-01
    -12.756  0.1772E-02  0.3218E-01
    -12.614  0.4959E-02  0.3288E-01
    -12.472  0.1234E-02  0.3306E-01
    -12.331  0.1779E-02  0.3331E-01
    -12.189  0.6790E-02  0.3427E-01
    -12.047  0.8134E-02  0.3542E-01
    -11.905  0.1098E-02  0.3558E-01
    -11.764  0.4543E-02  0.3622E-01
    -11.622  0.5038E-02  0.3694E-01
    -11.480  0.1625E-02  0.3717E-01
    -11.338  0.5658E-02  0.3797E-01
    -11.197  0.1318E-02  0.3816E-01
    -11.055  0.7274E-02  0.3919E-01
    -10.913  0.4727E-02  0.3986E-01
    -10.771  0.2502E-02  0.4021E-01
    -10.629  0.8039E-02  0.4135E-01
    -10.488  0.8700E-02  0.4259E-01
    -10.346  0.7053E-02  0.4359E-01
    -10.204  0.6274E-02  0.4448E-01
    -10.062  0.1246E-01  0.4624E-01
     -9.921  0.7549E-02  0.4731E-01
     -9.779  0.1029E-01  0.4877E-01
     -9.637  0.7101E-02  0.4978E-01
     -9.495  0.9308E-02  0.5110E-01
     -9.354  0.1364E-01  0.5303E-01
     -9.212  0.7999E-02  0.5417E-01
     -9.070  0.2784E-02  0.5456E-01
     -8.928  0.1155E-01  0.5620E-01
     -8.786  0.8079E-02  0.5734E-01
     -8.645  0.8607E-02  0.5856E-01
     -8.503  0.8920E-02  0.5983E-01
     -8.361  0.5208E-02  0.6057E-01
     -8.219  0.1868E-02  0.6083E-01
     -8.078  0.7172E-02  0.6185E-01
     -7.936  0.5898E-02  0.6268E-01
     -7.794  0.6428E-02  0.6360E-01
     -7.652  0.9989E-02  0.6501E-01
     -7.511  0.5554E-02  0.6580E-01
     -7.369  0.3709E-02  0.6633E-01
     -7.227  0.5365E-02  0.6709E-01
     -7.085  0.9296E-02  0.6840E-01
     -6.943  0.1517E-02  0.6862E-01
     -6.802  0.2502E-02  0.6897E-01
     -6.660  0.6965E-02  0.6996E-01
     -6.518  0.8577E-02  0.7118E-01
     -6.376  0.6495E-02  0.7210E-01
     -6.235  0.5424E-02  0.7287E-01
     -6.093  0.3305E-02  0.7333E-01
     -5.951  0.3531E-02  0.7384E-01
     -5.809  0.4218E-02  0.7443E-01
     -5.668  0.5482E-02  0.7521E-01
     -5.526  0.2627E-02  0.7558E-01
     -5.384  0.2068E-02  0.7588E-01
     -5.242  0.3240E-02  0.7634E-01
     -5.101  0.1356E-01  0.7826E-01
     -4.959  0.5277E-03  0.7833E-01
     -4.817  0.7645E-09  0.7833E-01
     -4.675  0.5412E-03  0.7841E-01
     -4.533  0.3374E-02  0.7889E-01
     -4.392  0.1682E-02  0.7913E-01
     -4.250  0.2837E-03  0.7917E-01
     -4.108  0.1640E-02  0.7940E-01
     -3.966  0.3168E-03  0.7944E-01
     -3.825  0.6732E-03  0.7954E-01
     -3.683  0.3241E-02  0.8000E-01
     -3.541  0.4299E-05  0.8000E-01
     -3.399  0.2983E-14  0.8000E-01
     -3.258  0.0000E+00  0.8000E-01
     -3.116  0.0000E+00  0.8000E-01
     -2.974  0.0000E+00  0.8000E-01
     -2.832  0.0000E+00  0.8000E-01
     -2.690  0.1265E-14  0.8000E-01
     -2.549  0.2879E-05  0.8000E-01
     -2.407  0.3118E-02  0.8044E-01
     -2.265  0.7982E-03  0.8056E-01
     -2.123  0.1439E-02  0.8076E-01
     -1.982  0.5195E-03  0.8083E-01
     -1.840  0.2489E-03  0.8087E-01
     -1.698  0.5367E-02  0.8163E-01
     -1.556  0.2699E-03  0.8167E-01
     -1.415  0.4762E-02  0.8234E-01
     -1.273  0.8444E-02  0.8354E-01
     -1.131  0.4246E-02  0.8414E-01
     -0.989  0.5985E-02  0.8499E-01
     -0.847  0.2113E-02  0.8529E-01
     -0.706  0.5403E-02  0.8606E-01
     -0.564  0.3901E-03  0.8611E-01
     -0.422  0.8944E-04  0.8612E-01
     -0.280  0.7333E-02  0.8716E-01
     -0.139  0.4150E-03  0.8722E-01
      0.003  0.2908E-03  0.8726E-01
      0.145  0.4888E-02  0.8796E-01
      0.287  0.5963E-02  0.8880E-01
      0.428  0.4148E-02  0.8939E-01
      0.570  0.6004E-02  0.9024E-01
      0.712  0.4746E-02  0.9091E-01
      0.854  0.4278E-02  0.9152E-01
      0.996  0.3176E-02  0.9197E-01
      1.137  0.6881E-02  0.9295E-01
      1.279  0.1253E-01  0.9472E-01
      1.421  0.8009E-02  0.9586E-01
      1.563  0.1079E-01  0.9739E-01
      1.704  0.1047E-01  0.9887E-01
      1.846  0.1380E-01  0.1008E+00
      1.988  0.1031E-01  0.1023E+00
      2.130  0.1046E-01  0.1038E+00
      2.271  0.1714E-01  0.1062E+00
      2.413  0.1866E-01  0.1088E+00
      2.555  0.1517E-01  0.1110E+00
      2.697  0.1790E-01  0.1135E+00
      2.838  0.1259E-01  0.1153E+00
      2.980  0.1767E-01  0.1178E+00
      3.122  0.1508E-01  0.1200E+00
      3.264  0.1579E-01  0.1222E+00
      3.406  0.2025E-01  0.1251E+00
      3.547  0.1251E-01  0.1268E+00
      3.689  0.2667E-01  0.1306E+00
      3.831  0.1669E-01  0.1330E+00
      3.973  0.2259E-01  0.1362E+00
      4.114  0.1833E-01  0.1388E+00
      4.256  0.1886E-01  0.1415E+00
      4.398  0.2522E-01  0.1450E+00
      4.540  0.2150E-01  0.1481E+00
      4.681  0.2786E-01  0.1520E+00
      4.823  0.3000E-01  0.1563E+00
      4.965  0.2235E-01  0.1595E+00
      5.107  0.3097E-01  0.1639E+00
      5.249  0.2943E-01  0.1680E+00
      5.390  0.3946E-01  0.1736E+00
      5.532  0.3652E-01  0.1788E+00
      5.674  0.2440E-01  0.1823E+00
      5.816  0.2656E-01  0.1860E+00
      5.957  0.3602E-01  0.1911E+00
      6.099  0.3615E-01  0.1963E+00
      6.241  0.3061E-01  0.2006E+00
      6.383  0.3936E-01  0.2062E+00
      6.524  0.2645E-01  0.2099E+00
      6.666  0.2003E-01  0.2128E+00
      6.808  0.3691E-01  0.2180E+00
      6.950  0.2854E-01  0.2220E+00
      7.092  0.2342E-01  0.2254E+00
      7.233  0.3406E-01  0.2302E+00
      7.375  0.2969E-01  0.2344E+00
      7.517  0.3748E-01  0.2397E+00
      7.659  0.3989E-01  0.2454E+00
      7.800  0.3812E-01  0.2508E+00
      7.942  0.3150E-01  0.2552E+00
      8.084  0.2967E-01  0.2594E+00
      8.226  0.3535E-01  0.2645E+00
      8.367  0.3748E-01  0.2698E+00
      8.509  0.3408E-01  0.2746E+00
      8.651  0.3228E-01  0.2792E+00
      8.793  0.2931E-01  0.2833E+00
      8.935  0.2785E-01  0.2873E+00
      9.076  0.3079E-01  0.2916E+00
      9.218  0.3999E-01  0.2973E+00
      9.360  0.4987E-01  0.3044E+00
      9.502  0.2549E-01  0.3080E+00
      9.643  0.3433E-01  0.3129E+00
      9.785  0.3424E-01  0.3177E+00
      9.927  0.4461E-01  0.3240E+00
     10.069  0.3952E-01  0.3296E+00
     10.210  0.3749E-01  0.3350E+00
     10.352  0.4967E-01  0.3420E+00
     10.494  0.3491E-01  0.3470E+00
     10.636  0.2605E-01  0.3506E+00
     10.777  0.4056E-01  0.3564E+00
     10.919  0.3514E-01  0.3614E+00
     11.061  0.4479E-01  0.3677E+00
     11.203  0.4602E-01  0.3743E+00
     11.345  0.3937E-01  0.3798E+00
     11.486  0.3690E-01  0.3851E+00
     11.628  0.3471E-01  0.3900E+00
     11.770  0.4418E-01  0.3962E+00
     11.912  0.2213E-01  0.3994E+00
     12.053  0.3801E-01  0.4048E+00
     12.195  0.3541E-01  0.4098E+00
     12.337  0.4258E-01  0.4158E+00
     12.479  0.3376E-01  0.4206E+00
     12.620  0.3086E-01  0.4250E+00
     12.762  0.5807E-01  0.4332E+00
     12.904  0.2272E-01  0.4364E+00
     13.046  0.2840E-01  0.4405E+00
     13.188  0.2487E-01  0.4440E+00
     13.329  0.3005E-01  0.4483E+00
     13.471  0.2888E-01  0.4524E+00
     13.613  0.2425E-01  0.4558E+00
     13.755  0.2188E-01  0.4589E+00
     13.896  0.3339E-01  0.4636E+00
     14.038  0.1802E-01  0.4662E+00
     14.180  0.2389E-01  0.4696E+00
     14.322  0.9441E-02  0.4709E+00
     14.463  0.1598E-01  0.4732E+00
     14.605  0.1490E-01  0.4753E+00
     14.747  0.7494E-02  0.4763E+00
     14.889  0.4226E-03  0.4764E+00
     15.031  0.7279E-02  0.4774E+00
     15.172  0.6763E-02  0.4784E+00
     15.314  0.1512E-02  0.4786E+00
     15.456  0.1305E-06  0.4786E+00
     15.598  0.2496E-02  0.4790E+00
     15.739  0.5335E-02  0.4797E+00
     15.881  0.1486E-03  0.4797E+00
     16.023  0.1807E-02  0.4800E+00
     16.165  0.1050E-04  0.4800E+00
     16.306  0.5219E-13  0.4800E+00
     16.448  0.0000E+00  0.4800E+00
     16.590  0.0000E+00  0.4800E+00
     16.732  0.0000E+00  0.4800E+00
     16.874  0.0000E+00  0.4800E+00
     17.015  0.0000E+00  0.4800E+00
     17.157  0.0000E+00  0.4800E+00
     17.299  0.0000E+00  0.4800E+00
     17.441  0.0000E+00  0.4800E+00
     17.582  0.0000E+00  0.4800E+00
     17.724  0.0000E+00  0.4800E+00
     17.866  0.0000E+00  0.4800E+00
