       N       E                     dE             d eps       ncg     rms          rms(c)
RMM:   1     0.102306682016E+03    0.10231E+03   -0.15100E+03  1008   0.229E+02
RMM:   2     0.496520251729E+02   -0.52655E+02   -0.29071E+02  1008   0.441E+01
RMM:   3     0.107870895461E+02   -0.38865E+02   -0.20204E+02  1008   0.363E+01
RMM:   4    -0.132265339228E+02   -0.24014E+02   -0.14097E+02  1008   0.348E+01
RMM:   5    -0.184106221241E+02   -0.51841E+01   -0.38873E+01  1008   0.215E+01
RMM:   6    -0.194759841574E+02   -0.10654E+01   -0.87152E+00  1008   0.110E+01
RMM:   7    -0.197125578317E+02   -0.23657E+00   -0.19718E+00  1008   0.550E+00
RMM:   8    -0.197748142761E+02   -0.62256E-01   -0.51183E-01  1008   0.283E+00
RMM:   9    -0.197977138198E+02   -0.22900E-01   -0.19935E-01  2024   0.151E+00
RMM:  10    -0.198018532166E+02   -0.41394E-02   -0.35475E-02  2064   0.534E-01
RMM:  11    -0.198020177497E+02   -0.16453E-03   -0.12920E-03  2025   0.103E-01
RMM:  12    -0.198020465349E+02   -0.28785E-04   -0.23380E-04  2055   0.401E-02    0.933E+00
RMM:  13    -0.188600697169E+02    0.94198E+00   -0.46562E-01  2016   0.192E+00    0.610E+00
RMM:  14    -0.185064054805E+02    0.35366E+00   -0.98166E-01  2016   0.272E+00    0.123E+00
RMM:  15    -0.184842995579E+02    0.22106E-01   -0.26947E-02  2024   0.586E-01    0.128E-01
RMM:  16    -0.184826117609E+02    0.16878E-02   -0.44566E-04  2027   0.803E-02    0.848E-02
RMM:  17    -0.184811608002E+02    0.14510E-02   -0.59323E-04  2018   0.609E-02    0.628E-02
RMM:  18    -0.184810745901E+02    0.86210E-04   -0.17700E-04  2016   0.488E-02    0.607E-02
RMM:  19    -0.184815515039E+02   -0.47691E-03   -0.15434E-04  2016   0.321E-02    0.167E-02
RMM:  20    -0.184818377287E+02   -0.28622E-03   -0.58759E-06  2018   0.664E-03    0.208E-02
RMM:  21    -0.184824281437E+02   -0.59042E-03   -0.50124E-05  2016   0.149E-02    0.657E-03
RMM:  22    -0.184825222947E+02   -0.94151E-04   -0.27863E-06  1956   0.324E-03    0.293E-03
RMM:  23    -0.184825451881E+02   -0.22893E-04   -0.59905E-07  2016   0.206E-03    0.926E-04
RMM:  24    -0.184825595451E+02   -0.14357E-04   -0.12487E-07  1889   0.647E-04    0.332E-04
RMM:  25    -0.184825615066E+02   -0.19614E-05   -0.31939E-09  1821   0.184E-04    0.226E-04
RMM:  26    -0.184825638439E+02   -0.23373E-05   -0.13464E-08  1832   0.269E-04    0.332E-04
RMM:  27    -0.184825647841E+02   -0.94024E-06   -0.55118E-09  1818   0.224E-04    0.296E-04
RMM:  28    -0.184825649974E+02   -0.21325E-06   -0.11640E-10  1667   0.862E-05    0.840E-05
RMM:  29    -0.184825650540E+02   -0.56562E-07   -0.93524E-10  1713   0.106E-04
   1 F= -.18590945E+02 E0= -.18590945E+02  d E =-.185909E+02
