<?xml version="1.0" encoding="ISO-8859-1"?>
<modeling>
 <generator>
  <i name="program" type="string">vasp </i>
  <i name="version" type="string">5.4.4.18Apr17-6-g9f103f2a35  </i>
  <i name="subversion" type="string">(build Jan 14 2019 14:48:31) complex            parallel </i>
  <i name="platform" type="string">LinuxIFC </i>
  <i name="date" type="string">2019 09 10 </i>
  <i name="time" type="string">15:54:03 </i>
 </generator>
 <incar>
  <i type="int" name="ISTART">     1</i>
  <i type="string" name="PREC">high</i>
  <i type="string" name="ALGO">very</i>
  <i type="int" name="NELM">    40</i>
  <i type="int" name="IBRION">     2</i>
  <i name="EDIFF">      0.00000010</i>
  <i name="EDIFFG">     -0.01000000</i>
  <i type="int" name="NSW">   100</i>
  <i type="logical" name="LREAL"> F  </i>
  <i type="int" name="ISMEAR">     0</i>
  <i name="SIGMA">      0.05000000</i>
  <i type="logical" name="LWAVE"> F  </i>
  <i type="logical" name="LCHARG"> F  </i>
  <v type="int" name="KPOINT_BSE">    -1     0     0     0</v>
  <i type="int" name="NELM">    40</i>
 </incar>
 <structure name="primitive_cell" >
  <crystal>
   <varray name="basis" >
    <v>       1.22597887      -2.12346303       0.00000000 </v>
    <v>       1.22597887       2.12346303       0.00000000 </v>
    <v>       0.00000000       0.00000000      30.28239374 </v>
   </varray>
   <i name="volume">    157.66957062 </i>
   <varray name="rec_basis" >
    <v>       0.40783737      -0.23546442       0.00000000 </v>
    <v>       0.40783737       0.23546442       0.00000000 </v>
    <v>       0.00000000       0.00000000       0.03302249 </v>
   </varray>
  </crystal>
  <varray name="positions" >
   <v>       0.00000262      -0.00000262      -0.50000000 </v>
   <v>      -0.33333262       0.33333262      -0.50000000 </v>
  </varray>
 </structure>
 <varray name="primitive_index" >
  <v type="int" >        1 </v>
  <v type="int" >        2 </v>
 </varray>
 <kpoints>
  <generation param="Monkhorst-Pack">
   <v type="int" name="divisions">      12       12        1 </v>
   <v name="usershift">      0.00000000       0.00000000       0.00000000 </v>
   <v name="genvec1">      0.08333333      -0.00000000       0.00000000 </v>
   <v name="genvec2">     -0.00000000       0.08333333       0.00000000 </v>
   <v name="genvec3">      0.00000000       0.00000000       1.00000000 </v>
   <v name="shift">      0.50000000       0.50000000       0.00000000 </v>
  </generation>
  <varray name="kpointlist" >
   <v>       0.04166667       0.04166667       0.00000000 </v>
   <v>       0.12500000       0.04166667       0.00000000 </v>
   <v>       0.20833333       0.04166667       0.00000000 </v>
   <v>       0.29166667       0.04166667       0.00000000 </v>
   <v>       0.37500000       0.04166667       0.00000000 </v>
   <v>       0.45833333       0.04166667       0.00000000 </v>
   <v>      -0.45833333       0.04166667       0.00000000 </v>
   <v>      -0.37500000       0.04166667       0.00000000 </v>
   <v>      -0.29166667       0.04166667       0.00000000 </v>
   <v>      -0.20833333       0.04166667       0.00000000 </v>
   <v>      -0.12500000       0.04166667       0.00000000 </v>
   <v>      -0.04166667       0.04166667       0.00000000 </v>
   <v>       0.12500000       0.12500000       0.00000000 </v>
   <v>       0.20833333       0.12500000       0.00000000 </v>
   <v>       0.29166667       0.12500000       0.00000000 </v>
   <v>       0.37500000       0.12500000       0.00000000 </v>
   <v>       0.45833333       0.12500000       0.00000000 </v>
   <v>      -0.45833333       0.12500000       0.00000000 </v>
   <v>      -0.37500000       0.12500000       0.00000000 </v>
   <v>      -0.29166667       0.12500000       0.00000000 </v>
   <v>      -0.20833333       0.12500000       0.00000000 </v>
   <v>      -0.12500000       0.12500000       0.00000000 </v>
   <v>       0.20833333       0.20833333       0.00000000 </v>
   <v>       0.29166667       0.20833333       0.00000000 </v>
   <v>       0.37500000       0.20833333       0.00000000 </v>
   <v>       0.45833333       0.20833333       0.00000000 </v>
   <v>      -0.45833333       0.20833333       0.00000000 </v>
   <v>      -0.37500000       0.20833333       0.00000000 </v>
   <v>      -0.29166667       0.20833333       0.00000000 </v>
   <v>      -0.20833333       0.20833333       0.00000000 </v>
   <v>       0.29166667       0.29166667       0.00000000 </v>
   <v>       0.37500000       0.29166667       0.00000000 </v>
   <v>       0.45833333       0.29166667       0.00000000 </v>
   <v>      -0.45833333       0.29166667       0.00000000 </v>
   <v>      -0.37500000       0.29166667       0.00000000 </v>
   <v>      -0.29166667       0.29166667       0.00000000 </v>
   <v>       0.37500000       0.37500000       0.00000000 </v>
   <v>       0.45833333       0.37500000       0.00000000 </v>
   <v>      -0.45833333       0.37500000       0.00000000 </v>
   <v>      -0.37500000       0.37500000       0.00000000 </v>
   <v>       0.45833333       0.45833333       0.00000000 </v>
   <v>      -0.45833333       0.45833333       0.00000000 </v>
  </varray>
  <varray name="weights" >
   <v>       0.01388889 </v>
   <v>       0.02777778 </v>
   <v>       0.02777778 </v>
   <v>       0.02777778 </v>
   <v>       0.02777778 </v>
   <v>       0.02777778 </v>
   <v>       0.02777778 </v>
   <v>       0.02777778 </v>
   <v>       0.02777778 </v>
   <v>       0.02777778 </v>
   <v>       0.02777778 </v>
   <v>       0.01388889 </v>
   <v>       0.01388889 </v>
   <v>       0.02777778 </v>
   <v>       0.02777778 </v>
   <v>       0.02777778 </v>
   <v>       0.02777778 </v>
   <v>       0.02777778 </v>
   <v>       0.02777778 </v>
   <v>       0.02777778 </v>
   <v>       0.02777778 </v>
   <v>       0.01388889 </v>
   <v>       0.01388889 </v>
   <v>       0.02777778 </v>
   <v>       0.02777778 </v>
   <v>       0.02777778 </v>
   <v>       0.02777778 </v>
   <v>       0.02777778 </v>
   <v>       0.02777778 </v>
   <v>       0.01388889 </v>
   <v>       0.01388889 </v>
   <v>       0.02777778 </v>
   <v>       0.02777778 </v>
   <v>       0.02777778 </v>
   <v>       0.02777778 </v>
   <v>       0.01388889 </v>
   <v>       0.01388889 </v>
   <v>       0.02777778 </v>
   <v>       0.02777778 </v>
   <v>       0.01388889 </v>
   <v>       0.01388889 </v>
   <v>       0.01388889 </v>
  </varray>
 </kpoints>
 <parameters>
  <separator name="general" >
   <i type="string" name="SYSTEM">unknown system</i>
   <i type="logical" name="LCOMPAT"> F  </i>
  </separator>
  <separator name="electronic" >
   <i type="string" name="PREC">high</i>
   <i name="ENMAX">    875.00000000</i>
   <i name="ENAUG">    946.76800000</i>
   <i name="EDIFF">      0.00000010</i>
   <i type="int" name="IALGO">    48</i>
   <i type="int" name="IWAVPR">    11</i>
   <i type="int" name="NBANDS">    24</i>
   <i name="NELECT">      8.00000000</i>
   <i type="int" name="TURBO">     0</i>
   <i type="int" name="IRESTART">     0</i>
   <i type="int" name="NREBOOT">     0</i>
   <i type="int" name="NMIN">     0</i>
   <i name="EREF">      0.00000000</i>
   <separator name="electronic smearing" >
    <i type="int" name="ISMEAR">     0</i>
    <i name="SIGMA">      0.05000000</i>
    <i name="KSPACING">      0.50000000</i>
    <i type="logical" name="KGAMMA"> T  </i>
   </separator>
   <separator name="electronic projectors" >
    <i type="logical" name="LREAL"> F  </i>
    <v name="ROPT">      0.00000000</v>
    <i type="int" name="LMAXPAW">  -100</i>
    <i type="int" name="LMAXMIX">     2</i>
    <i type="logical" name="NLSPLINE"> F  </i>
   </separator>
   <separator name="electronic startup" >
    <i type="int" name="ISTART">     0</i>
    <i type="int" name="ICHARG">     2</i>
    <i type="int" name="INIWAV">     1</i>
   </separator>
   <separator name="electronic spin" >
    <i type="int" name="ISPIN">     1</i>
    <i type="logical" name="LNONCOLLINEAR"> F  </i>
    <v name="MAGMOM">      1.00000000      1.00000000</v>
    <i name="NUPDOWN">     -1.00000000</i>
    <i type="logical" name="LSORBIT"> F  </i>
    <v name="SAXIS">      0.00000000      0.00000000      1.00000000</v>
    <i type="logical" name="LSPIRAL"> F  </i>
    <v name="QSPIRAL">      0.00000000      0.00000000      0.00000000</v>
    <i type="logical" name="LZEROZ"> F  </i>
   </separator>
   <separator name="electronic exchange-correlation" >
    <i type="logical" name="LASPH"> F  </i>
    <i type="logical" name="LMETAGGA"> F  </i>
   </separator>
   <separator name="electronic convergence" >
    <i type="int" name="NELM">    40</i>
    <i type="int" name="NELMDL">     0</i>
    <i type="int" name="NELMIN">     2</i>
    <i name="ENINI">    875.00000000</i>
    <separator name="electronic convergence detail" >
     <i type="logical" name="LDIAG"> T  </i>
     <i type="logical" name="LSUBROT"> F  </i>
     <i name="WEIMIN">      0.00100000</i>
     <i name="EBREAK">      0.00000000</i>
     <i name="DEPER">      0.30000000</i>
     <i type="int" name="NRMM">     4</i>
     <i name="TIME">      0.40000000</i>
    </separator>
   </separator>
   <separator name="electronic mixer" >
    <i name="AMIX">      0.40000000</i>
    <i name="BMIX">      1.00000000</i>
    <i name="AMIN">      0.10000000</i>
    <i name="AMIX_MAG">      1.60000000</i>
    <i name="BMIX_MAG">      1.00000000</i>
    <separator name="electronic mixer details" >
     <i type="int" name="IMIX">     4</i>
     <i type="logical" name="MIXFIRST"> F  </i>
     <i type="int" name="MAXMIX">   -45</i>
     <i name="WC">    100.00000000</i>
     <i type="int" name="INIMIX">     1</i>
     <i type="int" name="MIXPRE">     1</i>
     <i type="int" name="MREMOVE">     5</i>
    </separator>
   </separator>
   <separator name="electronic dipolcorrection" >
    <i type="logical" name="LDIPOL"> F  </i>
    <i type="logical" name="LMONO"> F  </i>
    <i type="int" name="IDIPOL">     0</i>
    <i name="EPSILON">      1.00000000</i>
    <v name="DIPOL">   -100.00000000   -100.00000000   -100.00000000</v>
    <i name="EFIELD">      0.00000000</i>
   </separator>
  </separator>
  <separator name="grids" >
   <i type="int" name="NGX">    24</i>
   <i type="int" name="NGY">    24</i>
   <i type="int" name="NGZ">   294</i>
   <i type="int" name="NGXF">    32</i>
   <i type="int" name="NGYF">    32</i>
   <i type="int" name="NGZF">   420</i>
   <i type="logical" name="ADDGRID"> F  </i>
  </separator>
  <separator name="ionic" >
   <i type="int" name="NSW">   100</i>
   <i type="int" name="IBRION">     2</i>
   <i type="int" name="MDALGO">     0</i>
   <i type="int" name="ISIF">     2</i>
   <i name="PSTRESS">      0.00000000</i>
   <i name="EDIFFG">     -0.01000000</i>
   <i type="int" name="NFREE">     1</i>
   <i name="POTIM">      0.50000000</i>
   <i name="SMASS">     -3.00000000</i>
   <i name="SCALEE">      1.00000000</i>
  </separator>
  <separator name="ionic md" >
   <i name="TEBEG">      0.00010000</i>
   <i name="TEEND">      0.00010000</i>
   <i type="int" name="NBLOCK">     1</i>
   <i type="int" name="KBLOCK">   100</i>
   <i type="int" name="NPACO">   256</i>
   <i name="APACO">     16.00000000</i>
  </separator>
  <separator name="symmetry" >
   <i type="int" name="ISYM">     2</i>
   <i name="SYMPREC">      0.00001000</i>
  </separator>
  <separator name="dos" >
   <i type="int" name="LORBIT">     0</i>
   <v name="RWIGS">     -1.00000000</v>
   <i type="int" name="NEDOS">   301</i>
   <i name="EMIN">     10.00000000</i>
   <i name="EMAX">    -10.00000000</i>
   <i name="EFERMI">      0.00000000</i>
  </separator>
  <separator name="writing" >
   <i type="int" name="NWRITE">     2</i>
   <i type="logical" name="LWAVE"> F  </i>
   <i type="logical" name="LDOWNSAMPLE"> F  </i>
   <i type="logical" name="LCHARG"> F  </i>
   <i type="logical" name="LPARD"> F  </i>
   <i type="logical" name="LVTOT"> F  </i>
   <i type="logical" name="LVHAR"> F  </i>
   <i type="logical" name="LELF"> F  </i>
   <i type="logical" name="LOPTICS"> F  </i>
   <v name="STM">      0.00000000      0.00000000      0.00000000      0.00000000      0.00000000      0.00000000      0.00000000</v>
  </separator>
  <separator name="performance" >
   <i type="int" name="NPAR">    24</i>
   <i type="int" name="NSIM">     4</i>
   <i type="int" name="NBLK">    -1</i>
   <i type="logical" name="LPLANE"> T  </i>
   <i type="logical" name="LSCALAPACK"> T  </i>
   <i type="logical" name="LSCAAWARE"> F  </i>
   <i type="logical" name="LSCALU"> F  </i>
   <i type="logical" name="LASYNC"> F  </i>
   <i type="logical" name="LORBITALREAL"> F  </i>
  </separator>
  <separator name="miscellaneous" >
   <i type="int" name="IDIOT">     3</i>
   <i type="int" name="ISPECIAL">     0</i>
   <i type="logical" name="LMUSIC"> F  </i>
   <v name="POMASS">     12.01100000</v>
   <v name="DARWINR">      0.00000000</v>
   <v name="DARWINV">      1.00000000</v>
   <i type="logical" name="LCORR"> T  </i>
  </separator>
  <i type="logical" name="GGA_COMPAT"> T  </i>
  <i type="logical" name="LBERRY"> F  </i>
  <i type="int" name="ICORELEVEL">     0</i>
  <i type="logical" name="LDAU"> F  </i>
  <i type="int" name="I_CONSTRAINED_M">     0</i>
  <separator name="electronic exchange-correlation" >
   <i type="string" name="GGA">--</i>
   <i type="int" name="VOSKOWN">     0</i>
   <i type="logical" name="LHFCALC"> F  </i>
   <i type="string" name="PRECFOCK"></i>
   <i type="logical" name="LSYMGRAD"> F  </i>
   <i type="logical" name="LHFONE"> F  </i>
   <i type="logical" name="LRHFCALC"> F  </i>
   <i type="logical" name="LTHOMAS"> F  </i>
   <i type="logical" name="LMODELHF"> F  </i>
   <i name="ENCUT4O">     -1.00000000</i>
   <i type="int" name="EXXOEP">     0</i>
   <i type="int" name="FOURORBIT">     0</i>
   <i name="AEXX">      0.00000000</i>
   <i name="HFALPHA">      0.00000000</i>
   <i name="MCALPHA">      0.00000000</i>
   <i name="ALDAX">      1.00000000</i>
   <i name="AGGAX">      1.00000000</i>
   <i name="ALDAC">      1.00000000</i>
   <i name="AGGAC">      1.00000000</i>
   <i type="int" name="NKREDX">     1</i>
   <i type="int" name="NKREDY">     1</i>
   <i type="int" name="NKREDZ">     1</i>
   <i type="logical" name="SHIFTRED"> F  </i>
   <i type="logical" name="ODDONLY"> F  </i>
   <i type="logical" name="EVENONLY"> F  </i>
   <i type="int" name="LMAXFOCK">     0</i>
   <i type="int" name="NMAXFOCKAE">     0</i>
   <i type="logical" name="LFOCKAEDFT"> F  </i>
   <i name="HFSCREEN">      0.00000000</i>
   <i name="HFSCREENC">      0.00000000</i>
   <i type="int" name="NBANDSGWLOW">     0</i>
  </separator>
  <separator name="vdW DFT" >
   <i type="logical" name="LUSE_VDW"> F  </i>
   <i name="Zab_VDW">     -0.84910000</i>
   <i name="PARAM1">      0.12340000</i>
   <i name="PARAM2">      1.00000000</i>
   <i name="PARAM3">      0.00000000</i>
  </separator>
  <separator name="model GW" >
   <i type="int" name="MODEL_GW">     0</i>
   <i name="MODEL_EPS0">     47.30087118</i>
   <i name="MODEL_ALPHA">      1.00000000</i>
  </separator>
  <separator name="linear response parameters" >
   <i type="logical" name="LEPSILON"> F  </i>
   <i type="logical" name="LRPA"> F  </i>
   <i type="logical" name="LNABLA"> F  </i>
   <i type="logical" name="LVEL"> F  </i>
   <i type="int" name="KINTER">     0</i>
   <i name="CSHIFT">      0.10000000</i>
   <i name="OMEGAMAX">     -1.00000000</i>
   <i name="DEG_THRESHOLD">      0.00200000</i>
   <i name="RTIME">     -0.10000000</i>
   <i name="WPLASMAI">      0.00000000</i>
   <v name="DFIELD">      0.00000000      0.00000000      0.00000000</v>
   <v name="WPLASMA">      0.00000000      0.00000000      0.00000000      0.00000000      0.00000000      0.00000000      0.00000000      0.00000000      0.00000000</v>
  </separator>
  <separator name="orbital magnetization" >
   <i type="logical" name="NUCIND"> F  </i>
   <v name="MAGPOS">      0.00000000      0.00000000      0.00000000</v>
   <i type="logical" name="LNICSALL"> T  </i>
   <i type="logical" name="ORBITALMAG"> F  </i>
   <i type="logical" name="LMAGBLOCH"> F  </i>
   <i type="logical" name="LCHIMAG"> F  </i>
   <i type="logical" name="LGAUGE"> T  </i>
   <i type="int" name="MAGATOM">     0</i>
   <v name="MAGDIPOL">      0.00000000      0.00000000      0.00000000</v>
   <v name="AVECCONST">      0.00000000      0.00000000      0.00000000</v>
  </separator>
  <separator name="response functions" >
   <i type="logical" name="LADDER"> F  </i>
   <i type="logical" name="LRPAFORCE"> F  </i>
   <i type="logical" name="LFXC"> F  </i>
   <i type="logical" name="LHARTREE"> T  </i>
   <i type="int" name="IBSE">     0</i>
   <v type="int" name="KPOINT">    -1     0     0     0</v>
   <i type="logical" name="LTCTE"> F  </i>
   <i type="logical" name="LTETE"> F  </i>
   <i type="logical" name="LTRIPLET"> F  </i>
   <i type="logical" name="LFXCEPS"> F  </i>
   <i type="logical" name="LFXHEG"> F  </i>
   <i type="int" name="NATURALO">     2</i>
   <i type="logical" name="L2ORDER"> F  </i>
   <i type="logical" name="LMP2LT"> F  </i>
   <i type="logical" name="LUSEW"> F  </i>
   <i name="ENCUTGW">     -2.00000000</i>
   <i name="ENCUTGWSOFT">     -2.00000000</i>
   <i name="ENCUTLF">     -1.00000000</i>
   <i type="int" name="LMAXMP2">    -1</i>
   <i name="SCISSOR">      0.00000000</i>
   <i type="int" name="NOMEGA">     0</i>
   <i type="int" name="NOMEGAR">     0</i>
   <i type="int" name="NBANDSGW">    -1</i>
   <i type="int" name="NBANDSO">    -1</i>
   <i type="int" name="NBANDSV">    -1</i>
   <i type="int" name="NELM">    40</i>
   <i type="int" name="NELMHF">     1</i>
   <i type="int" name="DIM">     3</i>
   <i type="int" name="ANTIRES">     0</i>
   <i name="OMEGAMAX">    -30.00000000</i>
   <i name="OMEGAMIN">    -30.00000000</i>
   <i name="OMEGATL">   -200.00000000</i>
   <i type="int" name="OMEGAGRID">   140</i>
   <i name="CSHIFT">     -0.10000000</i>
   <i type="logical" name="SELFENERGY"> F  </i>
   <i type="logical" name="LSPECTRAL"> F  </i>
   <i type="logical" name="LSPECTRALGW"> F  </i>
   <i type="logical" name="LSINGLES"> F  </i>
   <i type="logical" name="LFERMIGW"> F  </i>
   <i type="logical" name="ODDONLYGW"> F  </i>
   <i type="logical" name="EVENONLYGW"> F  </i>
   <i type="int" name="NKREDLFX">     1</i>
   <i type="int" name="NKREDLFY">     1</i>
   <i type="int" name="NKREDLFZ">     1</i>
   <i type="int" name="MAXMEM">  2800</i>
   <i type="int" name="TELESCOPE">     0</i>
   <i type="int" name="TAUPAR">     1</i>
   <i type="int" name="OMEGAPAR">    -1</i>
   <i name="LAMBDA">      1.00000000</i>
  </separator>
  <separator name="External order field" >
   <i name="OFIELD_KAPPA">      0.00000000</i>
   <v name="OFIELD_K">      0.00000000      0.00000000      0.00000000</v>
   <i name="OFIELD_Q6_NEAR">      0.00000000</i>
   <i name="OFIELD_Q6_FAR">      0.00000000</i>
   <i name="OFIELD_A">      0.00000000</i>
  </separator>
 </parameters>
 <atominfo>
  <atoms>       2 </atoms>
  <types>       1 </types>
  <array name="atoms" >
   <dimension dim="1">ion</dimension>
   <field type="string">element</field>
   <field type="int">atomtype</field>
   <set>
    <rc><c>C </c><c>   1</c></rc>
    <rc><c>C </c><c>   1</c></rc>
   </set>
  </array>
  <array name="atomtypes" >
   <dimension dim="1">type</dimension>
   <field type="int">atomspertype</field>
   <field type="string">element</field>
   <field>mass</field>
   <field>valence</field>
   <field type="string">pseudopotential</field>
   <set>
    <rc><c>   2</c><c>C </c><c>     12.01100000</c><c>      4.00000000</c><c>  PAW_PBE C_h 06Feb2004                 </c></rc>
   </set>
  </array>
 </atominfo>
 <structure name="initialpos" >
  <crystal>
   <varray name="basis" >
    <v>       1.22597887      -2.12346303       0.00000000 </v>
    <v>       1.22597887       2.12346303       0.00000000 </v>
    <v>       0.00000000       0.00000000      30.28239374 </v>
   </varray>
   <i name="volume">    157.66957062 </i>
   <varray name="rec_basis" >
    <v>       0.40783737      -0.23546442       0.00000000 </v>
    <v>       0.40783737       0.23546442       0.00000000 </v>
    <v>       0.00000000       0.00000000       0.03302249 </v>
   </varray>
  </crystal>
  <varray name="positions" >
   <v>       0.00000262       0.99999738       0.50000000 </v>
   <v>       0.66666738       0.33333262       0.50000000 </v>
  </varray>
 </structure>
 <calculation>
  <scstep>
   <time name="diag">    0.64    0.75</time>
   <time name="diis">    1.20    1.23</time>
   <time name="orth">    0.03    0.03</time>
   <time name="total">    1.93    2.11</time>
   <energy>
    <i name="alphaZ">      1.39077550 </i>
    <i name="ewald">   2265.68936800 </i>
    <i name="hartreedc">  -2470.70578798 </i>
    <i name="XCdc">     14.57563677 </i>
    <i name="pawpsdc">    228.69403340 </i>
    <i name="pawaedc">   -218.18290438 </i>
    <i name="eentropy">     -0.00154708 </i>
    <i name="bandstr">    -13.45608538 </i>
    <i name="atom">    294.30319316 </i>
    <i name="e_fr_energy">    102.30668202 </i>
    <i name="e_wo_entrp">    102.30822909 </i>
    <i name="e_0_energy">    102.30745555 </i>
   </energy>
  </scstep>
  <scstep>
   <time name="diag">    0.63    0.63</time>
   <time name="diis">    1.20    1.20</time>
   <time name="orth">    0.03    0.03</time>
   <time name="total">    1.86    1.86</time>
   <energy>
    <i name="e_fr_energy">     49.65202517 </i>
    <i name="e_wo_entrp">     49.65433676 </i>
    <i name="e_0_energy">     49.65318097 </i>
   </energy>
  </scstep>
  <scstep>
   <time name="diag">    0.62    0.63</time>
   <time name="diis">    1.21    1.21</time>
   <time name="orth">    0.03    0.03</time>
   <time name="total">    1.86    1.87</time>
   <energy>
    <i name="e_fr_energy">     10.78708955 </i>
    <i name="e_wo_entrp">     10.78744837 </i>
    <i name="e_0_energy">     10.78726896 </i>
   </energy>
  </scstep>
  <scstep>
   <time name="diag">    0.62    0.63</time>
   <time name="diis">    1.21    1.21</time>
   <time name="orth">    0.03    0.03</time>
   <time name="total">    1.86    1.88</time>
   <energy>
    <i name="e_fr_energy">    -13.22653392 </i>
    <i name="e_wo_entrp">    -13.22575033 </i>
    <i name="e_0_energy">    -13.22614212 </i>
   </energy>
  </scstep>
  <scstep>
   <time name="diag">    0.62    0.63</time>
   <time name="diis">    1.20    1.21</time>
   <time name="orth">    0.03    0.03</time>
   <time name="total">    1.85    1.87</time>
   <energy>
    <i name="e_fr_energy">    -18.41062212 </i>
    <i name="e_wo_entrp">    -18.41062212 </i>
    <i name="e_0_energy">    -18.41062212 </i>
   </energy>
  </scstep>
  <scstep>
   <time name="diag">    0.62    0.64</time>
   <time name="diis">    1.20    1.20</time>
   <time name="orth">    0.03    0.03</time>
   <time name="total">    1.85    1.87</time>
   <energy>
    <i name="e_fr_energy">    -19.47598416 </i>
    <i name="e_wo_entrp">    -19.47598416 </i>
    <i name="e_0_energy">    -19.47598416 </i>
   </energy>
  </scstep>
  <scstep>
   <time name="diag">    0.62    0.63</time>
   <time name="diis">    1.18    1.19</time>
   <time name="orth">    0.03    0.03</time>
   <time name="total">    1.83    1.85</time>
   <energy>
    <i name="e_fr_energy">    -19.71255783 </i>
    <i name="e_wo_entrp">    -19.71255783 </i>
    <i name="e_0_energy">    -19.71255783 </i>
   </energy>
  </scstep>
  <scstep>
   <time name="diag">    0.62    0.63</time>
   <time name="diis">    1.20    1.21</time>
   <time name="orth">    0.03    0.03</time>
   <time name="total">    1.85    1.87</time>
   <energy>
    <i name="e_fr_energy">    -19.77481428 </i>
    <i name="e_wo_entrp">    -19.77481428 </i>
    <i name="e_0_energy">    -19.77481428 </i>
   </energy>
  </scstep>
  <scstep>
   <time name="diag">    0.62    0.63</time>
   <time name="diis">    2.28    2.33</time>
   <time name="orth">    0.03    0.03</time>
   <time name="total">    2.93    2.99</time>
   <energy>
    <i name="e_fr_energy">    -19.79771382 </i>
    <i name="e_wo_entrp">    -19.79771382 </i>
    <i name="e_0_energy">    -19.79771382 </i>
   </energy>
  </scstep>
  <scstep>
   <time name="diag">    0.62    0.63</time>
   <time name="diis">    2.54    2.55</time>
   <time name="orth">    0.03    0.03</time>
   <time name="total">    3.19    3.21</time>
   <energy>
    <i name="e_fr_energy">    -19.80185322 </i>
    <i name="e_wo_entrp">    -19.80185322 </i>
    <i name="e_0_energy">    -19.80185322 </i>
   </energy>
  </scstep>
  <scstep>
   <time name="diag">    0.62    0.63</time>
   <time name="diis">    2.23    2.23</time>
   <time name="orth">    0.03    0.03</time>
   <time name="total">    2.88    2.90</time>
   <energy>
    <i name="e_fr_energy">    -19.80201775 </i>
    <i name="e_wo_entrp">    -19.80201775 </i>
    <i name="e_0_energy">    -19.80201775 </i>
   </energy>
  </scstep>
  <scstep>
   <time name="diag">    0.62    0.64</time>
   <time name="diis">    2.52    2.53</time>
   <time name="orth">    0.03    0.03</time>
   <time name="total">    3.35    3.41</time>
   <energy>
    <i name="e_fr_energy">    -19.80204653 </i>
    <i name="e_wo_entrp">    -19.80204653 </i>
    <i name="e_0_energy">    -19.80204653 </i>
   </energy>
  </scstep>
  <scstep>
   <time name="diag">    0.61    0.61</time>
   <time name="diis">    2.21    2.21</time>
   <time name="orth">    0.03    0.03</time>
   <time name="total">    3.04    3.07</time>
   <energy>
    <i name="e_fr_energy">    -18.86006972 </i>
    <i name="e_wo_entrp">    -18.86006972 </i>
    <i name="e_0_energy">    -18.86006972 </i>
   </energy>
  </scstep>
  <scstep>
   <time name="diag">    0.61    0.61</time>
   <time name="diis">    2.20    2.21</time>
   <time name="orth">    0.03    0.03</time>
   <time name="total">    3.03    3.05</time>
   <energy>
    <i name="e_fr_energy">    -18.50640548 </i>
    <i name="e_wo_entrp">    -18.50640548 </i>
    <i name="e_0_energy">    -18.50640548 </i>
   </energy>
  </scstep>
  <scstep>
   <time name="diag">    0.61    0.61</time>
   <time name="diis">    2.28    2.28</time>
   <time name="orth">    0.03    0.03</time>
   <time name="total">    3.11    3.13</time>
   <energy>
    <i name="e_fr_energy">    -18.48429956 </i>
    <i name="e_wo_entrp">    -18.48429956 </i>
    <i name="e_0_energy">    -18.48429956 </i>
   </energy>
  </scstep>
  <scstep>
   <time name="diag">    0.61    0.61</time>
   <time name="diis">    2.32    2.33</time>
   <time name="orth">    0.03    0.03</time>
   <time name="total">    3.15    3.17</time>
   <energy>
    <i name="e_fr_energy">    -18.48261176 </i>
    <i name="e_wo_entrp">    -18.48261176 </i>
    <i name="e_0_energy">    -18.48261176 </i>
   </energy>
  </scstep>
  <scstep>
   <time name="diag">    0.61    0.61</time>
   <time name="diis">    2.25    2.26</time>
   <time name="orth">    0.03    0.03</time>
   <time name="total">    3.08    3.10</time>
   <energy>
    <i name="e_fr_energy">    -18.48116080 </i>
    <i name="e_wo_entrp">    -18.48116080 </i>
    <i name="e_0_energy">    -18.48116080 </i>
   </energy>
  </scstep>
  <scstep>
   <time name="diag">    0.61    0.61</time>
   <time name="diis">    2.25    2.25</time>
   <time name="orth">    0.03    0.03</time>
   <time name="total">    3.07    3.09</time>
   <energy>
    <i name="e_fr_energy">    -18.48107459 </i>
    <i name="e_wo_entrp">    -18.48107459 </i>
    <i name="e_0_energy">    -18.48107459 </i>
   </energy>
  </scstep>
  <scstep>
   <time name="diag">    0.61    0.61</time>
   <time name="diis">    2.23    2.24</time>
   <time name="orth">    0.03    0.03</time>
   <time name="total">    3.06    3.08</time>
   <energy>
    <i name="e_fr_energy">    -18.48155150 </i>
    <i name="e_wo_entrp">    -18.48155150 </i>
    <i name="e_0_energy">    -18.48155150 </i>
   </energy>
  </scstep>
  <scstep>
   <time name="diag">    0.61    0.61</time>
   <time name="diis">    2.23    2.24</time>
   <time name="orth">    0.03    0.03</time>
   <time name="total">    3.06    3.08</time>
   <energy>
    <i name="e_fr_energy">    -18.48183773 </i>
    <i name="e_wo_entrp">    -18.48183773 </i>
    <i name="e_0_energy">    -18.48183773 </i>
   </energy>
  </scstep>
  <scstep>
   <time name="diag">    0.61    0.61</time>
   <time name="diis">    2.25    2.25</time>
   <time name="orth">    0.03    0.03</time>
   <time name="total">    3.07    3.10</time>
   <energy>
    <i name="e_fr_energy">    -18.48242814 </i>
    <i name="e_wo_entrp">    -18.48242814 </i>
    <i name="e_0_energy">    -18.48242814 </i>
   </energy>
  </scstep>
  <scstep>
   <time name="diag">    0.62    0.62</time>
   <time name="diis">    2.19    2.20</time>
   <time name="orth">    0.03    0.03</time>
   <time name="total">    3.03    3.05</time>
   <energy>
    <i name="e_fr_energy">    -18.48252229 </i>
    <i name="e_wo_entrp">    -18.48252229 </i>
    <i name="e_0_energy">    -18.48252229 </i>
   </energy>
  </scstep>
  <scstep>
   <time name="diag">    0.61    0.61</time>
   <time name="diis">    2.24    2.25</time>
   <time name="orth">    0.03    0.03</time>
   <time name="total">    3.07    3.10</time>
   <energy>
    <i name="e_fr_energy">    -18.48254519 </i>
    <i name="e_wo_entrp">    -18.48254519 </i>
    <i name="e_0_energy">    -18.48254519 </i>
   </energy>
  </scstep>
  <scstep>
   <time name="diag">    0.61    0.61</time>
   <time name="diis">    2.18    2.19</time>
   <time name="orth">    0.03    0.03</time>
   <time name="total">    3.01    3.03</time>
   <energy>
    <i name="e_fr_energy">    -18.48255955 </i>
    <i name="e_wo_entrp">    -18.48255955 </i>
    <i name="e_0_energy">    -18.48255955 </i>
   </energy>
  </scstep>
  <scstep>
   <time name="diag">    0.61    0.61</time>
   <time name="diis">    2.17    2.18</time>
   <time name="orth">    0.03    0.03</time>
   <time name="total">    3.00    3.02</time>
   <energy>
    <i name="e_fr_energy">    -18.48256151 </i>
    <i name="e_wo_entrp">    -18.48256151 </i>
    <i name="e_0_energy">    -18.48256151 </i>
   </energy>
  </scstep>
  <scstep>
   <time name="diag">    0.61    0.61</time>
   <time name="diis">    2.16    2.17</time>
   <time name="orth">    0.03    0.03</time>
   <time name="total">    2.99    3.01</time>
   <energy>
    <i name="e_fr_energy">    -18.48256384 </i>
    <i name="e_wo_entrp">    -18.48256384 </i>
    <i name="e_0_energy">    -18.48256384 </i>
   </energy>
  </scstep>
  <scstep>
   <time name="diag">    0.61    0.61</time>
   <time name="diis">    2.17    2.17</time>
   <time name="orth">    0.03    0.03</time>
   <time name="total">    3.00    3.01</time>
   <energy>
    <i name="e_fr_energy">    -18.48256478 </i>
    <i name="e_wo_entrp">    -18.48256478 </i>
    <i name="e_0_energy">    -18.48256478 </i>
   </energy>
  </scstep>
  <scstep>
   <time name="diag">    0.61    0.61</time>
   <time name="diis">    2.16    2.16</time>
   <time name="orth">    0.03    0.03</time>
   <time name="total">    2.98    3.00</time>
   <energy>
    <i name="e_fr_energy">    -18.48256500 </i>
    <i name="e_wo_entrp">    -18.48256500 </i>
    <i name="e_0_energy">    -18.48256500 </i>
   </energy>
  </scstep>
  <scstep>
   <time name="diag">    0.61    0.61</time>
   <time name="diis">    2.15    2.16</time>
   <time name="orth">    0.03    0.03</time>
   <time name="total">    2.82    2.83</time>
   <energy>
    <i name="alphaZ">      1.39077550 </i>
    <i name="ewald">   2265.68936800 </i>
    <i name="hartreedc">  -2507.32637569 </i>
    <i name="XCdc">     15.73755723 </i>
    <i name="pawpsdc">   4294.75983798 </i>
    <i name="pawaedc">  -4284.43050881 </i>
    <i name="eentropy">     -0.00000000 </i>
    <i name="bandstr">    -98.60641243 </i>
    <i name="atom">    294.30319316 </i>
    <i name="e_fr_energy">    -18.48256505 </i>
    <i name="e_wo_entrp">    -18.48256505 </i>
    <i name="e_0_energy">    -18.48256505 </i>
   </energy>
  </scstep>
  <structure>
   <crystal>
    <varray name="basis" >
     <v>       1.22597887      -2.12346303       0.00000000 </v>
     <v>       1.22597887       2.12346303       0.00000000 </v>
     <v>       0.00000000       0.00000000      30.28239374 </v>
    </varray>
    <i name="volume">    157.66957062 </i>
    <varray name="rec_basis" >
     <v>       0.40783737      -0.23546442       0.00000000 </v>
     <v>       0.40783737       0.23546442       0.00000000 </v>
     <v>       0.00000000       0.00000000       0.03302249 </v>
    </varray>
   </crystal>
   <varray name="positions" >
    <v>       0.00000262       0.99999738       0.50000000 </v>
    <v>       0.66666738       0.33333262       0.50000000 </v>
   </varray>
  </structure>
  <varray name="forces" >
   <v>       0.00000000      -0.00000000       0.00000000 </v>
   <v>       0.00000000       0.00000000       0.00000000 </v>
  </varray>
  <varray name="stress" >
   <v>       7.59748820       0.00000000      -0.00000000 </v>
   <v>      -0.00000000       7.59752643       0.00000000 </v>
   <v>       0.00000000       0.00000000      -0.47656424 </v>
  </varray>
  <energy>
   <i name="e_fr_energy">    -18.59094458 </i>
   <i name="e_wo_entrp">    -18.59094458 </i>
   <i name="e_0_energy">     -0.00000000 </i>
  </energy>
  <time name="totalsc">   80.33   81.25</time>
  <eigenvalues>
   <array>
    <dimension dim="1">band</dimension>
    <dimension dim="2">kpoint</dimension>
    <dimension dim="3">spin</dimension>
    <field>eigene</field>
    <field>occ</field>
    <set>
     <set comment="spin 1">
      <set comment="kpoint 1">
       <r>  -22.6485    1.0000 </r>
       <r>  -10.6929    1.0000 </r>
       <r>   -6.6491    1.0000 </r>
       <r>   -6.4332    1.0000 </r>
       <r>    0.2695    0.0000 </r>
       <r>    1.0389    0.0000 </r>
       <r>    1.2581    0.0000 </r>
       <r>    1.5720    0.0000 </r>
       <r>    1.7782    0.0000 </r>
       <r>    2.4244    0.0000 </r>
       <r>    2.7249    0.0000 </r>
       <r>    3.6740    0.0000 </r>
       <r>    4.0253    0.0000 </r>
       <r>    5.2699    0.0000 </r>
       <r>    5.3889    0.0000 </r>
       <r>    5.6988    0.0000 </r>
       <r>    5.8202    0.0000 </r>
       <r>    7.2098    0.0000 </r>
       <r>    7.7085    0.0000 </r>
       <r>    8.0971    0.0000 </r>
       <r>    9.4900    0.0000 </r>
       <r>    9.9988    0.0000 </r>
       <r>   10.0754    0.0000 </r>
       <r>   12.2650    0.0000 </r>
      </set>
      <set comment="kpoint 2">
       <r>  -22.2357    1.0000 </r>
       <r>  -10.1995    1.0000 </r>
       <r>   -8.0408    1.0000 </r>
       <r>   -7.1908    1.0000 </r>
       <r>    0.8325    0.0000 </r>
       <r>    1.6102    0.0000 </r>
       <r>    1.8369    0.0000 </r>
       <r>    2.1482    0.0000 </r>
       <r>    2.3550    0.0000 </r>
       <r>    2.9989    0.0000 </r>
       <r>    3.2991    0.0000 </r>
       <r>    4.2460    0.0000 </r>
       <r>    4.5933    0.0000 </r>
       <r>    5.5037    0.0000 </r>
       <r>    5.8379    0.0000 </r>
       <r>    6.2733    0.0000 </r>
       <r>    6.7809    0.0000 </r>
       <r>    7.2797    0.0000 </r>
       <r>    7.7746    0.0000 </r>
       <r>    8.2821    0.0000 </r>
       <r>   10.0463    0.0000 </r>
       <r>   10.6444    0.0000 </r>
       <r>   10.8346    0.0000 </r>
       <r>   12.6487    0.0000 </r>
      </set>
      <set comment="kpoint 3">
       <r>  -21.4975    1.0000 </r>
       <r>  -10.0399    1.0000 </r>
       <r>   -9.3270    1.0000 </r>
       <r>   -8.1109    1.0000 </r>
       <r>    1.8447    0.0000 </r>
       <r>    2.6325    0.0000 </r>
       <r>    2.8787    0.0000 </r>
       <r>    3.1829    0.0000 </r>
       <r>    3.3930    0.0000 </r>
       <r>    4.0260    0.0000 </r>
       <r>    4.3303    0.0000 </r>
       <r>    4.7768    0.0000 </r>
       <r>    5.2874    0.0000 </r>
       <r>    5.3050    0.0000 </r>
       <r>    5.6617    0.0000 </r>
       <r>    6.8633    0.0000 </r>
       <r>    7.2962    0.0000 </r>
       <r>    8.7846    0.0000 </r>
       <r>    9.3031    0.0000 </r>
       <r>    9.5415    0.0000 </r>
       <r>   11.0340    0.0000 </r>
       <r>   11.6650    0.0000 </r>
       <r>   12.2583    0.0000 </r>
       <r>   13.8450    0.0000 </r>
      </set>
      <set comment="kpoint 4">
       <r>  -20.4440    1.0000 </r>
       <r>  -12.2397    1.0000 </r>
       <r>   -8.9154    1.0000 </r>
       <r>   -8.1146    1.0000 </r>
       <r>    2.4277    0.0000 </r>
       <r>    3.2995    0.0000 </r>
       <r>    4.1372    0.0000 </r>
       <r>    4.3830    0.0000 </r>
       <r>    4.6865    0.0000 </r>
       <r>    4.8747    0.0000 </r>
       <r>    5.0327    0.0000 </r>
       <r>    5.5282    0.0000 </r>
       <r>    5.8377    0.0000 </r>
       <r>    6.7608    0.0000 </r>
       <r>    7.1250    0.0000 </r>
       <r>    8.3290    0.0000 </r>
       <r>    8.7749    0.0000 </r>
       <r>   10.2206    0.0000 </r>
       <r>   10.7787    0.0000 </r>
       <r>   11.9755    0.0000 </r>
       <r>   12.3869    0.0000 </r>
       <r>   13.1338    0.0000 </r>
       <r>   13.5828    0.0000 </r>
       <r>   15.6357    0.0000 </r>
      </set>
      <set comment="kpoint 5">
       <r>  -19.0978    1.0000 </r>
       <r>  -14.3937    1.0000 </r>
       <r>   -9.4708    1.0000 </r>
       <r>   -6.6790    1.0000 </r>
       <r>    0.1826    0.0000 </r>
       <r>    4.7173    0.0000 </r>
       <r>    5.2369    0.0000 </r>
       <r>    6.0503    0.0000 </r>
       <r>    6.3515    0.0000 </r>
       <r>    6.6391    0.0000 </r>
       <r>    6.8554    0.0000 </r>
       <r>    7.4696    0.0000 </r>
       <r>    7.7824    0.0000 </r>
       <r>    8.6821    0.0000 </r>
       <r>    9.0620    0.0000 </r>
       <r>   10.2037    0.0000 </r>
       <r>   10.7008    0.0000 </r>
       <r>   11.4619    0.0000 </r>
       <r>   11.8660    0.0000 </r>
       <r>   12.5845    0.0000 </r>
       <r>   12.6968    0.0000 </r>
       <r>   13.2891    0.0000 </r>
       <r>   13.6513    0.0000 </r>
       <r>   13.7989    0.0000 </r>
      </set>
      <set comment="kpoint 6">
       <r>  -17.6045    1.0000 </r>
       <r>  -16.2494    1.0000 </r>
       <r>   -9.7175    1.0000 </r>
       <r>   -5.5302    1.0000 </r>
       <r>   -1.3446    0.0000 </r>
       <r>    4.6197    0.0000 </r>
       <r>    7.5179    0.0000 </r>
       <r>    8.3725    0.0000 </r>
       <r>    8.7795    0.0000 </r>
       <r>    8.8160    0.0000 </r>
       <r>    9.0397    0.0000 </r>
       <r>    9.2727    0.0000 </r>
       <r>    9.6399    0.0000 </r>
       <r>    9.8878    0.0000 </r>
       <r>   10.1693    0.0000 </r>
       <r>   10.1822    0.0000 </r>
       <r>   10.4143    0.0000 </r>
       <r>   10.6498    0.0000 </r>
       <r>   10.9867    0.0000 </r>
       <r>   11.2408    0.0000 </r>
       <r>   11.4395    0.0000 </r>
       <r>   11.5440    0.0000 </r>
       <r>   12.2054    0.0000 </r>
       <r>   12.6735    0.0000 </r>
      </set>
      <set comment="kpoint 7">
       <r>  -18.3373    1.0000 </r>
       <r>  -15.3947    1.0000 </r>
       <r>   -9.6347    1.0000 </r>
       <r>   -5.9957    1.0000 </r>
       <r>   -0.7511    0.0000 </r>
       <r>    4.6583    0.0000 </r>
       <r>    6.3205    0.0000 </r>
       <r>    7.1673    0.0000 </r>
       <r>    7.5086    0.0000 </r>
       <r>    7.7858    0.0000 </r>
       <r>    8.0066    0.0000 </r>
       <r>    8.6045    0.0000 </r>
       <r>    8.9260    0.0000 </r>
       <r>    9.7875    0.0000 </r>
       <r>   10.1399    0.0000 </r>
       <r>   10.2149    0.0000 </r>
       <r>   10.9268    0.0000 </r>
       <r>   11.4087    0.0000 </r>
       <r>   11.6725    0.0000 </r>
       <r>   11.8293    0.0000 </r>
       <r>   11.9062    0.0000 </r>
       <r>   12.1339    0.0000 </r>
       <r>   12.7142    0.0000 </r>
       <r>   13.1538    0.0000 </r>
      </set>
      <set comment="kpoint 8">
       <r>  -19.8050    1.0000 </r>
       <r>  -13.3336    1.0000 </r>
       <r>   -9.2292    1.0000 </r>
       <r>   -7.4101    1.0000 </r>
       <r>    1.2743    0.0000 </r>
       <r>    4.1806    0.0000 </r>
       <r>    4.8846    0.0000 </r>
       <r>    5.0371    0.0000 </r>
       <r>    5.3105    0.0000 </r>
       <r>    5.6054    0.0000 </r>
       <r>    5.8196    0.0000 </r>
       <r>    6.4429    0.0000 </r>
       <r>    6.7517    0.0000 </r>
       <r>    7.6680    0.0000 </r>
       <r>    8.0371    0.0000 </r>
       <r>    9.2211    0.0000 </r>
       <r>    9.6831    0.0000 </r>
       <r>   11.0731    0.0000 </r>
       <r>   11.6796    0.0000 </r>
       <r>   12.3613    0.0000 </r>
       <r>   13.0045    0.0000 </r>
       <r>   14.0162    0.0000 </r>
       <r>   14.0558    0.0000 </r>
       <r>   14.6677    0.0000 </r>
      </set>
      <set comment="kpoint 9">
       <r>  -21.0092    1.0000 </r>
       <r>  -11.1331    1.0000 </r>
       <r>   -8.7591    1.0000 </r>
       <r>   -8.5384    1.0000 </r>
       <r>    2.5176    0.0000 </r>
       <r>    3.2620    0.0000 </r>
       <r>    3.5731    0.0000 </r>
       <r>    3.6550    0.0000 </r>
       <r>    3.9024    0.0000 </r>
       <r>    4.0842    0.0000 </r>
       <r>    4.7296    0.0000 </r>
       <r>    4.9922    0.0000 </r>
       <r>    5.2061    0.0000 </r>
       <r>    5.9646    0.0000 </r>
       <r>    6.3282    0.0000 </r>
       <r>    7.5414    0.0000 </r>
       <r>    7.9789    0.0000 </r>
       <r>    9.4520    0.0000 </r>
       <r>    9.9861    0.0000 </r>
       <r>   10.8066    0.0000 </r>
       <r>   11.6758    0.0000 </r>
       <r>   12.3433    0.0000 </r>
       <r>   13.0028    0.0000 </r>
       <r>   14.1215    0.0000 </r>
      </set>
      <set comment="kpoint 10">
       <r>  -21.9068    1.0000 </r>
       <r>   -9.8091    1.0000 </r>
       <r>   -8.9939    1.0000 </r>
       <r>   -7.6524    1.0000 </r>
       <r>    1.2827    0.0000 </r>
       <r>    2.0660    0.0000 </r>
       <r>    2.2999    0.0000 </r>
       <r>    2.6087    0.0000 </r>
       <r>    2.8164    0.0000 </r>
       <r>    3.4576    0.0000 </r>
       <r>    3.7580    0.0000 </r>
       <r>    4.7015    0.0000 </r>
       <r>    5.0385    0.0000 </r>
       <r>    5.4671    0.0000 </r>
       <r>    5.8389    0.0000 </r>
       <r>    6.2995    0.0000 </r>
       <r>    6.7276    0.0000 </r>
       <r>    8.2245    0.0000 </r>
       <r>    8.3365    0.0000 </r>
       <r>    8.7392    0.0000 </r>
       <r>   10.4879    0.0000 </r>
       <r>   11.0985    0.0000 </r>
       <r>   11.5019    0.0000 </r>
       <r>   13.2645    0.0000 </r>
      </set>
      <set comment="kpoint 11">
       <r>  -22.4831    1.0000 </r>
       <r>  -10.4949    1.0000 </r>
       <r>   -7.2376    1.0000 </r>
       <r>   -6.7667    1.0000 </r>
       <r>    0.4947    0.0000 </r>
       <r>    1.2676    0.0000 </r>
       <r>    1.4897    0.0000 </r>
       <r>    1.8025    0.0000 </r>
       <r>    2.0089    0.0000 </r>
       <r>    2.6543    0.0000 </r>
       <r>    2.9546    0.0000 </r>
       <r>    3.9030    0.0000 </r>
       <r>    4.2529    0.0000 </r>
       <r>    5.4705    0.0000 </r>
       <r>    5.4975    0.0000 </r>
       <r>    5.9314    0.0000 </r>
       <r>    6.4248    0.0000 </r>
       <r>    7.4349    0.0000 </r>
       <r>    7.5488    0.0000 </r>
       <r>    7.9385    0.0000 </r>
       <r>    9.7131    0.0000 </r>
       <r>   10.3017    0.0000 </r>
       <r>   10.3251    0.0000 </r>
       <r>   12.3344    0.0000 </r>
      </set>
      <set comment="kpoint 12">
       <r>  -22.7313    1.0000 </r>
       <r>  -10.7922    1.0000 </r>
       <r>   -6.3311    1.0000 </r>
       <r>   -6.2521    1.0000 </r>
       <r>    0.1570    0.0000 </r>
       <r>    0.9246    0.0000 </r>
       <r>    1.1424    0.0000 </r>
       <r>    1.4568    0.0000 </r>
       <r>    1.6628    0.0000 </r>
       <r>    2.3094    0.0000 </r>
       <r>    2.6101    0.0000 </r>
       <r>    3.5595    0.0000 </r>
       <r>    3.9116    0.0000 </r>
       <r>    5.1560    0.0000 </r>
       <r>    5.3329    0.0000 </r>
       <r>    5.4945    0.0000 </r>
       <r>    5.5787    0.0000 </r>
       <r>    7.0968    0.0000 </r>
       <r>    7.5931    0.0000 </r>
       <r>    8.3850    0.0000 </r>
       <r>    9.3782    0.0000 </r>
       <r>    9.8489    0.0000 </r>
       <r>    9.9607    0.0000 </r>
       <r>   11.9942    0.0000 </r>
      </set>
      <set comment="kpoint 13">
       <r>  -21.6611    1.0000 </r>
       <r>   -9.5183    1.0000 </r>
       <r>   -9.3630    1.0000 </r>
       <r>   -8.3002    1.0000 </r>
       <r>    1.6208    0.0000 </r>
       <r>    2.4079    0.0000 </r>
       <r>    2.6472    0.0000 </r>
       <r>    2.9542    0.0000 </r>
       <r>    3.1627    0.0000 </r>
       <r>    3.8021    0.0000 </r>
       <r>    4.1034    0.0000 </r>
       <r>    5.0451    0.0000 </r>
       <r>    5.2426    0.0000 </r>
       <r>    5.3911    0.0000 </r>
       <r>    6.2215    0.0000 </r>
       <r>    6.6309    0.0000 </r>
       <r>    7.0783    0.0000 </r>
       <r>    7.9424    0.0000 </r>
       <r>    8.5553    0.0000 </r>
       <r>    9.0819    0.0000 </r>
       <r>   10.8079    0.0000 </r>
       <r>   11.4424    0.0000 </r>
       <r>   12.3794    0.0000 </r>
       <r>   13.3932    0.0000 </r>
      </set>
      <set comment="kpoint 14">
       <r>  -20.7669    1.0000 </r>
       <r>  -11.1595    1.0000 </r>
       <r>   -9.4058    1.0000 </r>
       <r>   -8.4752    1.0000 </r>
       <r>    2.8564    0.0000 </r>
       <r>    3.2390    0.0000 </r>
       <r>    3.6696    0.0000 </r>
       <r>    3.9205    0.0000 </r>
       <r>    4.2210    0.0000 </r>
       <r>    4.4315    0.0000 </r>
       <r>    5.0624    0.0000 </r>
       <r>    5.3650    0.0000 </r>
       <r>    6.2955    0.0000 </r>
       <r>    6.4097    0.0000 </r>
       <r>    6.7022    0.0000 </r>
       <r>    7.8644    0.0000 </r>
       <r>    8.3217    0.0000 </r>
       <r>    9.3934    0.0000 </r>
       <r>    9.7559    0.0000 </r>
       <r>   10.3333    0.0000 </r>
       <r>   11.9167    0.0000 </r>
       <r>   12.6853    0.0000 </r>
       <r>   14.0046    0.0000 </r>
       <r>   14.5077    0.0000 </r>
      </set>
      <set comment="kpoint 15">
       <r>  -19.5689    1.0000 </r>
       <r>  -13.2117    1.0000 </r>
       <r>  -10.1784    1.0000 </r>
       <r>   -7.1323    1.0000 </r>
       <r>    1.0901    0.0000 </r>
       <r>    4.5295    0.0000 </r>
       <r>    5.3485    0.0000 </r>
       <r>    5.6562    0.0000 </r>
       <r>    5.9422    0.0000 </r>
       <r>    6.1359    0.0000 </r>
       <r>    6.2467    0.0000 </r>
       <r>    6.7711    0.0000 </r>
       <r>    7.0981    0.0000 </r>
       <r>    7.9801    0.0000 </r>
       <r>    8.3790    0.0000 </r>
       <r>    9.4927    0.0000 </r>
       <r>   10.0195    0.0000 </r>
       <r>   11.1921    0.0000 </r>
       <r>   11.2102    0.0000 </r>
       <r>   12.0293    0.0000 </r>
       <r>   12.5906    0.0000 </r>
       <r>   14.1192    0.0000 </r>
       <r>   14.3345    0.0000 </r>
       <r>   14.4648    0.0000 </r>
      </set>
      <set comment="kpoint 16">
       <r>  -18.1128    1.0000 </r>
       <r>  -15.2085    1.0000 </r>
       <r>  -10.6093    1.0000 </r>
       <r>   -5.7095    1.0000 </r>
       <r>   -0.8491    0.0000 </r>
       <r>    6.0076    0.0000 </r>
       <r>    6.6521    0.0000 </r>
       <r>    7.4217    0.0000 </r>
       <r>    7.8557    0.0000 </r>
       <r>    8.1092    0.0000 </r>
       <r>    8.3510    0.0000 </r>
       <r>    8.8896    0.0000 </r>
       <r>    9.2659    0.0000 </r>
       <r>    9.9349    0.0000 </r>
       <r>   10.3364    0.0000 </r>
       <r>   10.5426    0.0000 </r>
       <r>   10.7867    0.0000 </r>
       <r>   11.7455    0.0000 </r>
       <r>   12.0157    0.0000 </r>
       <r>   12.1542    0.0000 </r>
       <r>   12.2076    0.0000 </r>
       <r>   12.4499    0.0000 </r>
       <r>   12.6862    0.0000 </r>
       <r>   13.2570    0.0000 </r>
      </set>
      <set comment="kpoint 17">
       <r>  -17.3892    1.0000 </r>
       <r>  -16.0450    1.0000 </r>
       <r>  -10.6958    1.0000 </r>
       <r>   -5.2299    1.0000 </r>
       <r>   -1.4376    0.0000 </r>
       <r>    5.9766    0.0000 </r>
       <r>    7.8276    0.0000 </r>
       <r>    8.4940    0.0000 </r>
       <r>    9.0924    0.0000 </r>
       <r>    9.1305    0.0000 </r>
       <r>    9.3181    0.0000 </r>
       <r>    9.6153    0.0000 </r>
       <r>    9.7234    0.0000 </r>
       <r>   10.2304    0.0000 </r>
       <r>   10.5129    0.0000 </r>
       <r>   10.5200    0.0000 </r>
       <r>   10.7096    0.0000 </r>
       <r>   10.9871    0.0000 </r>
       <r>   11.1443    0.0000 </r>
       <r>   11.5705    0.0000 </r>
       <r>   11.7610    0.0000 </r>
       <r>   11.8666    0.0000 </r>
       <r>   12.2046    0.0000 </r>
       <r>   13.0370    0.0000 </r>
      </set>
      <set comment="kpoint 18">
       <r>  -18.8666    1.0000 </r>
       <r>  -14.2334    1.0000 </r>
       <r>  -10.4366    1.0000 </r>
       <r>   -6.4005    1.0000 </r>
       <r>    0.0542    0.0000 </r>
       <r>    5.5157    0.0000 </r>
       <r>    6.1235    0.0000 </r>
       <r>    6.3449    0.0000 </r>
       <r>    6.6989    0.0000 </r>
       <r>    6.9718    0.0000 </r>
       <r>    7.2013    0.0000 </r>
       <r>    7.7863    0.0000 </r>
       <r>    8.1253    0.0000 </r>
       <r>    8.9619    0.0000 </r>
       <r>    9.4008    0.0000 </r>
       <r>   10.3556    0.0000 </r>
       <r>   11.0225    0.0000 </r>
       <r>   11.3028    0.0000 </r>
       <r>   11.5691    0.0000 </r>
       <r>   12.7951    0.0000 </r>
       <r>   13.0191    0.0000 </r>
       <r>   13.5823    0.0000 </r>
       <r>   13.7245    0.0000 </r>
       <r>   13.8180    0.0000 </r>
      </set>
      <set comment="kpoint 19">
       <r>  -20.2043    1.0000 </r>
       <r>  -12.1756    1.0000 </r>
       <r>   -9.8351    1.0000 </r>
       <r>   -7.8342    1.0000 </r>
       <r>    2.1713    0.0000 </r>
       <r>    3.6394    0.0000 </r>
       <r>    4.4519    0.0000 </r>
       <r>    4.7306    0.0000 </r>
       <r>    5.0247    0.0000 </r>
       <r>    5.2379    0.0000 </r>
       <r>    5.8615    0.0000 </r>
       <r>    6.1461    0.0000 </r>
       <r>    6.3710    0.0000 </r>
       <r>    7.0858    0.0000 </r>
       <r>    7.4707    0.0000 </r>
       <r>    8.6367    0.0000 </r>
       <r>    9.1145    0.0000 </r>
       <r>   10.3752    0.0000 </r>
       <r>   10.4806    0.0000 </r>
       <r>   11.1281    0.0000 </r>
       <r>   12.4298    0.0000 </r>
       <r>   13.4710    0.0000 </r>
       <r>   13.8886    0.0000 </r>
       <r>   15.1561    0.0000 </r>
      </set>
      <set comment="kpoint 20">
       <r>  -21.2532    1.0000 </r>
       <r>  -10.2064    1.0000 </r>
       <r>   -9.0395    1.0000 </r>
       <r>   -8.8902    1.0000 </r>
       <r>    2.1831    0.0000 </r>
       <r>    2.9750    0.0000 </r>
       <r>    3.2260    0.0000 </r>
       <r>    3.5289    0.0000 </r>
       <r>    3.7395    0.0000 </r>
       <r>    4.2837    0.0000 </r>
       <r>    4.3806    0.0000 </r>
       <r>    4.6775    0.0000 </r>
       <r>    5.6144    0.0000 </r>
       <r>    5.9540    0.0000 </r>
       <r>    6.4576    0.0000 </r>
       <r>    7.1937    0.0000 </r>
       <r>    7.6439    0.0000 </r>
       <r>    8.5252    0.0000 </r>
       <r>    9.1066    0.0000 </r>
       <r>    9.6511    0.0000 </r>
       <r>   11.3326    0.0000 </r>
       <r>   12.0084    0.0000 </r>
       <r>   13.3913    0.0000 </r>
       <r>   13.7788    0.0000 </r>
      </set>
      <set comment="kpoint 21">
       <r>  -21.9889    1.0000 </r>
       <r>   -9.9061    1.0000 </r>
       <r>   -8.6457    1.0000 </r>
       <r>   -7.6975    1.0000 </r>
       <r>    1.1705    0.0000 </r>
       <r>    1.9524    0.0000 </r>
       <r>    2.1842    0.0000 </r>
       <r>    2.4937    0.0000 </r>
       <r>    2.7011    0.0000 </r>
       <r>    3.3433    0.0000 </r>
       <r>    3.6438    0.0000 </r>
       <r>    4.5887    0.0000 </r>
       <r>    4.9353    0.0000 </r>
       <r>    5.8287    0.0000 </r>
       <r>    6.0821    0.0000 </r>
       <r>    6.1829    0.0000 </r>
       <r>    6.6192    0.0000 </r>
       <r>    7.6106    0.0000 </r>
       <r>    8.1102    0.0000 </r>
       <r>    8.6255    0.0000 </r>
       <r>   10.3756    0.0000 </r>
       <r>   10.9879    0.0000 </r>
       <r>   11.4865    0.0000 </r>
       <r>   12.9605    0.0000 </r>
      </set>
      <set comment="kpoint 22">
       <r>  -22.4006    1.0000 </r>
       <r>  -10.3962    1.0000 </r>
       <r>   -7.5509    1.0000 </r>
       <r>   -6.8755    1.0000 </r>
       <r>    0.6073    0.0000 </r>
       <r>    1.3818    0.0000 </r>
       <r>    1.6054    0.0000 </r>
       <r>    1.9178    0.0000 </r>
       <r>    2.1242    0.0000 </r>
       <r>    2.7692    0.0000 </r>
       <r>    3.0694    0.0000 </r>
       <r>    4.0173    0.0000 </r>
       <r>    4.3661    0.0000 </r>
       <r>    5.3911    0.0000 </r>
       <r>    5.6111    0.0000 </r>
       <r>    6.0437    0.0000 </r>
       <r>    6.8373    0.0000 </r>
       <r>    7.2807    0.0000 </r>
       <r>    7.5508    0.0000 </r>
       <r>    8.0529    0.0000 </r>
       <r>    9.8247    0.0000 </r>
       <r>   10.4121    0.0000 </r>
       <r>   10.4723    0.0000 </r>
       <r>   12.4305    0.0000 </r>
      </set>
      <set comment="kpoint 23">
       <r>  -19.7277    1.0000 </r>
       <r>  -12.3762    1.0000 </r>
       <r>  -10.9137    1.0000 </r>
       <r>   -7.2896    1.0000 </r>
       <r>    1.5020    0.0000 </r>
       <r>    4.3100    0.0000 </r>
       <r>    5.1022    0.0000 </r>
       <r>    5.4252    0.0000 </r>
       <r>    5.7068    0.0000 </r>
       <r>    5.9306    0.0000 </r>
       <r>    6.5327    0.0000 </r>
       <r>    6.8571    0.0000 </r>
       <r>    7.7363    0.0000 </r>
       <r>    8.0008    0.0000 </r>
       <r>    8.2333    0.0000 </r>
       <r>    9.2343    0.0000 </r>
       <r>    9.2422    0.0000 </r>
       <r>    9.8043    0.0000 </r>
       <r>   10.8852    0.0000 </r>
       <r>   11.7990    0.0000 </r>
       <r>   12.2894    0.0000 </r>
       <r>   13.9913    0.0000 </r>
       <r>   14.1370    0.0000 </r>
       <r>   15.9327    0.0000 </r>
      </set>
      <set comment="kpoint 24">
       <r>  -18.4082    1.0000 </r>
       <r>  -14.0008    1.0000 </r>
       <r>  -11.8451    1.0000 </r>
       <r>   -5.8654    1.0000 </r>
       <r>   -0.3305    0.0000 </r>
       <r>    6.1862    0.0000 </r>
       <r>    6.8805    0.0000 </r>
       <r>    7.3923    0.0000 </r>
       <r>    7.6291    0.0000 </r>
       <r>    7.8839    0.0000 </r>
       <r>    8.2679    0.0000 </r>
       <r>    8.3784    0.0000 </r>
       <r>    8.8151    0.0000 </r>
       <r>    9.3610    0.0000 </r>
       <r>   10.0695    0.0000 </r>
       <r>   10.3682    0.0000 </r>
       <r>   10.5505    0.0000 </r>
       <r>   11.6753    0.0000 </r>
       <r>   11.7159    0.0000 </r>
       <r>   13.4122    0.0000 </r>
       <r>   13.6480    0.0000 </r>
       <r>   13.8496    0.0000 </r>
       <r>   14.2934    0.0000 </r>
       <r>   14.3774    0.0000 </r>
      </set>
      <set comment="kpoint 25">
       <r>  -16.9620    1.0000 </r>
       <r>  -15.6740    1.0000 </r>
       <r>  -12.1808    1.0000 </r>
       <r>   -4.6367    1.0000 </r>
       <r>   -1.7514    0.0000 </r>
       <r>    8.1100    0.0000 </r>
       <r>    8.1377    0.0000 </r>
       <r>    8.4476    0.0000 </r>
       <r>    9.6072    0.0000 </r>
       <r>    9.8070    0.0000 </r>
       <r>    9.8222    0.0000 </r>
       <r>   10.2068    0.0000 </r>
       <r>   10.2983    0.0000 </r>
       <r>   10.9182    0.0000 </r>
       <r>   11.1777    0.0000 </r>
       <r>   11.2084    0.0000 </r>
       <r>   11.2949    0.0000 </r>
       <r>   11.6464    0.0000 </r>
       <r>   11.6490    0.0000 </r>
       <r>   12.2475    0.0000 </r>
       <r>   12.3635    0.0000 </r>
       <r>   12.4893    0.0000 </r>
       <r>   12.6248    0.0000 </r>
       <r>   13.6007    0.0000 </r>
      </set>
      <set comment="kpoint 26">
       <r>  -17.6687    1.0000 </r>
       <r>  -14.8860    1.0000 </r>
       <r>  -12.0726    1.0000 </r>
       <r>   -5.1568    1.0000 </r>
       <r>   -1.1658    0.0000 </r>
       <r>    7.2636    0.0000 </r>
       <r>    7.7051    0.0000 </r>
       <r>    8.1921    0.0000 </r>
       <r>    8.5500    0.0000 </r>
       <r>    8.7197    0.0000 </r>
       <r>    9.0394    0.0000 </r>
       <r>    9.2823    0.0000 </r>
       <r>    9.9406    0.0000 </r>
       <r>   10.0230    0.0000 </r>
       <r>   10.5101    0.0000 </r>
       <r>   11.1191    0.0000 </r>
       <r>   11.2071    0.0000 </r>
       <r>   12.4264    0.0000 </r>
       <r>   12.6764    0.0000 </r>
       <r>   12.7824    0.0000 </r>
       <r>   12.8199    0.0000 </r>
       <r>   12.9788    0.0000 </r>
       <r>   13.1660    0.0000 </r>
       <r>   13.5682    0.0000 </r>
      </set>
      <set comment="kpoint 27">
       <r>  -19.1000    1.0000 </r>
       <r>  -13.1391    1.0000 </r>
       <r>  -11.4713    1.0000 </r>
       <r>   -6.5962    1.0000 </r>
       <r>    0.5813    0.0000 </r>
       <r>    5.1975    0.0000 </r>
       <r>    5.9662    0.0000 </r>
       <r>    6.3510    0.0000 </r>
       <r>    6.6166    0.0000 </r>
       <r>    6.8518    0.0000 </r>
       <r>    7.4218    0.0000 </r>
       <r>    7.7680    0.0000 </r>
       <r>    8.3291    0.0000 </r>
       <r>    8.5751    0.0000 </r>
       <r>    9.0687    0.0000 </r>
       <r>    9.8362    0.0000 </r>
       <r>    9.9062    0.0000 </r>
       <r>   10.7089    0.0000 </r>
       <r>   11.1461    0.0000 </r>
       <r>   12.6375    0.0000 </r>
       <r>   12.6929    0.0000 </r>
       <r>   14.6933    0.0000 </r>
       <r>   14.9853    0.0000 </r>
       <r>   15.1180    0.0000 </r>
      </set>
      <set comment="kpoint 28">
       <r>  -20.2847    1.0000 </r>
       <r>  -11.7340    1.0000 </r>
       <r>  -10.1903    1.0000 </r>
       <r>   -7.9205    1.0000 </r>
       <r>    2.3987    0.0000 </r>
       <r>    3.5287    0.0000 </r>
       <r>    4.3287    0.0000 </r>
       <r>    4.6150    0.0000 </r>
       <r>    4.9070    0.0000 </r>
       <r>    5.1236    0.0000 </r>
       <r>    5.7431    0.0000 </r>
       <r>    6.0545    0.0000 </r>
       <r>    6.9665    0.0000 </r>
       <r>    7.2180    0.0000 </r>
       <r>    7.4318    0.0000 </r>
       <r>    8.5152    0.0000 </r>
       <r>    8.9998    0.0000 </r>
       <r>    9.2303    0.0000 </r>
       <r>   10.3520    0.0000 </r>
       <r>   11.0109    0.0000 </r>
       <r>   12.2722    0.0000 </r>
       <r>   13.3585    0.0000 </r>
       <r>   13.7459    0.0000 </r>
       <r>   15.5979    0.0000 </r>
      </set>
      <set comment="kpoint 29">
       <r>  -21.1718    1.0000 </r>
       <r>  -10.5998    1.0000 </r>
       <r>   -8.9458    1.0000 </r>
       <r>   -8.6808    1.0000 </r>
       <r>    2.2946    0.0000 </r>
       <r>    3.0815    0.0000 </r>
       <r>    3.3417    0.0000 </r>
       <r>    3.6381    0.0000 </r>
       <r>    3.8545    0.0000 </r>
       <r>    4.0602    0.0000 </r>
       <r>    4.5001    0.0000 </r>
       <r>    4.7898    0.0000 </r>
       <r>    5.7324    0.0000 </r>
       <r>    5.7327    0.0000 </r>
       <r>    6.1178    0.0000 </r>
       <r>    7.3107    0.0000 </r>
       <r>    7.7522    0.0000 </r>
       <r>    9.2230    0.0000 </r>
       <r>    9.5425    0.0000 </r>
       <r>    9.7732    0.0000 </r>
       <r>   11.4494    0.0000 </r>
       <r>   12.1207    0.0000 </r>
       <r>   13.2478    0.0000 </r>
       <r>   13.9092    0.0000 </r>
      </set>
      <set comment="kpoint 30">
       <r>  -21.7428    1.0000 </r>
       <r>   -9.6156    1.0000 </r>
       <r>   -9.4912    1.0000 </r>
       <r>   -7.7637    1.0000 </r>
       <r>    1.5073    0.0000 </r>
       <r>    2.2930    0.0000 </r>
       <r>    2.5314    0.0000 </r>
       <r>    2.8385    0.0000 </r>
       <r>    3.0470    0.0000 </r>
       <r>    3.6860    0.0000 </r>
       <r>    3.9867    0.0000 </r>
       <r>    4.9217    0.0000 </r>
       <r>    5.1602    0.0000 </r>
       <r>    5.3597    0.0000 </r>
       <r>    5.4003    0.0000 </r>
       <r>    6.5257    0.0000 </r>
       <r>    6.9543    0.0000 </r>
       <r>    8.4504    0.0000 </r>
       <r>    8.9652    0.0000 </r>
       <r>    9.1204    0.0000 </r>
       <r>   10.7094    0.0000 </r>
       <r>   11.3212    0.0000 </r>
       <r>   11.6748    0.0000 </r>
       <r>   13.2803    0.0000 </r>
      </set>
      <set comment="kpoint 31">
       <r>  -17.0254    1.0000 </r>
       <r>  -14.8272    1.0000 </r>
       <r>  -13.2296    1.0000 </r>
       <r>   -4.4293    1.0000 </r>
       <r>   -1.7973    0.0000 </r>
       <r>    7.6671    0.0000 </r>
       <r>    8.1988    0.0000 </r>
       <r>    9.5888    0.0000 </r>
       <r>    9.6055    0.0000 </r>
       <r>   10.0332    0.0000 </r>
       <r>   10.0375    0.0000 </r>
       <r>   10.0589    0.0000 </r>
       <r>   10.2630    0.0000 </r>
       <r>   10.8570    0.0000 </r>
       <r>   10.9733    0.0000 </r>
       <r>   12.0585    0.0000 </r>
       <r>   12.1849    0.0000 </r>
       <r>   13.2885    0.0000 </r>
       <r>   13.3593    0.0000 </r>
       <r>   13.3862    0.0000 </r>
       <r>   13.4902    0.0000 </r>
       <r>   13.7793    0.0000 </r>
       <r>   13.8104    0.0000 </r>
       <r>   13.8714    0.0000 </r>
      </set>
      <set comment="kpoint 32">
       <r>  -16.3401    1.0000 </r>
       <r>  -15.3866    1.0000 </r>
       <r>  -13.5294    1.0000 </r>
       <r>   -3.7911    1.0000 </r>
       <r>   -2.4362    0.0000 </r>
       <r>    7.6115    0.0000 </r>
       <r>    9.2297    0.0000 </r>
       <r>    9.9334    0.0000 </r>
       <r>   10.2980    0.0000 </r>
       <r>   10.7367    0.0000 </r>
       <r>   10.8611    0.0000 </r>
       <r>   11.2024    0.0000 </r>
       <r>   11.3115    0.0000 </r>
       <r>   11.9493    0.0000 </r>
       <r>   12.1169    0.0000 </r>
       <r>   12.2064    0.0000 </r>
       <r>   12.2355    0.0000 </r>
       <r>   12.5321    0.0000 </r>
       <r>   12.5909    0.0000 </r>
       <r>   13.0470    0.0000 </r>
       <r>   13.1730    0.0000 </r>
       <r>   13.2267    0.0000 </r>
       <r>   13.3419    0.0000 </r>
       <r>   13.4689    0.0000 </r>
      </set>
      <set comment="kpoint 33">
       <r>  -17.7367    1.0000 </r>
       <r>  -14.3744    1.0000 </r>
       <r>  -12.6314    1.0000 </r>
       <r>   -5.1556    1.0000 </r>
       <r>   -1.0640    0.0000 </r>
       <r>    7.1580    0.0000 </r>
       <r>    7.5057    0.0000 </r>
       <r>    8.4333    0.0000 </r>
       <r>    8.5922    0.0000 </r>
       <r>    8.9165    0.0000 </r>
       <r>    9.1382    0.0000 </r>
       <r>    9.3483    0.0000 </r>
       <r>    9.8323    0.0000 </r>
       <r>    9.8996    0.0000 </r>
       <r>   10.3033    0.0000 </r>
       <r>   11.0333    0.0000 </r>
       <r>   11.1020    0.0000 </r>
       <r>   12.5306    0.0000 </r>
       <r>   12.6966    0.0000 </r>
       <r>   13.5442    0.0000 </r>
       <r>   13.7984    0.0000 </r>
       <r>   14.0315    0.0000 </r>
       <r>   14.3010    0.0000 </r>
       <r>   14.5265    0.0000 </r>
      </set>
      <set comment="kpoint 34">
       <r>  -19.0218    1.0000 </r>
       <r>  -13.6253    1.0000 </r>
       <r>  -10.9982    1.0000 </r>
       <r>   -6.5297    1.0000 </r>
       <r>    0.3883    0.0000 </r>
       <r>    5.3069    0.0000 </r>
       <r>    6.0957    0.0000 </r>
       <r>    6.4665    0.0000 </r>
       <r>    6.7357    0.0000 </r>
       <r>    6.9595    0.0000 </r>
       <r>    7.1892    0.0000 </r>
       <r>    7.5449    0.0000 </r>
       <r>    7.9001    0.0000 </r>
       <r>    8.7078    0.0000 </r>
       <r>    9.1736    0.0000 </r>
       <r>   10.0660    0.0000 </r>
       <r>   10.7473    0.0000 </r>
       <r>   10.9179    0.0000 </r>
       <r>   11.3086    0.0000 </r>
       <r>   12.7273    0.0000 </r>
       <r>   12.8044    0.0000 </r>
       <r>   14.1382    0.0000 </r>
       <r>   14.5306    0.0000 </r>
       <r>   14.9565    0.0000 </r>
      </set>
      <set comment="kpoint 35">
       <r>  -20.0441    1.0000 </r>
       <r>  -12.7489    1.0000 </r>
       <r>   -9.4604    1.0000 </r>
       <r>   -7.6632    1.0000 </r>
       <r>    1.7732    0.0000 </r>
       <r>    3.8592    0.0000 </r>
       <r>    4.6898    0.0000 </r>
       <r>    4.9616    0.0000 </r>
       <r>    5.2580    0.0000 </r>
       <r>    5.4215    0.0000 </r>
       <r>    5.5214    0.0000 </r>
       <r>    6.0955    0.0000 </r>
       <r>    6.4102    0.0000 </r>
       <r>    7.3209    0.0000 </r>
       <r>    7.6954    0.0000 </r>
       <r>    8.8742    0.0000 </r>
       <r>    9.3421    0.0000 </r>
       <r>   10.7262    0.0000 </r>
       <r>   11.3278    0.0000 </r>
       <r>   11.6253    0.0000 </r>
       <r>   12.7028    0.0000 </r>
       <r>   13.6950    0.0000 </r>
       <r>   14.0689    0.0000 </r>
       <r>   14.3528    0.0000 </r>
      </set>
      <set comment="kpoint 36">
       <r>  -20.7663    1.0000 </r>
       <r>  -11.6939    1.0000 </r>
       <r>   -8.6020    1.0000 </r>
       <r>   -8.4811    1.0000 </r>
       <r>    2.8524    0.0000 </r>
       <r>    3.0212    0.0000 </r>
       <r>    3.7095    0.0000 </r>
       <r>    3.9202    0.0000 </r>
       <r>    4.2302    0.0000 </r>
       <r>    4.4269    0.0000 </r>
       <r>    4.9050    0.0000 </r>
       <r>    5.0724    0.0000 </r>
       <r>    5.3840    0.0000 </r>
       <r>    6.3077    0.0000 </r>
       <r>    6.6686    0.0000 </r>
       <r>    7.8821    0.0000 </r>
       <r>    8.3201    0.0000 </r>
       <r>    9.7875    0.0000 </r>
       <r>   10.3272    0.0000 </r>
       <r>   11.9100    0.0000 </r>
       <r>   11.9987    0.0000 </r>
       <r>   12.6603    0.0000 </r>
       <r>   12.8705    0.0000 </r>
       <r>   14.3841    0.0000 </r>
      </set>
      <set comment="kpoint 37">
       <r>  -16.5043    1.0000 </r>
       <r>  -15.6495    1.0000 </r>
       <r>  -12.9522    1.0000 </r>
       <r>   -4.1430    1.0000 </r>
       <r>   -2.1456    0.0000 </r>
       <r>    7.8331    0.0000 </r>
       <r>    9.1677    0.0000 </r>
       <r>    9.2504    0.0000 </r>
       <r>    9.5867    0.0000 </r>
       <r>   10.6226    0.0000 </r>
       <r>   10.9637    0.0000 </r>
       <r>   10.9823    0.0000 </r>
       <r>   11.0412    0.0000 </r>
       <r>   11.2534    0.0000 </r>
       <r>   11.3929    0.0000 </r>
       <r>   11.4483    0.0000 </r>
       <r>   11.5066    0.0000 </r>
       <r>   12.0854    0.0000 </r>
       <r>   12.1708    0.0000 </r>
       <r>   12.3047    0.0000 </r>
       <r>   12.3692    0.0000 </r>
       <r>   13.1719    0.0000 </r>
       <r>   13.3273    0.0000 </r>
       <r>   13.4980    0.0000 </r>
      </set>
      <set comment="kpoint 38">
       <r>  -17.5414    1.0000 </r>
       <r>  -15.4963    1.0000 </r>
       <r>  -11.3746    1.0000 </r>
       <r>   -5.1736    1.0000 </r>
       <r>   -1.3164    0.0000 </r>
       <r>    7.0041    0.0000 </r>
       <r>    7.5123    0.0000 </r>
       <r>    8.0540    0.0000 </r>
       <r>    8.7809    0.0000 </r>
       <r>    8.9682    0.0000 </r>
       <r>    9.2677    0.0000 </r>
       <r>    9.5447    0.0000 </r>
       <r>    9.9159    0.0000 </r>
       <r>   10.1804    0.0000 </r>
       <r>   10.2068    0.0000 </r>
       <r>   11.1557    0.0000 </r>
       <r>   11.4241    0.0000 </r>
       <r>   11.5541    0.0000 </r>
       <r>   11.6715    0.0000 </r>
       <r>   11.9922    0.0000 </r>
       <r>   12.0465    0.0000 </r>
       <r>   12.6878    0.0000 </r>
       <r>   12.8034    0.0000 </r>
       <r>   13.1131    0.0000 </r>
      </set>
      <set comment="kpoint 39">
       <r>  -18.6367    1.0000 </r>
       <r>  -14.8369    1.0000 </r>
       <r>   -9.9521    1.0000 </r>
       <r>   -6.2177    1.0000 </r>
       <r>   -0.3481    0.0000 </r>
       <r>    5.2191    0.0000 </r>
       <r>    5.8892    0.0000 </r>
       <r>    6.7040    0.0000 </r>
       <r>    7.0457    0.0000 </r>
       <r>    7.3223    0.0000 </r>
       <r>    7.5460    0.0000 </r>
       <r>    8.1407    0.0000 </r>
       <r>    8.4683    0.0000 </r>
       <r>    9.3251    0.0000 </r>
       <r>    9.7420    0.0000 </r>
       <r>   10.7293    0.0000 </r>
       <r>   10.8628    0.0000 </r>
       <r>   11.3801    0.0000 </r>
       <r>   11.6440    0.0000 </r>
       <r>   12.5947    0.0000 </r>
       <r>   12.6243    0.0000 </r>
       <r>   12.8931    0.0000 </r>
       <r>   13.0177    0.0000 </r>
       <r>   13.3674    0.0000 </r>
      </set>
      <set comment="kpoint 40">
       <r>  -19.4887    1.0000 </r>
       <r>  -13.8884    1.0000 </r>
       <r>   -9.2228    1.0000 </r>
       <r>   -7.0798    1.0000 </r>
       <r>    0.7314    0.0000 </r>
       <r>    4.5043    0.0000 </r>
       <r>    4.7605    0.0000 </r>
       <r>    5.4916    0.0000 </r>
       <r>    5.7729    0.0000 </r>
       <r>    6.0661    0.0000 </r>
       <r>    6.2796    0.0000 </r>
       <r>    6.9016    0.0000 </r>
       <r>    7.2098    0.0000 </r>
       <r>    8.1235    0.0000 </r>
       <r>    8.4929    0.0000 </r>
       <r>    9.6698    0.0000 </r>
       <r>   10.1366    0.0000 </r>
       <r>   11.4970    0.0000 </r>
       <r>   12.0515    0.0000 </r>
       <r>   12.1528    0.0000 </r>
       <r>   13.0052    0.0000 </r>
       <r>   13.8694    0.0000 </r>
       <r>   14.1064    0.0000 </r>
       <r>   14.5025    0.0000 </r>
      </set>
      <set comment="kpoint 41">
       <r>  -17.3501    1.0000 </r>
       <r>  -16.3602    1.0000 </r>
       <r>  -10.1195    1.0000 </r>
       <r>   -5.3480    1.0000 </r>
       <r>   -1.4588    0.0000 </r>
       <r>    5.1511    0.0000 </r>
       <r>    8.1888    0.0000 </r>
       <r>    8.3505    0.0000 </r>
       <r>    8.8909    0.0000 </r>
       <r>    9.2507    0.0000 </r>
       <r>    9.5808    0.0000 </r>
       <r>    9.5996    0.0000 </r>
       <r>    9.8106    0.0000 </r>
       <r>    9.8678    0.0000 </r>
       <r>   10.0607    0.0000 </r>
       <r>   10.0898    0.0000 </r>
       <r>   10.5239    0.0000 </r>
       <r>   10.7031    0.0000 </r>
       <r>   10.9534    0.0000 </r>
       <r>   10.9942    0.0000 </r>
       <r>   11.5448    0.0000 </r>
       <r>   11.9335    0.0000 </r>
       <r>   12.1944    0.0000 </r>
       <r>   12.2445    0.0000 </r>
      </set>
      <set comment="kpoint 42">
       <r>  -17.9807    1.0000 </r>
       <r>  -15.8800    1.0000 </r>
       <r>   -9.5483    1.0000 </r>
       <r>   -5.7568    1.0000 </r>
       <r>   -1.0981    0.0000 </r>
       <r>    4.4473    0.0000 </r>
       <r>    6.8677    0.0000 </r>
       <r>    7.7291    0.0000 </r>
       <r>    8.0871    0.0000 </r>
       <r>    8.3602    0.0000 </r>
       <r>    8.5817    0.0000 </r>
       <r>    9.1722    0.0000 </r>
       <r>    9.4373    0.0000 </r>
       <r>    9.5093    0.0000 </r>
       <r>   10.2267    0.0000 </r>
       <r>   10.4722    0.0000 </r>
       <r>   10.7650    0.0000 </r>
       <r>   10.8637    0.0000 </r>
       <r>   11.1045    0.0000 </r>
       <r>   11.3374    0.0000 </r>
       <r>   11.7561    0.0000 </r>
       <r>   11.9996    0.0000 </r>
       <r>   12.2197    0.0000 </r>
       <r>   12.3921    0.0000 </r>
      </set>
     </set>
    </set>
   </array>
  </eigenvalues>
  <separator name="orbital magnetization" >
   <v name="MAGDIPOLOUT">      0.00000000      0.00000000      0.00000000</v>
  </separator>
  <dos>
   <i name="efermi">     -3.52333801 </i>
   <total>
    <array>
     <dimension dim="1">gridpoints</dimension>
     <dimension dim="2">spin</dimension>
     <field>energy</field>
     <field>total</field>
     <field>integrated</field>
     <set>
      <set comment="spin 1">
       <r>   -24.6645     0.0000     0.0000 </r>
       <r>   -24.5227     0.0000     0.0000 </r>
       <r>   -24.3809     0.0000     0.0000 </r>
       <r>   -24.2392     0.0000     0.0000 </r>
       <r>   -24.0974     0.0000     0.0000 </r>
       <r>   -23.9556     0.0000     0.0000 </r>
       <r>   -23.8139     0.0000     0.0000 </r>
       <r>   -23.6721     0.0000     0.0000 </r>
       <r>   -23.5303     0.0000     0.0000 </r>
       <r>   -23.3885     0.0000     0.0000 </r>
       <r>   -23.2468     0.0000     0.0000 </r>
       <r>   -23.1050     0.0000     0.0000 </r>
       <r>   -22.9632     0.0000     0.0000 </r>
       <r>   -22.8215     0.0011     0.0001 </r>
       <r>   -22.6797     0.2176     0.0310 </r>
       <r>   -22.5379     0.1967     0.0589 </r>
       <r>   -22.3962     0.4733     0.1260 </r>
       <r>   -22.2544     0.2078     0.1554 </r>
       <r>   -22.1126     0.2751     0.1944 </r>
       <r>   -21.9709     0.2861     0.2350 </r>
       <r>   -21.8291     0.4936     0.3050 </r>
       <r>   -21.6873     0.2334     0.3381 </r>
       <r>   -21.5456     0.1965     0.3659 </r>
       <r>   -21.4038     0.3563     0.4164 </r>
       <r>   -21.2620     0.1610     0.4393 </r>
       <r>   -21.1203     0.5962     0.5238 </r>
       <r>   -20.9785     0.3446     0.5726 </r>
       <r>   -20.8367     0.0894     0.5853 </r>
       <r>   -20.6950     0.5613     0.6649 </r>
       <r>   -20.5532     0.0129     0.6667 </r>
       <r>   -20.4114     0.3217     0.7123 </r>
       <r>   -20.2697     0.3430     0.7610 </r>
       <r>   -20.1279     0.5081     0.8330 </r>
       <r>   -19.9861     0.3746     0.8861 </r>
       <r>   -19.8444     0.0719     0.8963 </r>
       <r>   -19.7026     0.4883     0.9655 </r>
       <r>   -19.5608     0.2828     1.0056 </r>
       <r>   -19.4190     0.3477     1.0549 </r>
       <r>   -19.2773     0.0048     1.0556 </r>
       <r>   -19.1355     0.1180     1.0723 </r>
       <r>   -18.9937     0.9729     1.2102 </r>
       <r>   -18.8520     0.3435     1.2589 </r>
       <r>   -18.7102     0.1405     1.2788 </r>
       <r>   -18.5684     0.3740     1.3318 </r>
       <r>   -18.4267     0.1304     1.3503 </r>
       <r>   -18.2849     0.6366     1.4406 </r>
       <r>   -18.1431     0.1038     1.4553 </r>
       <r>   -18.0014     0.3696     1.5077 </r>
       <r>   -17.8596     0.1416     1.5278 </r>
       <r>   -17.7178     0.3082     1.5715 </r>
       <r>   -17.5761     0.8471     1.6916 </r>
       <r>   -17.4343     0.4531     1.7558 </r>
       <r>   -17.2925     0.5356     1.8317 </r>
       <r>   -17.1508     0.0114     1.8333 </r>
       <r>   -17.0090     0.1689     1.8573 </r>
       <r>   -16.8672     0.4174     1.9165 </r>
       <r>   -16.7255     0.0014     1.9167 </r>
       <r>   -16.5837     0.0024     1.9170 </r>
       <r>   -16.4419     0.1887     1.9438 </r>
       <r>   -16.3002     0.5628     2.0235 </r>
       <r>   -16.1584     0.4201     2.0831 </r>
       <r>   -16.0166     0.3110     2.1272 </r>
       <r>   -15.8749     0.1919     2.1544 </r>
       <r>   -15.7331     0.1070     2.1696 </r>
       <r>   -15.5913     0.5553     2.2483 </r>
       <r>   -15.4496     0.4060     2.3058 </r>
       <r>   -15.3078     0.7750     2.4157 </r>
       <r>   -15.1660     0.3537     2.4658 </r>
       <r>   -15.0242     0.0450     2.4722 </r>
       <r>   -14.8825     0.2616     2.5093 </r>
       <r>   -14.7407     0.7153     2.6107 </r>
       <r>   -14.5989     0.0027     2.6111 </r>
       <r>   -14.4572     0.0180     2.6137 </r>
       <r>   -14.3154     0.7458     2.7194 </r>
       <r>   -14.1736     0.3940     2.7753 </r>
       <r>   -14.0319     0.0922     2.7883 </r>
       <r>   -13.8901     0.4113     2.8466 </r>
       <r>   -13.7483     0.1022     2.8611 </r>
       <r>   -13.6066     0.2808     2.9009 </r>
       <r>   -13.4648     0.4897     2.9703 </r>
       <r>   -13.3230     0.2564     3.0067 </r>
       <r>   -13.1813     0.6890     3.1044 </r>
       <r>   -13.0395     0.4398     3.1667 </r>
       <r>   -12.8977     0.1835     3.1927 </r>
       <r>   -12.7560     0.1772     3.2178 </r>
       <r>   -12.6142     0.4959     3.2881 </r>
       <r>   -12.4724     0.1234     3.3056 </r>
       <r>   -12.3307     0.1779     3.3309 </r>
       <r>   -12.1889     0.6790     3.4271 </r>
       <r>   -12.0471     0.8134     3.5424 </r>
       <r>   -11.9054     0.1098     3.5580 </r>
       <r>   -11.7636     0.4543     3.6224 </r>
       <r>   -11.6218     0.5038     3.6938 </r>
       <r>   -11.4801     0.1625     3.7169 </r>
       <r>   -11.3383     0.5658     3.7971 </r>
       <r>   -11.1965     0.1318     3.8158 </r>
       <r>   -11.0548     0.7274     3.9189 </r>
       <r>   -10.9130     0.4727     3.9859 </r>
       <r>   -10.7712     0.2502     4.0214 </r>
       <r>   -10.6294     0.8039     4.1353 </r>
       <r>   -10.4877     0.8700     4.2587 </r>
       <r>   -10.3459     0.7053     4.3587 </r>
       <r>   -10.2041     0.6274     4.4476 </r>
       <r>   -10.0624     1.2459     4.6242 </r>
       <r>    -9.9206     0.7549     4.7313 </r>
       <r>    -9.7788     1.0291     4.8772 </r>
       <r>    -9.6371     0.7101     4.9778 </r>
       <r>    -9.4953     0.9308     5.1098 </r>
       <r>    -9.3535     1.3644     5.3032 </r>
       <r>    -9.2118     0.7999     5.4166 </r>
       <r>    -9.0700     0.2784     5.4561 </r>
       <r>    -8.9282     1.1550     5.6199 </r>
       <r>    -8.7865     0.8079     5.7344 </r>
       <r>    -8.6447     0.8607     5.8564 </r>
       <r>    -8.5029     0.8920     5.9829 </r>
       <r>    -8.3612     0.5208     6.0567 </r>
       <r>    -8.2194     0.1868     6.0832 </r>
       <r>    -8.0776     0.7172     6.1848 </r>
       <r>    -7.9359     0.5898     6.2685 </r>
       <r>    -7.7941     0.6428     6.3596 </r>
       <r>    -7.6523     0.9989     6.5012 </r>
       <r>    -7.5106     0.5554     6.5799 </r>
       <r>    -7.3688     0.3709     6.6325 </r>
       <r>    -7.2270     0.5365     6.7086 </r>
       <r>    -7.0853     0.9296     6.8404 </r>
       <r>    -6.9435     0.1517     6.8619 </r>
       <r>    -6.8017     0.2502     6.8973 </r>
       <r>    -6.6600     0.6965     6.9961 </r>
       <r>    -6.5182     0.8577     7.1177 </r>
       <r>    -6.3764     0.6495     7.2097 </r>
       <r>    -6.2346     0.5424     7.2866 </r>
       <r>    -6.0929     0.3305     7.3335 </r>
       <r>    -5.9511     0.3531     7.3835 </r>
       <r>    -5.8093     0.4218     7.4433 </r>
       <r>    -5.6676     0.5482     7.5211 </r>
       <r>    -5.5258     0.2627     7.5583 </r>
       <r>    -5.3840     0.2068     7.5876 </r>
       <r>    -5.2423     0.3240     7.6335 </r>
       <r>    -5.1005     1.3565     7.8259 </r>
       <r>    -4.9587     0.0528     7.8333 </r>
       <r>    -4.8170     0.0000     7.8333 </r>
       <r>    -4.6752     0.0541     7.8410 </r>
       <r>    -4.5334     0.3374     7.8888 </r>
       <r>    -4.3917     0.1682     7.9127 </r>
       <r>    -4.2499     0.0284     7.9167 </r>
       <r>    -4.1081     0.1640     7.9400 </r>
       <r>    -3.9664     0.0317     7.9444 </r>
       <r>    -3.8246     0.0673     7.9540 </r>
       <r>    -3.6828     0.3241     7.9999 </r>
       <r>    -3.5411     0.0004     8.0000 </r>
       <r>    -3.3993     0.0000     8.0000 </r>
       <r>    -3.2575     0.0000     8.0000 </r>
       <r>    -3.1158     0.0000     8.0000 </r>
       <r>    -2.9740     0.0000     8.0000 </r>
       <r>    -2.8322     0.0000     8.0000 </r>
       <r>    -2.6905     0.0000     8.0000 </r>
       <r>    -2.5487     0.0003     8.0000 </r>
       <r>    -2.4069     0.3118     8.0442 </r>
       <r>    -2.2651     0.0798     8.0556 </r>
       <r>    -2.1234     0.1439     8.0760 </r>
       <r>    -1.9816     0.0520     8.0833 </r>
       <r>    -1.8398     0.0249     8.0869 </r>
       <r>    -1.6981     0.5367     8.1629 </r>
       <r>    -1.5563     0.0270     8.1668 </r>
       <r>    -1.4145     0.4762     8.2343 </r>
       <r>    -1.2728     0.8444     8.3540 </r>
       <r>    -1.1310     0.4246     8.4142 </r>
       <r>    -0.9892     0.5985     8.4990 </r>
       <r>    -0.8475     0.2113     8.5290 </r>
       <r>    -0.7057     0.5403     8.6056 </r>
       <r>    -0.5639     0.0390     8.6111 </r>
       <r>    -0.4222     0.0089     8.6124 </r>
       <r>    -0.2804     0.7333     8.7163 </r>
       <r>    -0.1386     0.0415     8.7222 </r>
       <r>     0.0031     0.0291     8.7263 </r>
       <r>     0.1449     0.4888     8.7956 </r>
       <r>     0.2867     0.5963     8.8802 </r>
       <r>     0.4284     0.4148     8.9390 </r>
       <r>     0.5702     0.6004     9.0241 </r>
       <r>     0.7120     0.4746     9.0914 </r>
       <r>     0.8537     0.4278     9.1520 </r>
       <r>     0.9955     0.3176     9.1971 </r>
       <r>     1.1373     0.6881     9.2946 </r>
       <r>     1.2790     1.2530     9.4723 </r>
       <r>     1.4208     0.8009     9.5858 </r>
       <r>     1.5626     1.0788     9.7387 </r>
       <r>     1.7043     1.0466     9.8871 </r>
       <r>     1.8461     1.3797    10.0827 </r>
       <r>     1.9879     1.0313    10.2289 </r>
       <r>     2.1297     1.0465    10.3773 </r>
       <r>     2.2714     1.7144    10.6203 </r>
       <r>     2.4132     1.8664    10.8849 </r>
       <r>     2.5550     1.5168    11.1000 </r>
       <r>     2.6967     1.7900    11.3537 </r>
       <r>     2.8385     1.2590    11.5322 </r>
       <r>     2.9803     1.7670    11.7827 </r>
       <r>     3.1220     1.5081    11.9965 </r>
       <r>     3.2638     1.5787    12.2203 </r>
       <r>     3.4056     2.0248    12.5074 </r>
       <r>     3.5473     1.2508    12.6847 </r>
       <r>     3.6891     2.6674    13.0628 </r>
       <r>     3.8309     1.6694    13.2995 </r>
       <r>     3.9726     2.2594    13.6198 </r>
       <r>     4.1144     1.8327    13.8796 </r>
       <r>     4.2562     1.8863    14.1471 </r>
       <r>     4.3979     2.5225    14.5047 </r>
       <r>     4.5397     2.1496    14.8094 </r>
       <r>     4.6815     2.7858    15.2043 </r>
       <r>     4.8232     3.0003    15.6297 </r>
       <r>     4.9650     2.2346    15.9465 </r>
       <r>     5.1068     3.0973    16.3856 </r>
       <r>     5.2485     2.9432    16.8028 </r>
       <r>     5.3903     3.9457    17.3622 </r>
       <r>     5.5321     3.6516    17.8799 </r>
       <r>     5.6738     2.4395    18.2257 </r>
       <r>     5.8156     2.6559    18.6022 </r>
       <r>     5.9574     3.6022    19.1129 </r>
       <r>     6.0991     3.6151    19.6254 </r>
       <r>     6.2409     3.0608    20.0594 </r>
       <r>     6.3827     3.9360    20.6174 </r>
       <r>     6.5245     2.6451    20.9923 </r>
       <r>     6.6662     2.0030    21.2763 </r>
       <r>     6.8080     3.6908    21.7995 </r>
       <r>     6.9498     2.8544    22.2042 </r>
       <r>     7.0915     2.3425    22.5363 </r>
       <r>     7.2333     3.4060    23.0192 </r>
       <r>     7.3751     2.9693    23.4401 </r>
       <r>     7.5168     3.7477    23.9714 </r>
       <r>     7.6586     3.9891    24.5370 </r>
       <r>     7.8004     3.8123    25.0774 </r>
       <r>     7.9421     3.1499    25.5240 </r>
       <r>     8.0839     2.9670    25.9446 </r>
       <r>     8.2257     3.5355    26.4458 </r>
       <r>     8.3674     3.7481    26.9772 </r>
       <r>     8.5092     3.4078    27.4603 </r>
       <r>     8.6510     3.2279    27.9179 </r>
       <r>     8.7927     2.9312    28.3335 </r>
       <r>     8.9345     2.7854    28.7283 </r>
       <r>     9.0763     3.0786    29.1648 </r>
       <r>     9.2180     3.9989    29.7317 </r>
       <r>     9.3598     4.9867    30.4386 </r>
       <r>     9.5016     2.5495    30.8001 </r>
       <r>     9.6433     3.4326    31.2867 </r>
       <r>     9.7851     3.4240    31.7721 </r>
       <r>     9.9269     4.4610    32.4045 </r>
       <r>    10.0686     3.9523    32.9649 </r>
       <r>    10.2104     3.7487    33.4963 </r>
       <r>    10.3522     4.9667    34.2004 </r>
       <r>    10.4940     3.4909    34.6953 </r>
       <r>    10.6357     2.6051    35.0646 </r>
       <r>    10.7775     4.0556    35.6396 </r>
       <r>    10.9193     3.5141    36.1378 </r>
       <r>    11.0610     4.4788    36.7727 </r>
       <r>    11.2028     4.6023    37.4252 </r>
       <r>    11.3446     3.9375    37.9834 </r>
       <r>    11.4863     3.6898    38.5065 </r>
       <r>    11.6281     3.4712    38.9986 </r>
       <r>    11.7699     4.4178    39.6249 </r>
       <r>    11.9116     2.2128    39.9386 </r>
       <r>    12.0534     3.8011    40.4775 </r>
       <r>    12.1952     3.5407    40.9794 </r>
       <r>    12.3369     4.2577    41.5830 </r>
       <r>    12.4787     3.3756    42.0616 </r>
       <r>    12.6205     3.0863    42.4991 </r>
       <r>    12.7622     5.8074    43.3224 </r>
       <r>    12.9040     2.2716    43.6444 </r>
       <r>    13.0458     2.8403    44.0471 </r>
       <r>    13.1875     2.4872    44.3997 </r>
       <r>    13.3293     3.0049    44.8257 </r>
       <r>    13.4711     2.8884    45.2352 </r>
       <r>    13.6128     2.4251    45.5790 </r>
       <r>    13.7546     2.1884    45.8892 </r>
       <r>    13.8964     3.3394    46.3627 </r>
       <r>    14.0381     1.8023    46.6182 </r>
       <r>    14.1799     2.3888    46.9568 </r>
       <r>    14.3217     0.9441    47.0907 </r>
       <r>    14.4634     1.5976    47.3172 </r>
       <r>    14.6052     1.4898    47.5284 </r>
       <r>    14.7470     0.7494    47.6346 </r>
       <r>    14.8888     0.0423    47.6406 </r>
       <r>    15.0305     0.7279    47.7438 </r>
       <r>    15.1723     0.6763    47.8397 </r>
       <r>    15.3141     0.1512    47.8611 </r>
       <r>    15.4558     0.0000    47.8611 </r>
       <r>    15.5976     0.2496    47.8965 </r>
       <r>    15.7394     0.5335    47.9721 </r>
       <r>    15.8811     0.0149    47.9742 </r>
       <r>    16.0229     0.1807    47.9999 </r>
       <r>    16.1647     0.0011    48.0000 </r>
       <r>    16.3064     0.0000    48.0000 </r>
       <r>    16.4482     0.0000    48.0000 </r>
       <r>    16.5900     0.0000    48.0000 </r>
       <r>    16.7317     0.0000    48.0000 </r>
       <r>    16.8735     0.0000    48.0000 </r>
       <r>    17.0153     0.0000    48.0000 </r>
       <r>    17.1570     0.0000    48.0000 </r>
       <r>    17.2988     0.0000    48.0000 </r>
       <r>    17.4406     0.0000    48.0000 </r>
       <r>    17.5823     0.0000    48.0000 </r>
       <r>    17.7241     0.0000    48.0000 </r>
       <r>    17.8659     0.0000    48.0000 </r>
      </set>
     </set>
    </array>
   </total>
  </dos>
 </calculation>
 <structure name="finalpos" >
  <crystal>
   <varray name="basis" >
    <v>       1.22597887      -2.12346303       0.00000000 </v>
    <v>       1.22597887       2.12346303       0.00000000 </v>
    <v>       0.00000000       0.00000000      30.28239374 </v>
   </varray>
   <i name="volume">    157.66957062 </i>
   <varray name="rec_basis" >
    <v>       0.40783737      -0.23546442       0.00000000 </v>
    <v>       0.40783737       0.23546442       0.00000000 </v>
    <v>       0.00000000       0.00000000       0.03302249 </v>
   </varray>
  </crystal>
  <varray name="positions" >
   <v>       0.00000262       0.99999738       0.50000000 </v>
   <v>       0.66666738       0.33333262       0.50000000 </v>
  </varray>
 </structure>
</modeling>
