   4   4   0   0
  0.1600748E+02  0.3925892E-09  0.3925891E-09  0.4154382E-09  0.2000000E-15
  1.000000000000000E-004
  CAR 
 unknown system                          
     22.00539137     -1.02833024  301     10.62027217      1.00000000
     -1.028  0.0000E+00  0.0000E+00
     -0.952  0.0000E+00  0.0000E+00
     -0.875  0.0000E+00  0.0000E+00
     -0.798  0.0000E+00  0.0000E+00
     -0.721  0.0000E+00  0.0000E+00
     -0.644  0.0000E+00  0.0000E+00
     -0.568  0.4284E-20  0.3290E-21
     -0.491  0.2259E-16  0.1735E-17
     -0.414  0.3733E-13  0.2868E-14
     -0.337  0.1994E-10  0.1534E-11
     -0.261  0.3566E-08  0.2753E-09
     -0.184  0.2263E-06  0.1765E-07
     -0.107  0.5555E-05  0.4442E-06
     -0.030  0.5810E-04  0.4905E-05
      0.047  0.2810E-03  0.2648E-04
      0.123  0.6794E-03  0.7864E-04
      0.200  0.1008E-02  0.1560E-03
      0.277  0.1397E-02  0.2633E-03
      0.354  0.1724E-02  0.3956E-03
      0.430  0.1643E-02  0.5218E-03
      0.507  0.1978E-02  0.6736E-03
      0.584  0.2410E-02  0.8586E-03
      0.661  0.2444E-02  0.1046E-02
      0.738  0.2638E-02  0.1249E-02
      0.814  0.2645E-02  0.1452E-02
      0.891  0.2599E-02  0.1651E-02
      0.968  0.3303E-02  0.1905E-02
      1.045  0.3750E-02  0.2193E-02
      1.121  0.3670E-02  0.2475E-02
      1.198  0.3299E-02  0.2728E-02
      1.275  0.3264E-02  0.2979E-02
      1.352  0.4158E-02  0.3298E-02
      1.429  0.4832E-02  0.3669E-02
      1.505  0.4618E-02  0.4023E-02
      1.582  0.4290E-02  0.4353E-02
      1.659  0.4901E-02  0.4729E-02
      1.736  0.5430E-02  0.5146E-02
      1.812  0.5325E-02  0.5555E-02
      1.889  0.5193E-02  0.5953E-02
      1.966  0.5666E-02  0.6388E-02
      2.043  0.6868E-02  0.6916E-02
      2.120  0.7745E-02  0.7510E-02
      2.196  0.7119E-02  0.8057E-02
      2.273  0.6680E-02  0.8570E-02
      2.350  0.7698E-02  0.9161E-02
      2.427  0.9619E-02  0.9900E-02
      2.504  0.1104E-01  0.1075E-01
      2.580  0.1244E-01  0.1170E-01
      2.657  0.1588E-01  0.1292E-01
      2.734  0.2139E-01  0.1456E-01
      2.811  0.2575E-01  0.1654E-01
      2.887  0.2723E-01  0.1863E-01
      2.964  0.2982E-01  0.2092E-01
      3.041  0.3492E-01  0.2360E-01
      3.118  0.3859E-01  0.2657E-01
      3.195  0.4473E-01  0.3000E-01
      3.271  0.5056E-01  0.3388E-01
      3.348  0.5442E-01  0.3806E-01
      3.425  0.6325E-01  0.4292E-01
      3.502  0.6863E-01  0.4819E-01
      3.578  0.6922E-01  0.5350E-01
      3.655  0.6970E-01  0.5885E-01
      3.732  0.6889E-01  0.6414E-01
      3.809  0.6541E-01  0.6916E-01
      3.886  0.6233E-01  0.7395E-01
      3.962  0.6226E-01  0.7873E-01
      4.039  0.6088E-01  0.8340E-01
      4.116  0.5694E-01  0.8777E-01
      4.193  0.5447E-01  0.9196E-01
      4.269  0.5105E-01  0.9588E-01
      4.346  0.4415E-01  0.9927E-01
      4.423  0.4467E-01  0.1027E+00
      4.500  0.5184E-01  0.1067E+00
      4.577  0.5659E-01  0.1110E+00
      4.653  0.6104E-01  0.1157E+00
      4.730  0.6804E-01  0.1209E+00
      4.807  0.7213E-01  0.1265E+00
      4.884  0.7174E-01  0.1320E+00
      4.960  0.7050E-01  0.1374E+00
      5.037  0.7096E-01  0.1428E+00
      5.114  0.7461E-01  0.1486E+00
      5.191  0.7899E-01  0.1546E+00
      5.268  0.8074E-01  0.1608E+00
      5.344  0.7876E-01  0.1669E+00
      5.421  0.7421E-01  0.1726E+00
      5.498  0.7034E-01  0.1780E+00
      5.575  0.7825E-01  0.1840E+00
      5.651  0.9371E-01  0.1912E+00
      5.728  0.9847E-01  0.1987E+00
      5.805  0.9613E-01  0.2061E+00
      5.882  0.9246E-01  0.2132E+00
      5.959  0.8925E-01  0.2201E+00
      6.035  0.8862E-01  0.2269E+00
      6.112  0.8362E-01  0.2333E+00
      6.189  0.7262E-01  0.2389E+00
      6.266  0.6530E-01  0.2439E+00
      6.342  0.6128E-01  0.2486E+00
      6.419  0.5983E-01  0.2532E+00
      6.496  0.6179E-01  0.2579E+00
      6.573  0.6391E-01  0.2628E+00
      6.650  0.6490E-01  0.2678E+00
      6.726  0.6917E-01  0.2731E+00
      6.803  0.7269E-01  0.2787E+00
      6.880  0.7181E-01  0.2842E+00
      6.957  0.7387E-01  0.2899E+00
      7.033  0.7693E-01  0.2958E+00
      7.110  0.7601E-01  0.3016E+00
      7.187  0.6819E-01  0.3069E+00
      7.264  0.6239E-01  0.3117E+00
      7.341  0.6377E-01  0.3166E+00
      7.417  0.6635E-01  0.3217E+00
      7.494  0.6587E-01  0.3267E+00
      7.571  0.6048E-01  0.3314E+00
      7.648  0.5503E-01  0.3356E+00
      7.724  0.5704E-01  0.3400E+00
      7.801  0.6277E-01  0.3448E+00
      7.878  0.6383E-01  0.3497E+00
      7.955  0.5819E-01  0.3541E+00
      8.032  0.5730E-01  0.3585E+00
      8.108  0.6512E-01  0.3635E+00
      8.185  0.7184E-01  0.3691E+00
      8.262  0.7613E-01  0.3749E+00
      8.339  0.8625E-01  0.3815E+00
      8.415  0.9842E-01  0.3891E+00
      8.492  0.1025E+00  0.3970E+00
      8.569  0.9551E-01  0.4043E+00
      8.646  0.7474E-01  0.4100E+00
      8.723  0.5197E-01  0.4140E+00
      8.799  0.4032E-01  0.4171E+00
      8.876  0.3108E-01  0.4195E+00
      8.953  0.2050E-01  0.4211E+00
      9.030  0.1691E-01  0.4224E+00
      9.107  0.1474E-01  0.4235E+00
      9.183  0.1257E-01  0.4245E+00
      9.260  0.1315E-01  0.4255E+00
      9.337  0.1283E-01  0.4265E+00
      9.414  0.9344E-02  0.4272E+00
      9.490  0.8041E-02  0.4278E+00
      9.567  0.1067E-01  0.4286E+00
      9.644  0.1267E-01  0.4296E+00
      9.721  0.1297E-01  0.4306E+00
      9.798  0.1231E-01  0.4315E+00
      9.874  0.1008E-01  0.4323E+00
      9.951  0.8775E-02  0.4330E+00
     10.028  0.9133E-02  0.4337E+00
     10.105  0.1099E-01  0.4345E+00
     10.181  0.1252E-01  0.4355E+00
     10.258  0.1174E-01  0.4364E+00
     10.335  0.1020E-01  0.4372E+00
     10.412  0.9322E-02  0.4379E+00
     10.489  0.9384E-02  0.4386E+00
     10.565  0.9979E-02  0.4394E+00
     10.642  0.1179E-01  0.4403E+00
     10.719  0.1434E-01  0.4414E+00
     10.796  0.1326E-01  0.4424E+00
     10.872  0.1007E-01  0.4432E+00
     10.949  0.9195E-02  0.4439E+00
     11.026  0.9321E-02  0.4446E+00
     11.103  0.8291E-02  0.4452E+00
     11.180  0.8386E-02  0.4459E+00
     11.256  0.1126E-01  0.4467E+00
     11.333  0.1286E-01  0.4477E+00
     11.410  0.1277E-01  0.4487E+00
     11.487  0.1190E-01  0.4496E+00
     11.563  0.1044E-01  0.4504E+00
     11.640  0.9841E-02  0.4512E+00
     11.717  0.9490E-02  0.4519E+00
     11.794  0.9743E-02  0.4527E+00
     11.871  0.1043E-01  0.4535E+00
     11.947  0.1104E-01  0.4543E+00
     12.024  0.1092E-01  0.4551E+00
     12.101  0.9951E-02  0.4559E+00
     12.178  0.9507E-02  0.4566E+00
     12.254  0.9933E-02  0.4574E+00
     12.331  0.9484E-02  0.4581E+00
     12.408  0.9526E-02  0.4589E+00
     12.485  0.1121E-01  0.4597E+00
     12.562  0.1167E-01  0.4606E+00
     12.638  0.1003E-01  0.4614E+00
     12.715  0.8831E-02  0.4621E+00
     12.792  0.9271E-02  0.4628E+00
     12.869  0.9333E-02  0.4635E+00
     12.945  0.9313E-02  0.4642E+00
     13.022  0.9655E-02  0.4649E+00
     13.099  0.8932E-02  0.4656E+00
     13.176  0.8061E-02  0.4663E+00
     13.253  0.8960E-02  0.4669E+00
     13.329  0.9467E-02  0.4677E+00
     13.406  0.8400E-02  0.4683E+00
     13.483  0.8253E-02  0.4689E+00
     13.560  0.8888E-02  0.4696E+00
     13.636  0.9878E-02  0.4704E+00
     13.713  0.9597E-02  0.4711E+00
     13.790  0.8426E-02  0.4718E+00
     13.867  0.1029E-01  0.4726E+00
     13.944  0.1444E-01  0.4737E+00
     14.020  0.1835E-01  0.4751E+00
     14.097  0.1897E-01  0.4765E+00
     14.174  0.1519E-01  0.4777E+00
     14.251  0.1459E-01  0.4788E+00
     14.327  0.1500E-01  0.4800E+00
     14.404  0.1345E-01  0.4810E+00
     14.481  0.1315E-01  0.4820E+00
     14.558  0.1292E-01  0.4830E+00
     14.635  0.1150E-01  0.4839E+00
     14.711  0.9402E-02  0.4846E+00
     14.788  0.8788E-02  0.4853E+00
     14.865  0.1118E-01  0.4861E+00
     14.942  0.1356E-01  0.4872E+00
     15.018  0.1265E-01  0.4882E+00
     15.095  0.1053E-01  0.4890E+00
     15.172  0.9839E-02  0.4897E+00
     15.249  0.9659E-02  0.4905E+00
     15.326  0.9419E-02  0.4912E+00
     15.402  0.1021E-01  0.4920E+00
     15.479  0.1273E-01  0.4929E+00
     15.556  0.1310E-01  0.4940E+00
     15.633  0.1286E-01  0.4949E+00
     15.710  0.1366E-01  0.4960E+00
     15.786  0.1395E-01  0.4971E+00
     15.863  0.1204E-01  0.4980E+00
     15.940  0.1017E-01  0.4988E+00
     16.017  0.1111E-01  0.4996E+00
     16.093  0.1297E-01  0.5006E+00
     16.170  0.1407E-01  0.5017E+00
     16.247  0.1476E-01  0.5028E+00
     16.324  0.1454E-01  0.5039E+00
     16.401  0.1177E-01  0.5048E+00
     16.477  0.1046E-01  0.5056E+00
     16.554  0.1253E-01  0.5066E+00
     16.631  0.1316E-01  0.5076E+00
     16.708  0.1166E-01  0.5085E+00
     16.784  0.1189E-01  0.5094E+00
     16.861  0.1232E-01  0.5104E+00
     16.938  0.1059E-01  0.5112E+00
     17.015  0.1015E-01  0.5120E+00
     17.092  0.1190E-01  0.5129E+00
     17.168  0.1253E-01  0.5138E+00
     17.245  0.1203E-01  0.5148E+00
     17.322  0.1232E-01  0.5157E+00
     17.399  0.1215E-01  0.5166E+00
     17.475  0.1108E-01  0.5175E+00
     17.552  0.1089E-01  0.5183E+00
     17.629  0.1061E-01  0.5191E+00
     17.706  0.9220E-02  0.5199E+00
     17.783  0.7946E-02  0.5205E+00
     17.859  0.7520E-02  0.5210E+00
     17.936  0.8499E-02  0.5217E+00
     18.013  0.9910E-02  0.5225E+00
     18.090  0.9132E-02  0.5232E+00
     18.166  0.7858E-02  0.5238E+00
     18.243  0.9823E-02  0.5245E+00
     18.320  0.1224E-01  0.5255E+00
     18.397  0.1233E-01  0.5264E+00
     18.474  0.1171E-01  0.5273E+00
     18.550  0.1192E-01  0.5282E+00
     18.627  0.1170E-01  0.5291E+00
     18.704  0.1033E-01  0.5299E+00
     18.781  0.9298E-02  0.5306E+00
     18.857  0.8499E-02  0.5313E+00
     18.934  0.7849E-02  0.5319E+00
     19.011  0.7735E-02  0.5325E+00
     19.088  0.8199E-02  0.5331E+00
     19.165  0.8462E-02  0.5338E+00
     19.241  0.8306E-02  0.5344E+00
     19.318  0.9980E-02  0.5352E+00
     19.395  0.1170E-01  0.5361E+00
     19.472  0.9893E-02  0.5368E+00
     19.548  0.6405E-02  0.5373E+00
     19.625  0.4156E-02  0.5376E+00
     19.702  0.3166E-02  0.5379E+00
     19.779  0.3793E-02  0.5382E+00
     19.856  0.4466E-02  0.5385E+00
     19.932  0.3762E-02  0.5388E+00
     20.009  0.2271E-02  0.5390E+00
     20.086  0.1043E-02  0.5390E+00
     20.163  0.8669E-03  0.5391E+00
     20.239  0.1600E-02  0.5392E+00
     20.316  0.2022E-02  0.5394E+00
     20.393  0.2156E-02  0.5396E+00
     20.470  0.1898E-02  0.5397E+00
     20.547  0.1238E-02  0.5398E+00
     20.623  0.8179E-03  0.5399E+00
     20.700  0.4806E-03  0.5399E+00
     20.777  0.1655E-03  0.5399E+00
     20.854  0.2121E-03  0.5399E+00
     20.930  0.4619E-03  0.5400E+00
     21.007  0.3980E-03  0.5400E+00
     21.084  0.1286E-03  0.5400E+00
     21.161  0.1549E-04  0.5400E+00
     21.238  0.6793E-06  0.5400E+00
     21.314  0.1051E-07  0.5400E+00
     21.391  0.5553E-10  0.5400E+00
     21.468  0.9742E-13  0.5400E+00
     21.545  0.5559E-16  0.5400E+00
     21.621  0.0000E+00  0.5400E+00
     21.698  0.0000E+00  0.5400E+00
     21.775  0.0000E+00  0.5400E+00
     21.852  0.0000E+00  0.5400E+00
     21.929  0.0000E+00  0.5400E+00
     22.005  0.0000E+00  0.5400E+00
