       N       E                     dE             d eps       ncg     rms          rms(c)
DAV:   1     0.284161822052E+03    0.28416E+03   -0.22952E+04 91872   0.154E+03
DAV:   2    -0.841249612416E+01   -0.29257E+03   -0.28526E+03104247   0.339E+02
DAV:   3    -0.134308232498E+02   -0.50183E+01   -0.49904E+01102159   0.472E+01
DAV:   4    -0.134578275682E+02   -0.27004E-01   -0.26996E-01105516   0.355E+00
DAV:   5    -0.134580656373E+02   -0.23807E-03   -0.23806E-03106848   0.347E-01    0.229E+01
RMM:   6    -0.124906115210E+02    0.96745E+00   -0.21716E+00 91152   0.992E+00    0.141E+01
RMM:   7    -0.123985391698E+02    0.92072E-01   -0.50070E-01 91176   0.463E+00    0.457E+00
RMM:   8    -0.123833405099E+02    0.15199E-01   -0.40688E-02 91152   0.136E+00    0.637E-01
RMM:   9    -0.123832261922E+02    0.11432E-03   -0.18685E-04 91223   0.788E-02    0.557E-02
RMM:  10    -0.123832328301E+02   -0.66378E-05   -0.13723E-05 91114   0.304E-02    0.515E-02
RMM:  11    -0.123832364752E+02   -0.36451E-05   -0.11436E-06 49995   0.748E-03    0.984E-04
RMM:  12    -0.123832364360E+02    0.39220E-07   -0.10246E-07 39295   0.211E-03
   1 F= -.12383236E+02 E0= -.12380144E+02  d E =-.123832E+02
