   4   4   0   0
  0.1989676E+02  0.4611365E-09  0.4154382E-09  0.4154382E-09  0.2000000E-15
  1.000000000000000E-004
  CAR 
 unknown system                          
     17.36894983     -2.22703251  301      7.10495869      1.00000000
     -2.227  0.0000E+00  0.0000E+00
     -2.162  0.0000E+00  0.0000E+00
     -2.096  0.0000E+00  0.0000E+00
     -2.031  0.0000E+00  0.0000E+00
     -1.966  0.0000E+00  0.0000E+00
     -1.900  0.0000E+00  0.0000E+00
     -1.835  0.0000E+00  0.0000E+00
     -1.770  0.7856E-18  0.5132E-19
     -1.704  0.7047E-15  0.4608E-16
     -1.639  0.2831E-12  0.1854E-13
     -1.574  0.5102E-10  0.3351E-11
     -1.509  0.4223E-08  0.2792E-09
     -1.443  0.1659E-06  0.1112E-07
     -1.378  0.3219E-05  0.2214E-06
     -1.313  0.3215E-04  0.2322E-05
     -1.247  0.1722E-03  0.1357E-04
     -1.182  0.5191E-03  0.4748E-04
     -1.117  0.9741E-03  0.1111E-03
     -1.051  0.1410E-02  0.2032E-03
     -0.986  0.1842E-02  0.3235E-03
     -0.921  0.2066E-02  0.4585E-03
     -0.855  0.2238E-02  0.6047E-03
     -0.790  0.2595E-02  0.7742E-03
     -0.725  0.2882E-02  0.9624E-03
     -0.659  0.3131E-02  0.1167E-02
     -0.594  0.3279E-02  0.1381E-02
     -0.529  0.3231E-02  0.1592E-02
     -0.463  0.3528E-02  0.1823E-02
     -0.398  0.4117E-02  0.2091E-02
     -0.333  0.4335E-02  0.2375E-02
     -0.267  0.4404E-02  0.2662E-02
     -0.202  0.4356E-02  0.2947E-02
     -0.137  0.4496E-02  0.3241E-02
     -0.071  0.4969E-02  0.3565E-02
     -0.006  0.5205E-02  0.3905E-02
      0.059  0.5518E-02  0.4265E-02
      0.124  0.6189E-02  0.4670E-02
      0.190  0.6385E-02  0.5087E-02
      0.255  0.6079E-02  0.5484E-02
      0.320  0.5894E-02  0.5869E-02
      0.386  0.6379E-02  0.6286E-02
      0.451  0.7576E-02  0.6780E-02
      0.516  0.8657E-02  0.7346E-02
      0.582  0.8625E-02  0.7909E-02
      0.647  0.8279E-02  0.8450E-02
      0.712  0.8949E-02  0.9035E-02
      0.778  0.9895E-02  0.9681E-02
      0.843  0.1079E-01  0.1039E-01
      0.908  0.1203E-01  0.1117E-01
      0.974  0.1402E-01  0.1209E-01
      1.039  0.1794E-01  0.1326E-01
      1.104  0.2335E-01  0.1478E-01
      1.170  0.2838E-01  0.1664E-01
      1.235  0.3234E-01  0.1875E-01
      1.300  0.3575E-01  0.2109E-01
      1.366  0.3926E-01  0.2365E-01
      1.431  0.4372E-01  0.2651E-01
      1.496  0.4985E-01  0.2976E-01
      1.562  0.5715E-01  0.3350E-01
      1.627  0.6529E-01  0.3776E-01
      1.692  0.7490E-01  0.4265E-01
      1.757  0.8275E-01  0.4806E-01
      1.823  0.8900E-01  0.5387E-01
      1.888  0.9251E-01  0.5991E-01
      1.953  0.9145E-01  0.6589E-01
      2.019  0.8907E-01  0.7171E-01
      2.084  0.8488E-01  0.7725E-01
      2.149  0.8032E-01  0.8250E-01
      2.215  0.7640E-01  0.8749E-01
      2.280  0.7166E-01  0.9217E-01
      2.345  0.6751E-01  0.9658E-01
      2.411  0.6585E-01  0.1009E+00
      2.476  0.6983E-01  0.1054E+00
      2.541  0.8152E-01  0.1108E+00
      2.607  0.9806E-01  0.1172E+00
      2.672  0.1120E+00  0.1245E+00
      2.737  0.1174E+00  0.1322E+00
      2.803  0.1187E+00  0.1399E+00
      2.868  0.1180E+00  0.1476E+00
      2.933  0.1122E+00  0.1549E+00
      2.999  0.1036E+00  0.1617E+00
      3.064  0.9956E-01  0.1682E+00
      3.129  0.1024E+00  0.1749E+00
      3.195  0.1060E+00  0.1818E+00
      3.260  0.1061E+00  0.1888E+00
      3.325  0.1065E+00  0.1957E+00
      3.390  0.1100E+00  0.2029E+00
      3.456  0.1115E+00  0.2102E+00
      3.521  0.1094E+00  0.2173E+00
      3.586  0.1085E+00  0.2244E+00
      3.652  0.1087E+00  0.2315E+00
      3.717  0.1071E+00  0.2385E+00
      3.782  0.1039E+00  0.2453E+00
      3.848  0.1029E+00  0.2520E+00
      3.913  0.1069E+00  0.2590E+00
      3.978  0.1115E+00  0.2663E+00
      4.044  0.1104E+00  0.2735E+00
      4.109  0.1056E+00  0.2804E+00
      4.174  0.1041E+00  0.2872E+00
      4.240  0.1069E+00  0.2942E+00
      4.305  0.1064E+00  0.3011E+00
      4.370  0.1034E+00  0.3079E+00
      4.436  0.1011E+00  0.3145E+00
      4.501  0.9882E-01  0.3209E+00
      4.566  0.9689E-01  0.3273E+00
      4.632  0.9535E-01  0.3335E+00
      4.697  0.9575E-01  0.3398E+00
      4.762  0.9664E-01  0.3461E+00
      4.828  0.9732E-01  0.3524E+00
      4.893  0.1016E+00  0.3591E+00
      4.958  0.1117E+00  0.3664E+00
      5.023  0.1265E+00  0.3746E+00
      5.089  0.1391E+00  0.3837E+00
      5.154  0.1400E+00  0.3929E+00
      5.219  0.1274E+00  0.4012E+00
      5.285  0.1032E+00  0.4079E+00
      5.350  0.7067E-01  0.4125E+00
      5.415  0.4345E-01  0.4154E+00
      5.481  0.3039E-01  0.4174E+00
      5.546  0.2374E-01  0.4189E+00
      5.611  0.1940E-01  0.4202E+00
      5.677  0.1993E-01  0.4215E+00
      5.742  0.2204E-01  0.4229E+00
      5.807  0.2002E-01  0.4242E+00
      5.873  0.1458E-01  0.4252E+00
      5.938  0.1037E-01  0.4258E+00
      6.003  0.8956E-02  0.4264E+00
      6.069  0.1132E-01  0.4272E+00
      6.134  0.1525E-01  0.4282E+00
      6.199  0.1570E-01  0.4292E+00
      6.265  0.1246E-01  0.4300E+00
      6.330  0.9522E-02  0.4306E+00
      6.395  0.9251E-02  0.4312E+00
      6.461  0.1080E-01  0.4319E+00
      6.526  0.1267E-01  0.4328E+00
      6.591  0.1398E-01  0.4337E+00
      6.656  0.1396E-01  0.4346E+00
      6.722  0.1263E-01  0.4354E+00
      6.787  0.1154E-01  0.4362E+00
      6.852  0.1121E-01  0.4369E+00
      6.918  0.1179E-01  0.4377E+00
      6.983  0.1239E-01  0.4385E+00
      7.048  0.1237E-01  0.4393E+00
      7.114  0.1260E-01  0.4401E+00
      7.179  0.1324E-01  0.4410E+00
      7.244  0.1324E-01  0.4418E+00
      7.310  0.1244E-01  0.4427E+00
      7.375  0.1211E-01  0.4434E+00
      7.440  0.1239E-01  0.4443E+00
      7.506  0.1222E-01  0.4451E+00
      7.571  0.1217E-01  0.4458E+00
      7.636  0.1197E-01  0.4466E+00
      7.702  0.1147E-01  0.4474E+00
      7.767  0.1187E-01  0.4482E+00
      7.832  0.1273E-01  0.4490E+00
      7.898  0.1368E-01  0.4499E+00
      7.963  0.1417E-01  0.4508E+00
      8.028  0.1281E-01  0.4516E+00
      8.094  0.1044E-01  0.4523E+00
      8.159  0.1000E-01  0.4530E+00
      8.224  0.1130E-01  0.4537E+00
      8.289  0.1195E-01  0.4545E+00
      8.355  0.1233E-01  0.4553E+00
      8.420  0.1368E-01  0.4562E+00
      8.485  0.1388E-01  0.4571E+00
      8.551  0.1204E-01  0.4579E+00
      8.616  0.1095E-01  0.4586E+00
      8.681  0.1092E-01  0.4593E+00
      8.747  0.1021E-01  0.4600E+00
      8.812  0.9775E-02  0.4606E+00
      8.877  0.1100E-01  0.4613E+00
      8.943  0.1302E-01  0.4622E+00
      9.008  0.1380E-01  0.4631E+00
      9.073  0.1309E-01  0.4639E+00
      9.139  0.1187E-01  0.4647E+00
      9.204  0.1086E-01  0.4654E+00
      9.269  0.1059E-01  0.4661E+00
      9.335  0.1144E-01  0.4669E+00
      9.400  0.1360E-01  0.4678E+00
      9.465  0.1673E-01  0.4689E+00
      9.531  0.1873E-01  0.4701E+00
      9.596  0.1788E-01  0.4712E+00
      9.661  0.1701E-01  0.4724E+00
      9.727  0.1825E-01  0.4735E+00
      9.792  0.1869E-01  0.4748E+00
      9.857  0.1693E-01  0.4759E+00
      9.922  0.1474E-01  0.4768E+00
      9.988  0.1478E-01  0.4778E+00
     10.053  0.1614E-01  0.4789E+00
     10.118  0.1461E-01  0.4798E+00
     10.184  0.1150E-01  0.4806E+00
     10.249  0.1147E-01  0.4813E+00
     10.314  0.1344E-01  0.4822E+00
     10.380  0.1428E-01  0.4831E+00
     10.445  0.1419E-01  0.4840E+00
     10.510  0.1375E-01  0.4849E+00
     10.576  0.1218E-01  0.4857E+00
     10.641  0.9843E-02  0.4864E+00
     10.706  0.8196E-02  0.4869E+00
     10.772  0.7751E-02  0.4874E+00
     10.837  0.9507E-02  0.4880E+00
     10.902  0.1202E-01  0.4888E+00
     10.968  0.1303E-01  0.4897E+00
     11.033  0.1361E-01  0.4906E+00
     11.098  0.1310E-01  0.4914E+00
     11.164  0.1165E-01  0.4922E+00
     11.229  0.1138E-01  0.4929E+00
     11.294  0.1173E-01  0.4937E+00
     11.360  0.1149E-01  0.4944E+00
     11.425  0.1177E-01  0.4952E+00
     11.490  0.1266E-01  0.4960E+00
     11.555  0.1316E-01  0.4969E+00
     11.621  0.1355E-01  0.4978E+00
     11.686  0.1345E-01  0.4987E+00
     11.751  0.1348E-01  0.4995E+00
     11.817  0.1467E-01  0.5005E+00
     11.882  0.1657E-01  0.5016E+00
     11.947  0.1869E-01  0.5028E+00
     12.013  0.1920E-01  0.5041E+00
     12.078  0.1669E-01  0.5052E+00
     12.143  0.1336E-01  0.5060E+00
     12.209  0.1190E-01  0.5068E+00
     12.274  0.1207E-01  0.5076E+00
     12.339  0.1317E-01  0.5085E+00
     12.405  0.1537E-01  0.5095E+00
     12.470  0.1683E-01  0.5106E+00
     12.535  0.1598E-01  0.5116E+00
     12.601  0.1427E-01  0.5125E+00
     12.666  0.1294E-01  0.5134E+00
     12.731  0.1237E-01  0.5142E+00
     12.797  0.1201E-01  0.5150E+00
     12.862  0.1108E-01  0.5157E+00
     12.927  0.1105E-01  0.5164E+00
     12.993  0.1227E-01  0.5172E+00
     13.058  0.1335E-01  0.5181E+00
     13.123  0.1310E-01  0.5189E+00
     13.188  0.1188E-01  0.5197E+00
     13.254  0.1132E-01  0.5205E+00
     13.319  0.1041E-01  0.5211E+00
     13.384  0.8941E-02  0.5217E+00
     13.450  0.8690E-02  0.5223E+00
     13.515  0.1083E-01  0.5230E+00
     13.580  0.1292E-01  0.5238E+00
     13.646  0.1228E-01  0.5246E+00
     13.711  0.1064E-01  0.5253E+00
     13.776  0.9250E-02  0.5259E+00
     13.842  0.7820E-02  0.5265E+00
     13.907  0.7394E-02  0.5269E+00
     13.972  0.8764E-02  0.5275E+00
     14.038  0.1087E-01  0.5282E+00
     14.103  0.1264E-01  0.5290E+00
     14.168  0.1348E-01  0.5299E+00
     14.234  0.1270E-01  0.5308E+00
     14.299  0.1143E-01  0.5315E+00
     14.364  0.1053E-01  0.5322E+00
     14.430  0.9096E-02  0.5328E+00
     14.495  0.7292E-02  0.5333E+00
     14.560  0.7076E-02  0.5337E+00
     14.626  0.8467E-02  0.5343E+00
     14.691  0.9562E-02  0.5349E+00
     14.756  0.9882E-02  0.5355E+00
     14.821  0.9335E-02  0.5362E+00
     14.887  0.7890E-02  0.5367E+00
     14.952  0.6664E-02  0.5371E+00
     15.017  0.5636E-02  0.5375E+00
     15.083  0.4395E-02  0.5378E+00
     15.148  0.3512E-02  0.5380E+00
     15.213  0.3306E-02  0.5382E+00
     15.279  0.3432E-02  0.5384E+00
     15.344  0.3730E-02  0.5387E+00
     15.409  0.4114E-02  0.5389E+00
     15.475  0.3665E-02  0.5392E+00
     15.540  0.2231E-02  0.5393E+00
     15.605  0.1107E-02  0.5394E+00
     15.671  0.1005E-02  0.5395E+00
     15.736  0.1415E-02  0.5396E+00
     15.801  0.1858E-02  0.5397E+00
     15.867  0.1825E-02  0.5398E+00
     15.932  0.1114E-02  0.5399E+00
     15.997  0.4046E-03  0.5399E+00
     16.063  0.9014E-04  0.5399E+00
     16.128  0.1938E-04  0.5399E+00
     16.193  0.6194E-04  0.5399E+00
     16.259  0.2432E-03  0.5399E+00
     16.324  0.4609E-03  0.5400E+00
     16.389  0.4273E-03  0.5400E+00
     16.454  0.1988E-03  0.5400E+00
     16.520  0.4702E-04  0.5400E+00
     16.585  0.5592E-05  0.5400E+00
     16.650  0.3247E-06  0.5400E+00
     16.716  0.8891E-08  0.5400E+00
     16.781  0.1115E-09  0.5400E+00
     16.846  0.6269E-12  0.5400E+00
     16.912  0.1558E-14  0.5400E+00
     16.977  0.1692E-17  0.5400E+00
     17.042  0.0000E+00  0.5400E+00
     17.108  0.0000E+00  0.5400E+00
     17.173  0.0000E+00  0.5400E+00
     17.238  0.0000E+00  0.5400E+00
     17.304  0.0000E+00  0.5400E+00
     17.369  0.0000E+00  0.5400E+00
