       N       E                     dE             d eps       ncg     rms          rms(c)
DAV:   1     0.265727416050E+03    0.26573E+03   -0.22249E+04 91845   0.150E+03
DAV:   2    -0.847607557761E+01   -0.27420E+03   -0.26569E+03106398   0.316E+02
DAV:   3    -0.135289571404E+02   -0.50529E+01   -0.50159E+01101934   0.444E+01
DAV:   4    -0.135618146658E+02   -0.32858E-01   -0.32831E-01104553   0.375E+00
DAV:   5    -0.135621587494E+02   -0.34408E-03   -0.34406E-03107271   0.391E-01    0.117E+01
RMM:   6    -0.126109256987E+02    0.95123E+00   -0.27594E+00 91160   0.106E+01    0.811E+00
RMM:   7    -0.125736741282E+02    0.37252E-01   -0.21254E-01 91260   0.276E+00    0.448E+00
RMM:   8    -0.125687662067E+02    0.49079E-02   -0.82484E-03 91221   0.591E-01    0.471E-01
RMM:   9    -0.125685934257E+02    0.17278E-03   -0.51248E-04 91208   0.132E-01    0.359E-02
RMM:  10    -0.125686193899E+02   -0.25964E-04   -0.33882E-05 91247   0.421E-02    0.137E-02
RMM:  11    -0.125686200955E+02   -0.70561E-06   -0.16059E-06 51608   0.705E-03
   1 F= -.12568620E+02 E0= -.12565414E+02  d E =-.125686E+02
