   4   4   0   0
  0.1944486E+02  0.4268628E-09  0.4268628E-09  0.4268628E-09  0.2000000E-15
  1.000000000000000E-004
  CAR 
 unknown system                          
     17.16740849     -2.11419654  301      7.45732097      1.00000000
     -2.114  0.0000E+00  0.0000E+00
     -2.050  0.0000E+00  0.0000E+00
     -1.986  0.0000E+00  0.0000E+00
     -1.921  0.0000E+00  0.0000E+00
     -1.857  0.0000E+00  0.0000E+00
     -1.793  0.0000E+00  0.0000E+00
     -1.729  0.0000E+00  0.0000E+00
     -1.664  0.3378E-18  0.2171E-19
     -1.600  0.3093E-15  0.1990E-16
     -1.536  0.1253E-12  0.8074E-14
     -1.471  0.2327E-10  0.1504E-11
     -1.407  0.2026E-08  0.1317E-09
     -1.343  0.8525E-07  0.5611E-08
     -1.279  0.1801E-05  0.1213E-06
     -1.214  0.1988E-04  0.1399E-05
     -1.150  0.1191E-03  0.9053E-05
     -1.086  0.4025E-03  0.3492E-04
     -1.022  0.8270E-03  0.8807E-04
     -0.957  0.1244E-02  0.1680E-03
     -0.893  0.1688E-02  0.2765E-03
     -0.829  0.1968E-02  0.4030E-03
     -0.764  0.2029E-02  0.5335E-03
     -0.700  0.2397E-02  0.6875E-03
     -0.636  0.2820E-02  0.8687E-03
     -0.572  0.2934E-02  0.1057E-02
     -0.507  0.3054E-02  0.1254E-02
     -0.443  0.3044E-02  0.1449E-02
     -0.379  0.3218E-02  0.1656E-02
     -0.315  0.3928E-02  0.1908E-02
     -0.250  0.4363E-02  0.2189E-02
     -0.186  0.4278E-02  0.2464E-02
     -0.122  0.3758E-02  0.2705E-02
     -0.057  0.3739E-02  0.2946E-02
      0.007  0.4848E-02  0.3257E-02
      0.071  0.5661E-02  0.3621E-02
      0.135  0.5547E-02  0.3978E-02
      0.200  0.5156E-02  0.4309E-02
      0.264  0.5229E-02  0.4645E-02
      0.328  0.5821E-02  0.5019E-02
      0.392  0.6109E-02  0.5412E-02
      0.457  0.6162E-02  0.5808E-02
      0.521  0.6617E-02  0.6233E-02
      0.585  0.7755E-02  0.6732E-02
      0.650  0.8369E-02  0.7270E-02
      0.714  0.7893E-02  0.7777E-02
      0.778  0.7479E-02  0.8258E-02
      0.842  0.7675E-02  0.8751E-02
      0.907  0.9476E-02  0.9360E-02
      0.971  0.1202E-01  0.1013E-01
      1.035  0.1248E-01  0.1093E-01
      1.099  0.1180E-01  0.1169E-01
      1.164  0.1469E-01  0.1264E-01
      1.228  0.2070E-01  0.1397E-01
      1.292  0.2611E-01  0.1565E-01
      1.356  0.2930E-01  0.1753E-01
      1.421  0.2984E-01  0.1945E-01
      1.485  0.3192E-01  0.2150E-01
      1.549  0.3859E-01  0.2398E-01
      1.614  0.4568E-01  0.2691E-01
      1.678  0.5194E-01  0.3025E-01
      1.742  0.5960E-01  0.3408E-01
      1.806  0.6948E-01  0.3855E-01
      1.871  0.7847E-01  0.4359E-01
      1.935  0.8501E-01  0.4906E-01
      1.999  0.8840E-01  0.5474E-01
      2.063  0.8748E-01  0.6036E-01
      2.128  0.8590E-01  0.6588E-01
      2.192  0.8231E-01  0.7117E-01
      2.256  0.7878E-01  0.7624E-01
      2.321  0.7820E-01  0.8126E-01
      2.385  0.7541E-01  0.8611E-01
      2.449  0.7174E-01  0.9072E-01
      2.513  0.6655E-01  0.9500E-01
      2.578  0.6069E-01  0.9890E-01
      2.642  0.6125E-01  0.1028E+00
      2.706  0.6653E-01  0.1071E+00
      2.770  0.7429E-01  0.1119E+00
      2.835  0.8400E-01  0.1173E+00
      2.899  0.9310E-01  0.1233E+00
      2.963  0.9884E-01  0.1296E+00
      3.028  0.9953E-01  0.1360E+00
      3.092  0.9768E-01  0.1423E+00
      3.156  0.9934E-01  0.1487E+00
      3.220  0.1024E+00  0.1553E+00
      3.285  0.1028E+00  0.1619E+00
      3.349  0.1038E+00  0.1685E+00
      3.413  0.1097E+00  0.1756E+00
      3.477  0.1219E+00  0.1834E+00
      3.542  0.1398E+00  0.1924E+00
      3.606  0.1555E+00  0.2024E+00
      3.670  0.1581E+00  0.2126E+00
      3.735  0.1419E+00  0.2217E+00
      3.799  0.1171E+00  0.2292E+00
      3.863  0.9996E-01  0.2356E+00
      3.927  0.9106E-01  0.2415E+00
      3.992  0.8672E-01  0.2471E+00
      4.056  0.8336E-01  0.2524E+00
      4.120  0.8051E-01  0.2576E+00
      4.184  0.8186E-01  0.2629E+00
      4.249  0.8844E-01  0.2685E+00
      4.313  0.9736E-01  0.2748E+00
      4.377  0.1035E+00  0.2815E+00
      4.442  0.1064E+00  0.2883E+00
      4.506  0.1082E+00  0.2952E+00
      4.570  0.1072E+00  0.3021E+00
      4.634  0.1013E+00  0.3086E+00
      4.699  0.9470E-01  0.3147E+00
      4.763  0.9323E-01  0.3207E+00
      4.827  0.9175E-01  0.3266E+00
      4.891  0.8626E-01  0.3322E+00
      4.956  0.8125E-01  0.3374E+00
      5.020  0.8151E-01  0.3426E+00
      5.084  0.8491E-01  0.3481E+00
      5.149  0.8664E-01  0.3537E+00
      5.213  0.9009E-01  0.3594E+00
      5.277  0.9836E-01  0.3658E+00
      5.341  0.1066E+00  0.3726E+00
      5.406  0.1201E+00  0.3803E+00
      5.470  0.1397E+00  0.3893E+00
      5.534  0.1432E+00  0.3985E+00
      5.598  0.1211E+00  0.4063E+00
      5.663  0.8831E-01  0.4120E+00
      5.727  0.5988E-01  0.4158E+00
      5.791  0.4062E-01  0.4184E+00
      5.856  0.2890E-01  0.4203E+00
      5.920  0.2158E-01  0.4217E+00
      5.984  0.1441E-01  0.4226E+00
      6.048  0.9288E-02  0.4232E+00
      6.113  0.8747E-02  0.4238E+00
      6.177  0.1203E-01  0.4245E+00
      6.241  0.1550E-01  0.4255E+00
      6.305  0.1456E-01  0.4265E+00
      6.370  0.1083E-01  0.4272E+00
      6.434  0.8709E-02  0.4277E+00
      6.498  0.9443E-02  0.4283E+00
      6.563  0.1260E-01  0.4291E+00
      6.627  0.1577E-01  0.4302E+00
      6.691  0.1533E-01  0.4311E+00
      6.755  0.1255E-01  0.4319E+00
      6.820  0.1043E-01  0.4326E+00
      6.884  0.8858E-02  0.4332E+00
      6.948  0.8750E-02  0.4337E+00
      7.012  0.1113E-01  0.4345E+00
      7.077  0.1512E-01  0.4354E+00
      7.141  0.1717E-01  0.4365E+00
      7.205  0.1532E-01  0.4375E+00
      7.270  0.1195E-01  0.4383E+00
      7.334  0.9470E-02  0.4389E+00
      7.398  0.8415E-02  0.4394E+00
      7.462  0.9616E-02  0.4401E+00
      7.527  0.1254E-01  0.4409E+00
      7.591  0.1379E-01  0.4417E+00
      7.655  0.1414E-01  0.4427E+00
      7.719  0.1454E-01  0.4436E+00
      7.784  0.1373E-01  0.4445E+00
      7.848  0.1241E-01  0.4453E+00
      7.912  0.1115E-01  0.4460E+00
      7.977  0.1057E-01  0.4467E+00
      8.041  0.1070E-01  0.4474E+00
      8.105  0.1140E-01  0.4481E+00
      8.169  0.1199E-01  0.4489E+00
      8.234  0.1251E-01  0.4497E+00
      8.298  0.1305E-01  0.4505E+00
      8.362  0.1292E-01  0.4513E+00
      8.426  0.1185E-01  0.4521E+00
      8.491  0.1078E-01  0.4528E+00
      8.555  0.1130E-01  0.4535E+00
      8.619  0.1271E-01  0.4543E+00
      8.684  0.1359E-01  0.4552E+00
      8.748  0.1331E-01  0.4561E+00
      8.812  0.1184E-01  0.4568E+00
      8.876  0.9912E-02  0.4575E+00
      8.941  0.9928E-02  0.4581E+00
      9.005  0.1136E-01  0.4588E+00
      9.069  0.1217E-01  0.4596E+00
      9.133  0.1303E-01  0.4604E+00
      9.198  0.1342E-01  0.4613E+00
      9.262  0.1285E-01  0.4621E+00
      9.326  0.1136E-01  0.4629E+00
      9.390  0.9860E-02  0.4635E+00
      9.455  0.9232E-02  0.4641E+00
      9.519  0.1046E-01  0.4648E+00
      9.583  0.1343E-01  0.4656E+00
      9.648  0.1452E-01  0.4666E+00
      9.712  0.1279E-01  0.4674E+00
      9.776  0.1108E-01  0.4681E+00
      9.840  0.1208E-01  0.4689E+00
      9.905  0.1628E-01  0.4699E+00
      9.969  0.1967E-01  0.4712E+00
     10.033  0.1975E-01  0.4724E+00
     10.097  0.1840E-01  0.4736E+00
     10.162  0.1642E-01  0.4747E+00
     10.226  0.1449E-01  0.4756E+00
     10.290  0.1427E-01  0.4765E+00
     10.355  0.1526E-01  0.4775E+00
     10.419  0.1506E-01  0.4785E+00
     10.483  0.1375E-01  0.4794E+00
     10.547  0.1414E-01  0.4803E+00
     10.612  0.1526E-01  0.4813E+00
     10.676  0.1341E-01  0.4821E+00
     10.740  0.1003E-01  0.4828E+00
     10.804  0.8348E-02  0.4833E+00
     10.869  0.9869E-02  0.4839E+00
     10.933  0.1227E-01  0.4847E+00
     10.997  0.1265E-01  0.4855E+00
     11.062  0.1252E-01  0.4863E+00
     11.126  0.1193E-01  0.4871E+00
     11.190  0.9717E-02  0.4877E+00
     11.254  0.7838E-02  0.4882E+00
     11.319  0.7503E-02  0.4887E+00
     11.383  0.8805E-02  0.4893E+00
     11.447  0.1109E-01  0.4900E+00
     11.511  0.1290E-01  0.4908E+00
     11.576  0.1332E-01  0.4917E+00
     11.640  0.1337E-01  0.4925E+00
     11.704  0.1362E-01  0.4934E+00
     11.769  0.1289E-01  0.4942E+00
     11.833  0.1226E-01  0.4950E+00
     11.897  0.1213E-01  0.4958E+00
     11.961  0.1270E-01  0.4966E+00
     12.026  0.1565E-01  0.4976E+00
     12.090  0.1730E-01  0.4987E+00
     12.154  0.1540E-01  0.4997E+00
     12.218  0.1383E-01  0.5006E+00
     12.283  0.1384E-01  0.5015E+00
     12.347  0.1433E-01  0.5024E+00
     12.411  0.1558E-01  0.5034E+00
     12.476  0.1784E-01  0.5046E+00
     12.540  0.1899E-01  0.5058E+00
     12.604  0.1737E-01  0.5069E+00
     12.668  0.1606E-01  0.5080E+00
     12.733  0.1603E-01  0.5090E+00
     12.797  0.1421E-01  0.5099E+00
     12.861  0.1072E-01  0.5106E+00
     12.925  0.8594E-02  0.5111E+00
     12.990  0.8925E-02  0.5117E+00
     13.054  0.1047E-01  0.5124E+00
     13.118  0.1220E-01  0.5132E+00
     13.183  0.1412E-01  0.5141E+00
     13.247  0.1437E-01  0.5150E+00
     13.311  0.1250E-01  0.5158E+00
     13.375  0.1066E-01  0.5165E+00
     13.440  0.9077E-02  0.5171E+00
     13.504  0.8199E-02  0.5176E+00
     13.568  0.1068E-01  0.5183E+00
     13.632  0.1445E-01  0.5192E+00
     13.697  0.1492E-01  0.5202E+00
     13.761  0.1328E-01  0.5210E+00
     13.825  0.1213E-01  0.5218E+00
     13.890  0.1098E-01  0.5225E+00
     13.954  0.9928E-02  0.5231E+00
     14.018  0.1107E-01  0.5239E+00
     14.082  0.1322E-01  0.5247E+00
     14.147  0.1272E-01  0.5255E+00
     14.211  0.9819E-02  0.5262E+00
     14.275  0.8688E-02  0.5267E+00
     14.339  0.1017E-01  0.5274E+00
     14.404  0.1047E-01  0.5280E+00
     14.468  0.8748E-02  0.5286E+00
     14.532  0.8643E-02  0.5292E+00
     14.597  0.1161E-01  0.5299E+00
     14.661  0.1631E-01  0.5310E+00
     14.725  0.1897E-01  0.5322E+00
     14.789  0.1553E-01  0.5332E+00
     14.854  0.1003E-01  0.5338E+00
     14.918  0.8414E-02  0.5344E+00
     14.982  0.8756E-02  0.5349E+00
     15.046  0.7880E-02  0.5354E+00
     15.111  0.6570E-02  0.5358E+00
     15.175  0.6725E-02  0.5363E+00
     15.239  0.8952E-02  0.5369E+00
     15.304  0.9899E-02  0.5375E+00
     15.368  0.6830E-02  0.5379E+00
     15.432  0.3409E-02  0.5381E+00
     15.496  0.2042E-02  0.5383E+00
     15.561  0.2154E-02  0.5384E+00
     15.625  0.2588E-02  0.5386E+00
     15.689  0.2844E-02  0.5388E+00
     15.753  0.3355E-02  0.5390E+00
     15.818  0.3606E-02  0.5392E+00
     15.882  0.3136E-02  0.5394E+00
     15.946  0.2419E-02  0.5396E+00
     16.011  0.1695E-02  0.5397E+00
     16.075  0.1347E-02  0.5398E+00
     16.139  0.1564E-02  0.5399E+00
     16.203  0.1332E-02  0.5400E+00
     16.268  0.5788E-03  0.5400E+00
     16.332  0.1214E-03  0.5400E+00
     16.396  0.1218E-04  0.5400E+00
     16.460  0.5812E-06  0.5400E+00
     16.525  0.1310E-07  0.5400E+00
     16.589  0.1381E-09  0.5400E+00
     16.653  0.6746E-12  0.5400E+00
     16.718  0.1512E-14  0.5400E+00
     16.782  0.1474E-17  0.5400E+00
     16.846  0.0000E+00  0.5400E+00
     16.910  0.0000E+00  0.5400E+00
     16.975  0.0000E+00  0.5400E+00
     17.039  0.0000E+00  0.5400E+00
     17.103  0.0000E+00  0.5400E+00
     17.167  0.0000E+00  0.5400E+00
