       N       E                     dE             d eps       ncg     rms          rms(c)
DAV:   1     0.267422618290E+03    0.26742E+03   -0.22365E+04 91962   0.150E+03
DAV:   2    -0.871067631931E+01   -0.27613E+03   -0.26786E+03106191   0.318E+02
DAV:   3    -0.136801505331E+02   -0.49695E+01   -0.49303E+01101484   0.445E+01
DAV:   4    -0.137116048293E+02   -0.31454E-01   -0.31438E-01104085   0.369E+00
DAV:   5    -0.137119144291E+02   -0.30960E-03   -0.30959E-03106632   0.382E-01    0.125E+01
RMM:   6    -0.127553113701E+02    0.95660E+00   -0.27147E+00 91160   0.106E+01    0.854E+00
RMM:   7    -0.127137713919E+02    0.41540E-01   -0.23132E-01 91256   0.291E+00    0.459E+00
RMM:   8    -0.127083023591E+02    0.54690E-02   -0.89216E-03 91200   0.611E-01    0.486E-01
RMM:   9    -0.127081370606E+02    0.16530E-03   -0.45579E-04 91201   0.125E-01    0.411E-02
RMM:  10    -0.127081596971E+02   -0.22637E-04   -0.30788E-05 91185   0.407E-02    0.171E-02
RMM:  11    -0.127081605764E+02   -0.87924E-06   -0.14468E-06 51167   0.686E-03
   1 F= -.12708161E+02 E0= -.12705453E+02  d E =-.127082E+02
