   4   4   0   0
  0.1841795E+02  0.4268628E-09  0.4154382E-09  0.4154382E-09  0.2000000E-15
  1.000000000000000E-004
  CAR 
 unknown system                          
     18.43093682     -1.82932095  301      8.25673094      1.00000000
     -1.829  0.0000E+00  0.0000E+00
     -1.762  0.0000E+00  0.0000E+00
     -1.694  0.0000E+00  0.0000E+00
     -1.627  0.0000E+00  0.0000E+00
     -1.559  0.0000E+00  0.0000E+00
     -1.492  0.0000E+00  0.0000E+00
     -1.424  0.0000E+00  0.0000E+00
     -1.357  0.3994E-17  0.2697E-18
     -1.289  0.3662E-14  0.2476E-15
     -1.222  0.1400E-11  0.9478E-13
     -1.154  0.2278E-09  0.1548E-10
     -1.086  0.1629E-07  0.1116E-08
     -1.019  0.5337E-06  0.3716E-07
     -0.951  0.8432E-05  0.6066E-06
     -0.884  0.6754E-04  0.5168E-05
     -0.816  0.2869E-03  0.2454E-04
     -0.749  0.6866E-03  0.7091E-04
     -0.681  0.1087E-02  0.1443E-03
     -0.614  0.1506E-02  0.2460E-03
     -0.546  0.1866E-02  0.3721E-03
     -0.479  0.1899E-02  0.5003E-03
     -0.411  0.2159E-02  0.6462E-03
     -0.344  0.2642E-02  0.8246E-03
     -0.276  0.2780E-02  0.1012E-02
     -0.209  0.2897E-02  0.1208E-02
     -0.141  0.2944E-02  0.1407E-02
     -0.073  0.2950E-02  0.1606E-02
     -0.006  0.3587E-02  0.1848E-02
      0.062  0.4139E-02  0.2128E-02
      0.129  0.4164E-02  0.2409E-02
      0.197  0.3726E-02  0.2661E-02
      0.264  0.3475E-02  0.2895E-02
      0.332  0.4401E-02  0.3192E-02
      0.399  0.5348E-02  0.3554E-02
      0.467  0.5365E-02  0.3916E-02
      0.534  0.4950E-02  0.4250E-02
      0.602  0.4965E-02  0.4586E-02
      0.669  0.5585E-02  0.4963E-02
      0.737  0.5919E-02  0.5363E-02
      0.805  0.5867E-02  0.5759E-02
      0.872  0.6163E-02  0.6175E-02
      0.940  0.7209E-02  0.6662E-02
      1.007  0.8082E-02  0.7208E-02
      1.075  0.7774E-02  0.7733E-02
      1.142  0.7289E-02  0.8225E-02
      1.210  0.7403E-02  0.8725E-02
      1.277  0.8938E-02  0.9328E-02
      1.345  0.1138E-01  0.1010E-01
      1.412  0.1204E-01  0.1091E-01
      1.480  0.1164E-01  0.1170E-01
      1.547  0.1462E-01  0.1268E-01
      1.615  0.2080E-01  0.1409E-01
      1.682  0.2591E-01  0.1584E-01
      1.750  0.2822E-01  0.1774E-01
      1.818  0.2884E-01  0.1969E-01
      1.885  0.3206E-01  0.2186E-01
      1.953  0.3883E-01  0.2448E-01
      2.020  0.4528E-01  0.2754E-01
      2.088  0.5088E-01  0.3097E-01
      2.155  0.5762E-01  0.3486E-01
      2.223  0.6666E-01  0.3937E-01
      2.290  0.7497E-01  0.4443E-01
      2.358  0.8025E-01  0.4985E-01
      2.425  0.8242E-01  0.5542E-01
      2.493  0.8149E-01  0.6092E-01
      2.560  0.8004E-01  0.6632E-01
      2.628  0.7616E-01  0.7147E-01
      2.695  0.7321E-01  0.7641E-01
      2.763  0.7321E-01  0.8136E-01
      2.831  0.7031E-01  0.8610E-01
      2.898  0.6672E-01  0.9061E-01
      2.966  0.6220E-01  0.9481E-01
      3.033  0.5585E-01  0.9858E-01
      3.101  0.5563E-01  0.1023E+00
      3.168  0.6105E-01  0.1065E+00
      3.236  0.6753E-01  0.1110E+00
      3.303  0.7548E-01  0.1161E+00
      3.371  0.8410E-01  0.1218E+00
      3.438  0.8929E-01  0.1278E+00
      3.506  0.9089E-01  0.1340E+00
      3.573  0.8911E-01  0.1400E+00
      3.641  0.8966E-01  0.1460E+00
      3.708  0.9396E-01  0.1524E+00
      3.776  0.9660E-01  0.1589E+00
      3.844  0.9611E-01  0.1654E+00
      3.911  0.9394E-01  0.1717E+00
      3.979  0.9744E-01  0.1783E+00
      4.046  0.1127E+00  0.1859E+00
      4.114  0.1313E+00  0.1948E+00
      4.181  0.1383E+00  0.2041E+00
      4.249  0.1348E+00  0.2132E+00
      4.316  0.1258E+00  0.2217E+00
      4.384  0.1102E+00  0.2292E+00
      4.451  0.9446E-01  0.2356E+00
      4.519  0.8475E-01  0.2413E+00
      4.586  0.7853E-01  0.2466E+00
      4.654  0.7539E-01  0.2517E+00
      4.721  0.7395E-01  0.2567E+00
      4.789  0.7484E-01  0.2617E+00
      4.857  0.7919E-01  0.2671E+00
      4.924  0.8635E-01  0.2729E+00
      4.992  0.9320E-01  0.2792E+00
      5.059  0.9545E-01  0.2856E+00
      5.127  0.9626E-01  0.2922E+00
      5.194  0.9693E-01  0.2987E+00
      5.262  0.9341E-01  0.3050E+00
      5.329  0.8735E-01  0.3109E+00
      5.397  0.8564E-01  0.3167E+00
      5.464  0.8578E-01  0.3225E+00
      5.532  0.8230E-01  0.3280E+00
      5.599  0.7608E-01  0.3332E+00
      5.667  0.7183E-01  0.3380E+00
      5.735  0.7384E-01  0.3430E+00
      5.802  0.7841E-01  0.3483E+00
      5.870  0.7885E-01  0.3536E+00
      5.937  0.7946E-01  0.3590E+00
      6.005  0.8707E-01  0.3649E+00
      6.072  0.9470E-01  0.3713E+00
      6.140  0.1040E+00  0.3783E+00
      6.207  0.1218E+00  0.3865E+00
      6.275  0.1332E+00  0.3955E+00
      6.342  0.1211E+00  0.4037E+00
      6.410  0.9236E-01  0.4099E+00
      6.477  0.6413E-01  0.4143E+00
      6.545  0.4453E-01  0.4173E+00
      6.612  0.3384E-01  0.4196E+00
      6.680  0.2694E-01  0.4214E+00
      6.748  0.1811E-01  0.4226E+00
      6.815  0.1028E-01  0.4233E+00
      6.883  0.7659E-02  0.4238E+00
      6.950  0.1020E-01  0.4245E+00
      7.018  0.1357E-01  0.4254E+00
      7.085  0.1405E-01  0.4264E+00
      7.153  0.1241E-01  0.4272E+00
      7.220  0.1032E-01  0.4279E+00
      7.288  0.9637E-02  0.4286E+00
      7.355  0.1174E-01  0.4294E+00
      7.423  0.1374E-01  0.4303E+00
      7.490  0.1330E-01  0.4312E+00
      7.558  0.1195E-01  0.4320E+00
      7.625  0.1024E-01  0.4327E+00
      7.693  0.9241E-02  0.4333E+00
      7.761  0.1094E-01  0.4340E+00
      7.828  0.1420E-01  0.4350E+00
      7.896  0.1460E-01  0.4360E+00
      7.963  0.1285E-01  0.4369E+00
      8.031  0.1162E-01  0.4376E+00
      8.098  0.1049E-01  0.4383E+00
      8.166  0.1003E-01  0.4390E+00
      8.233  0.1059E-01  0.4397E+00
      8.301  0.1150E-01  0.4405E+00
      8.368  0.1215E-01  0.4413E+00
      8.436  0.1270E-01  0.4422E+00
      8.503  0.1362E-01  0.4431E+00
      8.571  0.1359E-01  0.4440E+00
      8.638  0.1237E-01  0.4449E+00
      8.706  0.1127E-01  0.4456E+00
      8.774  0.1035E-01  0.4463E+00
      8.841  0.9694E-02  0.4470E+00
      8.909  0.1006E-01  0.4477E+00
      8.976  0.1160E-01  0.4484E+00
      9.044  0.1265E-01  0.4493E+00
      9.111  0.1266E-01  0.4502E+00
      9.179  0.1238E-01  0.4510E+00
      9.246  0.1207E-01  0.4518E+00
      9.314  0.1141E-01  0.4526E+00
      9.381  0.1125E-01  0.4533E+00
      9.449  0.1186E-01  0.4541E+00
      9.516  0.1182E-01  0.4549E+00
      9.584  0.1160E-01  0.4557E+00
      9.651  0.1132E-01  0.4565E+00
      9.719  0.1033E-01  0.4572E+00
      9.787  0.9963E-02  0.4579E+00
      9.854  0.1096E-01  0.4586E+00
      9.922  0.1215E-01  0.4594E+00
      9.989  0.1238E-01  0.4602E+00
     10.057  0.1181E-01  0.4610E+00
     10.124  0.1134E-01  0.4618E+00
     10.192  0.1067E-01  0.4625E+00
     10.259  0.9867E-02  0.4632E+00
     10.327  0.1050E-01  0.4639E+00
     10.394  0.1149E-01  0.4647E+00
     10.462  0.1103E-01  0.4654E+00
     10.529  0.1049E-01  0.4661E+00
     10.597  0.1036E-01  0.4668E+00
     10.665  0.9899E-02  0.4675E+00
     10.732  0.1014E-01  0.4682E+00
     10.800  0.1151E-01  0.4690E+00
     10.867  0.1321E-01  0.4699E+00
     10.935  0.1618E-01  0.4710E+00
     11.002  0.1920E-01  0.4722E+00
     11.070  0.1899E-01  0.4735E+00
     11.137  0.1699E-01  0.4747E+00
     11.205  0.1565E-01  0.4757E+00
     11.272  0.1550E-01  0.4768E+00
     11.340  0.1566E-01  0.4778E+00
     11.407  0.1492E-01  0.4788E+00
     11.475  0.1370E-01  0.4798E+00
     11.542  0.1289E-01  0.4806E+00
     11.610  0.1248E-01  0.4815E+00
     11.678  0.1254E-01  0.4823E+00
     11.745  0.1175E-01  0.4831E+00
     11.813  0.9906E-02  0.4838E+00
     11.880  0.9422E-02  0.4844E+00
     11.948  0.1109E-01  0.4852E+00
     12.015  0.1291E-01  0.4861E+00
     12.083  0.1217E-01  0.4869E+00
     12.150  0.1020E-01  0.4876E+00
     12.218  0.9846E-02  0.4882E+00
     12.285  0.1058E-01  0.4889E+00
     12.353  0.1019E-01  0.4896E+00
     12.420  0.8851E-02  0.4902E+00
     12.488  0.9374E-02  0.4909E+00
     12.555  0.1145E-01  0.4916E+00
     12.623  0.1316E-01  0.4925E+00
     12.691  0.1365E-01  0.4934E+00
     12.758  0.1376E-01  0.4944E+00
     12.826  0.1409E-01  0.4953E+00
     12.893  0.1357E-01  0.4962E+00
     12.961  0.1297E-01  0.4971E+00
     13.028  0.1289E-01  0.4980E+00
     13.096  0.1387E-01  0.4989E+00
     13.163  0.1491E-01  0.4999E+00
     13.231  0.1435E-01  0.5009E+00
     13.298  0.1402E-01  0.5018E+00
     13.366  0.1474E-01  0.5028E+00
     13.433  0.1511E-01  0.5039E+00
     13.501  0.1533E-01  0.5049E+00
     13.568  0.1558E-01  0.5060E+00
     13.636  0.1532E-01  0.5070E+00
     13.704  0.1521E-01  0.5080E+00
     13.771  0.1431E-01  0.5090E+00
     13.839  0.1286E-01  0.5098E+00
     13.906  0.1263E-01  0.5107E+00
     13.974  0.1226E-01  0.5115E+00
     14.041  0.1077E-01  0.5123E+00
     14.109  0.9957E-02  0.5129E+00
     14.176  0.1070E-01  0.5137E+00
     14.244  0.1197E-01  0.5145E+00
     14.311  0.1299E-01  0.5153E+00
     14.379  0.1302E-01  0.5162E+00
     14.446  0.1185E-01  0.5170E+00
     14.514  0.1085E-01  0.5177E+00
     14.581  0.1011E-01  0.5184E+00
     14.649  0.9375E-02  0.5191E+00
     14.717  0.9553E-02  0.5197E+00
     14.784  0.1131E-01  0.5205E+00
     14.852  0.1298E-01  0.5214E+00
     14.919  0.1220E-01  0.5222E+00
     14.987  0.9843E-02  0.5228E+00
     15.054  0.8594E-02  0.5234E+00
     15.122  0.9588E-02  0.5241E+00
     15.189  0.1135E-01  0.5248E+00
     15.257  0.1249E-01  0.5257E+00
     15.324  0.1222E-01  0.5265E+00
     15.392  0.1132E-01  0.5273E+00
     15.459  0.1233E-01  0.5281E+00
     15.527  0.1318E-01  0.5290E+00
     15.595  0.1158E-01  0.5298E+00
     15.662  0.9691E-02  0.5304E+00
     15.730  0.8849E-02  0.5310E+00
     15.797  0.9269E-02  0.5317E+00
     15.865  0.1109E-01  0.5324E+00
     15.932  0.1278E-01  0.5333E+00
     16.000  0.1259E-01  0.5341E+00
     16.067  0.1100E-01  0.5349E+00
     16.135  0.9325E-02  0.5355E+00
     16.202  0.7747E-02  0.5360E+00
     16.270  0.6286E-02  0.5364E+00
     16.337  0.5147E-02  0.5368E+00
     16.405  0.5109E-02  0.5371E+00
     16.472  0.6619E-02  0.5376E+00
     16.540  0.7571E-02  0.5381E+00
     16.608  0.5537E-02  0.5385E+00
     16.675  0.2679E-02  0.5386E+00
     16.743  0.1622E-02  0.5387E+00
     16.810  0.1931E-02  0.5389E+00
     16.878  0.2354E-02  0.5390E+00
     16.945  0.2695E-02  0.5392E+00
     17.013  0.3101E-02  0.5394E+00
     17.080  0.2661E-02  0.5396E+00
     17.148  0.1575E-02  0.5397E+00
     17.215  0.8933E-03  0.5398E+00
     17.283  0.6860E-03  0.5398E+00
     17.350  0.7895E-03  0.5399E+00
     17.418  0.9094E-03  0.5399E+00
     17.485  0.6490E-03  0.5400E+00
     17.553  0.2385E-03  0.5400E+00
     17.621  0.4106E-04  0.5400E+00
     17.688  0.3132E-05  0.5400E+00
     17.756  0.1027E-06  0.5400E+00
     17.823  0.1425E-08  0.5400E+00
     17.891  0.8269E-11  0.5400E+00
     17.958  0.1994E-13  0.5400E+00
     18.026  0.1991E-16  0.5400E+00
     18.093  0.0000E+00  0.5400E+00
     18.161  0.0000E+00  0.5400E+00
     18.228  0.0000E+00  0.5400E+00
     18.296  0.0000E+00  0.5400E+00
     18.363  0.0000E+00  0.5400E+00
     18.431  0.0000E+00  0.5400E+00
