 running on   24 total cores
 distrk:  each k-point on   24 cores,    1 groups
 distr:  one band on    8 cores,    3 groups
 using from now: INCAR     
 vasp.5.4.4.18Apr17-6-g9f103f2a35 (build Jan 14 2019 14:48:31) complex          
  
 POSCAR found type information on POSCAR  Au
 POSCAR found :  1 types and       4 ions
 scaLAPACK will be used
 LDA part: xc-table for Pade appr. of Perdew
 POSCAR found type information on POSCAR  Au
 POSCAR found :  1 types and       4 ions
 POSCAR, INCAR and KPOINTS ok, starting setup
 FFT: planning ...
 WAVECAR not read
 entering main loop
       N       E                     dE             d eps       ncg     rms          rms(c)
DAV:   1     0.271889064753E+03    0.27189E+03   -0.22508E+04 91863   0.151E+03
DAV:   2    -0.889851975755E+01   -0.28079E+03   -0.27274E+03105759   0.324E+02
DAV:   3    -0.138727249547E+02   -0.49742E+01   -0.49418E+01101493   0.452E+01
DAV:   4    -0.139028107904E+02   -0.30086E-01   -0.30068E-01104751   0.365E+00
DAV:   5    -0.139031015237E+02   -0.29073E-03   -0.29071E-03107424   0.372E-01    0.147E+01
RMM:   6    -0.129249359390E+02    0.97817E+00   -0.26238E+00 91156   0.106E+01    0.973E+00
RMM:   7    -0.128712343239E+02    0.53702E-01   -0.28802E-01 91211   0.333E+00    0.474E+00
RMM:   8    -0.128639128282E+02    0.73215E-02   -0.12594E-02 91217   0.724E-01    0.519E-01
RMM:   9    -0.128637831304E+02    0.12970E-03   -0.31695E-04 91236   0.101E-01    0.394E-02
RMM:  10    -0.128638003693E+02   -0.17239E-04   -0.20320E-05 91211   0.345E-02    0.277E-02
RMM:  11    -0.128638019844E+02   -0.16151E-05   -0.83881E-07 50593   0.523E-03    0.590E-04
RMM:  12    -0.128638018795E+02    0.10487E-06   -0.13633E-07 43965   0.235E-03
   1 F= -.12863802E+02 E0= -.12860959E+02  d E =-.128638E+02
 curvature:   0.00 expect dE= 0.000E+00 dE for cont linesearch  0.000E+00
 trial: gam= 0.00000 g(F)=  0.601E-14 g(S)=  0.000E+00 ort = 0.000E+00 (trialstep = 0.100E+01)
 search vector abs. value=  0.100E-09
 reached required accuracy - stopping structural energy minimisation
