   4   4   0   0
  0.1701887E+02  0.4083165E-09  0.4083164E-09  0.4083164E-09  0.2000000E-15
  1.000000000000000E-004
  CAR 
 unknown system                          
     20.09457670     -1.37314994  301      9.53293483      1.00000000
     -1.373  0.0000E+00  0.0000E+00
     -1.302  0.0000E+00  0.0000E+00
     -1.230  0.0000E+00  0.0000E+00
     -1.158  0.0000E+00  0.0000E+00
     -1.087  0.0000E+00  0.0000E+00
     -1.015  0.0000E+00  0.0000E+00
     -0.944  0.2758E-19  0.1974E-20
     -0.872  0.7144E-16  0.5114E-17
     -0.801  0.6431E-13  0.4607E-14
     -0.729  0.2181E-10  0.1565E-11
     -0.658  0.2870E-08  0.2069E-09
     -0.586  0.1535E-06  0.1119E-07
     -0.514  0.3557E-05  0.2657E-06
     -0.443  0.3831E-04  0.3007E-05
     -0.371  0.2040E-03  0.1760E-04
     -0.300  0.5689E-03  0.5832E-04
     -0.228  0.9480E-03  0.1262E-03
     -0.157  0.1311E-02  0.2200E-03
     -0.085  0.1729E-02  0.3437E-03
     -0.014  0.1763E-02  0.4699E-03
      0.058  0.1872E-02  0.6039E-03
      0.130  0.2412E-02  0.7765E-03
      0.201  0.2603E-02  0.9628E-03
      0.273  0.2650E-02  0.1152E-02
      0.344  0.2792E-02  0.1352E-02
      0.416  0.2637E-02  0.1541E-02
      0.487  0.3134E-02  0.1765E-02
      0.559  0.3840E-02  0.2040E-02
      0.631  0.3979E-02  0.2325E-02
      0.702  0.3701E-02  0.2589E-02
      0.774  0.3072E-02  0.2809E-02
      0.845  0.3666E-02  0.3072E-02
      0.917  0.4961E-02  0.3427E-02
      0.988  0.5196E-02  0.3798E-02
      1.060  0.4806E-02  0.4142E-02
      1.131  0.4515E-02  0.4465E-02
      1.203  0.4967E-02  0.4821E-02
      1.275  0.5522E-02  0.5216E-02
      1.346  0.5584E-02  0.5616E-02
      1.418  0.5651E-02  0.6020E-02
      1.489  0.6366E-02  0.6476E-02
      1.561  0.7684E-02  0.7025E-02
      1.632  0.7570E-02  0.7567E-02
      1.704  0.6952E-02  0.8065E-02
      1.775  0.6754E-02  0.8548E-02
      1.847  0.7643E-02  0.9095E-02
      1.919  0.1039E-01  0.9838E-02
      1.990  0.1219E-01  0.1071E-01
      2.062  0.1140E-01  0.1153E-01
      2.133  0.1327E-01  0.1248E-01
      2.205  0.1973E-01  0.1389E-01
      2.276  0.2490E-01  0.1567E-01
      2.348  0.2701E-01  0.1760E-01
      2.419  0.2767E-01  0.1958E-01
      2.491  0.3032E-01  0.2175E-01
      2.563  0.3724E-01  0.2442E-01
      2.634  0.4369E-01  0.2754E-01
      2.706  0.4865E-01  0.3102E-01
      2.777  0.5396E-01  0.3489E-01
      2.849  0.6143E-01  0.3928E-01
      2.920  0.6930E-01  0.4424E-01
      2.992  0.7375E-01  0.4952E-01
      3.064  0.7446E-01  0.5485E-01
      3.135  0.7355E-01  0.6011E-01
      3.207  0.7322E-01  0.6535E-01
      3.278  0.6901E-01  0.7029E-01
      3.350  0.6520E-01  0.7495E-01
      3.421  0.6689E-01  0.7974E-01
      3.493  0.6504E-01  0.8439E-01
      3.564  0.6138E-01  0.8879E-01
      3.636  0.5921E-01  0.9302E-01
      3.708  0.5186E-01  0.9673E-01
      3.779  0.4762E-01  0.1001E+00
      3.851  0.5143E-01  0.1038E+00
      3.922  0.5618E-01  0.1078E+00
      3.994  0.6143E-01  0.1122E+00
      4.065  0.6821E-01  0.1171E+00
      4.137  0.7397E-01  0.1224E+00
      4.208  0.7681E-01  0.1279E+00
      4.280  0.7873E-01  0.1335E+00
      4.352  0.7591E-01  0.1390E+00
      4.423  0.7525E-01  0.1444E+00
      4.495  0.7987E-01  0.1501E+00
      4.566  0.8278E-01  0.1560E+00
      4.638  0.8221E-01  0.1619E+00
      4.709  0.8124E-01  0.1677E+00
      4.781  0.8479E-01  0.1738E+00
      4.852  0.9350E-01  0.1805E+00
      4.924  0.1056E+00  0.1880E+00
      4.996  0.1158E+00  0.1963E+00
      5.067  0.1241E+00  0.2052E+00
      5.139  0.1290E+00  0.2144E+00
      5.210  0.1168E+00  0.2228E+00
      5.282  0.9466E-01  0.2295E+00
      5.353  0.8252E-01  0.2354E+00
      5.425  0.7482E-01  0.2408E+00
      5.497  0.6830E-01  0.2457E+00
      5.568  0.6612E-01  0.2504E+00
      5.640  0.6433E-01  0.2550E+00
      5.711  0.6291E-01  0.2595E+00
      5.783  0.6410E-01  0.2641E+00
      5.854  0.6798E-01  0.2690E+00
      5.926  0.7634E-01  0.2744E+00
      5.997  0.8121E-01  0.2802E+00
      6.069  0.7908E-01  0.2859E+00
      6.141  0.8181E-01  0.2918E+00
      6.212  0.8778E-01  0.2980E+00
      6.284  0.8606E-01  0.3042E+00
      6.355  0.7735E-01  0.3097E+00
      6.427  0.7210E-01  0.3149E+00
      6.498  0.7384E-01  0.3202E+00
      6.570  0.7336E-01  0.3254E+00
      6.641  0.6763E-01  0.3303E+00
      6.713  0.6038E-01  0.3346E+00
      6.785  0.5973E-01  0.3389E+00
      6.856  0.6530E-01  0.3435E+00
      6.928  0.6969E-01  0.3485E+00
      6.999  0.6753E-01  0.3534E+00
      7.071  0.6374E-01  0.3579E+00
      7.142  0.7133E-01  0.3630E+00
      7.214  0.7947E-01  0.3687E+00
      7.285  0.8165E-01  0.3746E+00
      7.357  0.9313E-01  0.3812E+00
      7.429  0.1150E+00  0.3894E+00
      7.500  0.1181E+00  0.3979E+00
      7.572  0.9924E-01  0.4050E+00
      7.643  0.7691E-01  0.4105E+00
      7.715  0.5574E-01  0.4145E+00
      7.786  0.4517E-01  0.4177E+00
      7.858  0.3978E-01  0.4206E+00
      7.930  0.2593E-01  0.4224E+00
      8.001  0.1143E-01  0.4232E+00
      8.073  0.6036E-02  0.4237E+00
      8.144  0.6292E-02  0.4241E+00
      8.216  0.9803E-02  0.4248E+00
      8.287  0.1466E-01  0.4259E+00
      8.359  0.1613E-01  0.4270E+00
      8.430  0.1215E-01  0.4279E+00
      8.502  0.8428E-02  0.4285E+00
      8.574  0.8748E-02  0.4291E+00
      8.645  0.1057E-01  0.4299E+00
      8.717  0.1207E-01  0.4307E+00
      8.788  0.1353E-01  0.4317E+00
      8.860  0.1374E-01  0.4327E+00
      8.931  0.1152E-01  0.4335E+00
      9.003  0.9252E-02  0.4342E+00
      9.074  0.8481E-02  0.4348E+00
      9.146  0.9512E-02  0.4355E+00
      9.218  0.1262E-01  0.4364E+00
      9.289  0.1433E-01  0.4374E+00
      9.361  0.1313E-01  0.4383E+00
      9.432  0.1052E-01  0.4391E+00
      9.504  0.9033E-02  0.4397E+00
      9.575  0.9073E-02  0.4404E+00
      9.647  0.1031E-01  0.4411E+00
      9.719  0.1240E-01  0.4420E+00
      9.790  0.1433E-01  0.4430E+00
      9.862  0.1488E-01  0.4441E+00
      9.933  0.1224E-01  0.4450E+00
     10.005  0.7692E-02  0.4455E+00
     10.076  0.6287E-02  0.4460E+00
     10.148  0.9136E-02  0.4466E+00
     10.219  0.1189E-01  0.4475E+00
     10.291  0.1210E-01  0.4484E+00
     10.363  0.1249E-01  0.4492E+00
     10.434  0.1370E-01  0.4502E+00
     10.506  0.1261E-01  0.4511E+00
     10.577  0.1020E-01  0.4519E+00
     10.649  0.1025E-01  0.4526E+00
     10.720  0.1098E-01  0.4534E+00
     10.792  0.1043E-01  0.4541E+00
     10.863  0.1030E-01  0.4549E+00
     10.935  0.1015E-01  0.4556E+00
     11.007  0.9884E-02  0.4563E+00
     11.078  0.1161E-01  0.4571E+00
     11.150  0.1234E-01  0.4580E+00
     11.221  0.1097E-01  0.4588E+00
     11.293  0.9549E-02  0.4595E+00
     11.364  0.9092E-02  0.4601E+00
     11.436  0.9707E-02  0.4608E+00
     11.507  0.1077E-01  0.4616E+00
     11.579  0.1221E-01  0.4625E+00
     11.651  0.1213E-01  0.4633E+00
     11.722  0.1015E-01  0.4641E+00
     11.794  0.9051E-02  0.4647E+00
     11.865  0.7478E-02  0.4652E+00
     11.937  0.6771E-02  0.4657E+00
     12.008  0.9434E-02  0.4664E+00
     12.080  0.1245E-01  0.4673E+00
     12.152  0.1190E-01  0.4681E+00
     12.223  0.8995E-02  0.4688E+00
     12.295  0.7409E-02  0.4693E+00
     12.366  0.7485E-02  0.4699E+00
     12.438  0.9157E-02  0.4705E+00
     12.509  0.1310E-01  0.4714E+00
     12.581  0.2019E-01  0.4729E+00
     12.652  0.2327E-01  0.4746E+00
     12.724  0.1782E-01  0.4758E+00
     12.796  0.1161E-01  0.4767E+00
     12.867  0.1077E-01  0.4774E+00
     12.939  0.1454E-01  0.4785E+00
     13.010  0.1727E-01  0.4797E+00
     13.082  0.1579E-01  0.4808E+00
     13.153  0.1459E-01  0.4819E+00
     13.225  0.1277E-01  0.4828E+00
     13.296  0.8494E-02  0.4834E+00
     13.368  0.7654E-02  0.4840E+00
     13.440  0.1002E-01  0.4847E+00
     13.511  0.1160E-01  0.4855E+00
     13.583  0.1137E-01  0.4863E+00
     13.654  0.1263E-01  0.4872E+00
     13.726  0.1386E-01  0.4882E+00
     13.797  0.1086E-01  0.4890E+00
     13.869  0.8325E-02  0.4896E+00
     13.940  0.7573E-02  0.4901E+00
     14.012  0.8125E-02  0.4907E+00
     14.084  0.1129E-01  0.4915E+00
     14.155  0.1415E-01  0.4925E+00
     14.227  0.1370E-01  0.4935E+00
     14.298  0.1217E-01  0.4944E+00
     14.370  0.1062E-01  0.4951E+00
     14.441  0.1131E-01  0.4959E+00
     14.513  0.1360E-01  0.4969E+00
     14.585  0.1516E-01  0.4980E+00
     14.656  0.1657E-01  0.4992E+00
     14.728  0.1352E-01  0.5002E+00
     14.799  0.9372E-02  0.5008E+00
     14.871  0.8566E-02  0.5014E+00
     14.942  0.1195E-01  0.5023E+00
     15.014  0.1485E-01  0.5034E+00
     15.085  0.1493E-01  0.5044E+00
     15.157  0.1577E-01  0.5056E+00
     15.229  0.1786E-01  0.5068E+00
     15.300  0.1761E-01  0.5081E+00
     15.372  0.1483E-01  0.5092E+00
     15.443  0.1321E-01  0.5101E+00
     15.515  0.1077E-01  0.5109E+00
     15.586  0.7969E-02  0.5114E+00
     15.658  0.8411E-02  0.5120E+00
     15.729  0.1172E-01  0.5129E+00
     15.801  0.1448E-01  0.5139E+00
     15.873  0.1391E-01  0.5149E+00
     15.944  0.9497E-02  0.5156E+00
     16.016  0.7249E-02  0.5161E+00
     16.087  0.7472E-02  0.5166E+00
     16.159  0.8608E-02  0.5173E+00
     16.230  0.1066E-01  0.5180E+00
     16.302  0.1220E-01  0.5189E+00
     16.374  0.1260E-01  0.5198E+00
     16.445  0.1164E-01  0.5206E+00
     16.517  0.9783E-02  0.5213E+00
     16.588  0.7856E-02  0.5219E+00
     16.660  0.9033E-02  0.5225E+00
     16.731  0.1232E-01  0.5234E+00
     16.803  0.1560E-01  0.5245E+00
     16.874  0.1489E-01  0.5256E+00
     16.946  0.9289E-02  0.5263E+00
     17.018  0.7026E-02  0.5268E+00
     17.089  0.9755E-02  0.5275E+00
     17.161  0.1118E-01  0.5283E+00
     17.232  0.9015E-02  0.5289E+00
     17.304  0.7395E-02  0.5294E+00
     17.375  0.1030E-01  0.5302E+00
     17.447  0.1517E-01  0.5313E+00
     17.518  0.1584E-01  0.5324E+00
     17.590  0.1176E-01  0.5332E+00
     17.662  0.8946E-02  0.5339E+00
     17.733  0.9262E-02  0.5345E+00
     17.805  0.8216E-02  0.5351E+00
     17.876  0.6532E-02  0.5356E+00
     17.948  0.6042E-02  0.5360E+00
     18.019  0.7623E-02  0.5366E+00
     18.091  0.9602E-02  0.5373E+00
     18.162  0.7314E-02  0.5378E+00
     18.234  0.3589E-02  0.5380E+00
     18.306  0.2208E-02  0.5382E+00
     18.377  0.2150E-02  0.5384E+00
     18.449  0.2435E-02  0.5385E+00
     18.520  0.2653E-02  0.5387E+00
     18.592  0.3005E-02  0.5389E+00
     18.663  0.3231E-02  0.5392E+00
     18.735  0.2923E-02  0.5394E+00
     18.807  0.2379E-02  0.5395E+00
     18.878  0.1691E-02  0.5397E+00
     18.950  0.1072E-02  0.5397E+00
     19.021  0.1363E-02  0.5398E+00
     19.093  0.1406E-02  0.5399E+00
     19.164  0.6400E-03  0.5400E+00
     19.236  0.1243E-03  0.5400E+00
     19.307  0.1061E-04  0.5400E+00
     19.379  0.4061E-06  0.5400E+00
     19.451  0.6854E-08  0.5400E+00
     19.522  0.4861E-10  0.5400E+00
     19.594  0.1374E-12  0.5400E+00
     19.665  0.1489E-15  0.5400E+00
     19.737  0.5516E-19  0.5400E+00
     19.808  0.0000E+00  0.5400E+00
     19.880  0.0000E+00  0.5400E+00
     19.951  0.0000E+00  0.5400E+00
     20.023  0.0000E+00  0.5400E+00
     20.095  0.0000E+00  0.5400E+00
