       N       E                     dE             d eps       ncg     rms          rms(c)
DAV:   1     0.278993296190E+03    0.27899E+03   -0.22762E+04 91953   0.153E+03
DAV:   2    -0.882720473886E+01   -0.28782E+03   -0.28022E+03104823   0.333E+02
DAV:   3    -0.138288754924E+02   -0.50017E+01   -0.49726E+01102150   0.464E+01
DAV:   4    -0.138571052484E+02   -0.28230E-01   -0.28219E-01105048   0.357E+00
DAV:   5    -0.138573587702E+02   -0.25352E-03   -0.25350E-03107154   0.355E-01    0.189E+01
RMM:   6    -0.128752326458E+02    0.98213E+00   -0.23983E+00 91152   0.103E+01    0.119E+01
RMM:   7    -0.128012540966E+02    0.73979E-01   -0.39205E-01 91196   0.401E+00    0.481E+00
RMM:   8    -0.127903553219E+02    0.10899E-01   -0.23525E-02 91164   0.101E+00    0.579E-01
RMM:   9    -0.127902425914E+02    0.11273E-03   -0.21857E-04 91184   0.824E-02    0.463E-02
RMM:  10    -0.127902532004E+02   -0.10609E-04   -0.14265E-05 90626   0.302E-02    0.416E-02
RMM:  11    -0.127902559012E+02   -0.27009E-05   -0.61934E-07 50076   0.489E-03    0.845E-04
RMM:  12    -0.127902558410E+02    0.60224E-07   -0.10902E-07 39335   0.216E-03
   1 F= -.12790256E+02 E0= -.12788013E+02  d E =-.127903E+02
