   8   8   0   0
  0.5761896E+01  0.3585517E-09  0.3585517E-09  0.3585517E-09  0.5000000E-15
  1.000000000000000E-004
  CAR 
 unknown system                          
     24.07524336    -12.18096210  301     10.90970875      1.00000000
    -12.181  0.0000E+00  0.0000E+00
    -12.060  0.0000E+00  0.0000E+00
    -11.939  0.0000E+00  0.0000E+00
    -11.818  0.0000E+00  0.0000E+00
    -11.698  0.0000E+00  0.0000E+00
    -11.577  0.0000E+00  0.0000E+00
    -11.456  0.0000E+00  0.0000E+00
    -11.335  0.0000E+00  0.0000E+00
    -11.214  0.0000E+00  0.0000E+00
    -11.093  0.0000E+00  0.0000E+00
    -10.972  0.0000E+00  0.0000E+00
    -10.852  0.0000E+00  0.0000E+00
    -10.731  0.5368E-11  0.6487E-12
    -10.610  0.7144E-05  0.8634E-06
    -10.489  0.5426E-03  0.6644E-04
    -10.368  0.1745E-02  0.2774E-03
    -10.247  0.2205E-02  0.5438E-03
    -10.126  0.3296E-02  0.9422E-03
    -10.006  0.2367E-02  0.1228E-02
     -9.885  0.4448E-02  0.1766E-02
     -9.764  0.3498E-02  0.2188E-02
     -9.643  0.4028E-02  0.2675E-02
     -9.522  0.5039E-02  0.3284E-02
     -9.401  0.4967E-02  0.3885E-02
     -9.280  0.5453E-02  0.4544E-02
     -9.160  0.3897E-02  0.5015E-02
     -9.039  0.6803E-02  0.5837E-02
     -8.918  0.6565E-02  0.6630E-02
     -8.797  0.5292E-02  0.7270E-02
     -8.676  0.5031E-02  0.7878E-02
     -8.555  0.7413E-02  0.8774E-02
     -8.434  0.8208E-02  0.9766E-02
     -8.314  0.5870E-02  0.1048E-01
     -8.193  0.7614E-02  0.1140E-01
     -8.072  0.6347E-02  0.1216E-01
     -7.951  0.8720E-02  0.1322E-01
     -7.830  0.5688E-02  0.1390E-01
     -7.709  0.9507E-02  0.1505E-01
     -7.589  0.1063E-01  0.1634E-01
     -7.468  0.5460E-02  0.1700E-01
     -7.347  0.8305E-02  0.1800E-01
     -7.226  0.7284E-02  0.1888E-01
     -7.105  0.1257E-01  0.2040E-01
     -6.984  0.8724E-02  0.2145E-01
     -6.863  0.9546E-02  0.2261E-01
     -6.743  0.7521E-02  0.2352E-01
     -6.622  0.1084E-01  0.2483E-01
     -6.501  0.8876E-02  0.2590E-01
     -6.380  0.1100E-01  0.2723E-01
     -6.259  0.9965E-02  0.2843E-01
     -6.138  0.1113E-01  0.2978E-01
     -6.017  0.1107E-01  0.3112E-01
     -5.897  0.1146E-01  0.3250E-01
     -5.776  0.1312E-01  0.3409E-01
     -5.655  0.6826E-02  0.3491E-01
     -5.534  0.9972E-02  0.3612E-01
     -5.413  0.1693E-01  0.3816E-01
     -5.292  0.1300E-01  0.3973E-01
     -5.171  0.1225E-01  0.4121E-01
     -5.051  0.1497E-01  0.4302E-01
     -4.930  0.1087E-01  0.4434E-01
     -4.809  0.1531E-01  0.4619E-01
     -4.688  0.1588E-01  0.4811E-01
     -4.567  0.1650E-01  0.5010E-01
     -4.446  0.1317E-01  0.5169E-01
     -4.325  0.1418E-01  0.5340E-01
     -4.205  0.1315E-01  0.5499E-01
     -4.084  0.2153E-01  0.5760E-01
     -3.963  0.7310E-02  0.5848E-01
     -3.842  0.1351E-01  0.6011E-01
     -3.721  0.9689E-02  0.6128E-01
     -3.600  0.1103E-01  0.6261E-01
     -3.479  0.1637E-01  0.6459E-01
     -3.359  0.1338E-01  0.6621E-01
     -3.238  0.6797E-02  0.6703E-01
     -3.117  0.1243E-01  0.6853E-01
     -2.996  0.1034E-01  0.6978E-01
     -2.875  0.1309E-01  0.7137E-01
     -2.754  0.8302E-02  0.7237E-01
     -2.633  0.5224E-02  0.7300E-01
     -2.513  0.7146E-02  0.7386E-01
     -2.392  0.9878E-02  0.7506E-01
     -2.271  0.1263E-01  0.7658E-01
     -2.150  0.1279E-01  0.7813E-01
     -2.029  0.1442E-01  0.7987E-01
     -1.908  0.1166E-01  0.8128E-01
     -1.788  0.6178E-02  0.8203E-01
     -1.667  0.7068E-02  0.8288E-01
     -1.546  0.1229E-01  0.8437E-01
     -1.425  0.8378E-02  0.8538E-01
     -1.304  0.9269E-02  0.8650E-01
     -1.183  0.1533E-01  0.8835E-01
     -1.062  0.2115E-01  0.9091E-01
     -0.942  0.1496E-01  0.9272E-01
     -0.821  0.2532E-01  0.9578E-01
     -0.700  0.1897E-01  0.9807E-01
     -0.579  0.2571E-01  0.1012E+00
     -0.458  0.1355E-01  0.1028E+00
     -0.337  0.2007E-01  0.1052E+00
     -0.216  0.2388E-01  0.1081E+00
     -0.096  0.2862E-01  0.1116E+00
      0.025  0.1373E-01  0.1132E+00
      0.146  0.1521E-01  0.1151E+00
      0.267  0.8471E-02  0.1161E+00
      0.388  0.1093E-01  0.1174E+00
      0.509  0.1496E-01  0.1192E+00
      0.630  0.9888E-02  0.1204E+00
      0.750  0.1309E-01  0.1220E+00
      0.871  0.1412E-01  0.1237E+00
      0.992  0.1719E-01  0.1258E+00
      1.113  0.6623E-02  0.1266E+00
      1.234  0.9116E-02  0.1277E+00
      1.355  0.1313E-01  0.1293E+00
      1.476  0.1090E-01  0.1306E+00
      1.596  0.6662E-02  0.1314E+00
      1.717  0.1898E-01  0.1337E+00
      1.838  0.1195E-01  0.1351E+00
      1.959  0.2645E-01  0.1383E+00
      2.080  0.1296E-01  0.1399E+00
      2.201  0.2248E-01  0.1426E+00
      2.322  0.2222E-01  0.1453E+00
      2.442  0.2542E-01  0.1484E+00
      2.563  0.2115E-01  0.1509E+00
      2.684  0.1557E-01  0.1528E+00
      2.805  0.1527E-01  0.1547E+00
      2.926  0.1518E-01  0.1565E+00
      3.047  0.3251E-01  0.1604E+00
      3.167  0.3146E-01  0.1642E+00
      3.288  0.1329E-01  0.1658E+00
      3.409  0.1681E-01  0.1679E+00
      3.530  0.2080E-01  0.1704E+00
      3.651  0.2375E-01  0.1733E+00
      3.772  0.2842E-01  0.1767E+00
      3.893  0.2199E-01  0.1793E+00
      4.013  0.2582E-01  0.1825E+00
      4.134  0.1687E-01  0.1845E+00
      4.255  0.2738E-01  0.1878E+00
      4.376  0.3583E-01  0.1921E+00
      4.497  0.3087E-01  0.1959E+00
      4.618  0.3024E-01  0.1995E+00
      4.739  0.2781E-01  0.2029E+00
      4.859  0.3044E-01  0.2066E+00
      4.980  0.2604E-01  0.2097E+00
      5.101  0.3878E-01  0.2144E+00
      5.222  0.4411E-01  0.2197E+00
      5.343  0.2637E-01  0.2229E+00
      5.464  0.1650E-01  0.2249E+00
      5.585  0.2657E-01  0.2281E+00
      5.705  0.3509E-01  0.2324E+00
      5.826  0.4150E-01  0.2374E+00
      5.947  0.2711E-01  0.2407E+00
      6.068  0.1991E-01  0.2431E+00
      6.189  0.3026E-01  0.2467E+00
      6.310  0.3151E-01  0.2505E+00
      6.431  0.2446E-01  0.2535E+00
      6.551  0.3354E-01  0.2575E+00
      6.672  0.2764E-01  0.2609E+00
      6.793  0.2180E-01  0.2635E+00
      6.914  0.2447E-01  0.2665E+00
      7.035  0.3897E-01  0.2712E+00
      7.156  0.2398E-01  0.2741E+00
      7.277  0.2119E-01  0.2766E+00
      7.397  0.2848E-01  0.2801E+00
      7.518  0.1812E-01  0.2823E+00
      7.639  0.3363E-01  0.2863E+00
      7.760  0.3447E-01  0.2905E+00
      7.881  0.1850E-01  0.2927E+00
      8.002  0.1375E-01  0.2944E+00
      8.123  0.2608E-01  0.2975E+00
      8.243  0.1937E-01  0.2999E+00
      8.364  0.2201E-01  0.3026E+00
      8.485  0.1379E-01  0.3042E+00
      8.606  0.7323E-02  0.3051E+00
      8.727  0.1055E-01  0.3064E+00
      8.848  0.1993E-01  0.3088E+00
      8.968  0.1075E-01  0.3101E+00
      9.089  0.1087E-01  0.3114E+00
      9.210  0.7463E-02  0.3123E+00
      9.331  0.5176E-02  0.3129E+00
      9.452  0.1157E-01  0.3143E+00
      9.573  0.9680E-02  0.3155E+00
      9.694  0.5098E-02  0.3161E+00
      9.814  0.5699E-02  0.3168E+00
      9.935  0.4843E-02  0.3174E+00
     10.056  0.6909E-02  0.3182E+00
     10.177  0.3544E-02  0.3186E+00
     10.298  0.4128E-02  0.3191E+00
     10.419  0.2838E-02  0.3195E+00
     10.540  0.2448E-02  0.3198E+00
     10.660  0.1570E-02  0.3200E+00
     10.781  0.2049E-03  0.3200E+00
     10.902  0.1196E-07  0.3200E+00
     11.023  0.1093E-16  0.3200E+00
     11.144  0.0000E+00  0.3200E+00
     11.265  0.0000E+00  0.3200E+00
     11.386  0.0000E+00  0.3200E+00
     11.506  0.0000E+00  0.3200E+00
     11.627  0.0000E+00  0.3200E+00
     11.748  0.0000E+00  0.3200E+00
     11.869  0.0000E+00  0.3200E+00
     11.990  0.0000E+00  0.3200E+00
     12.111  0.0000E+00  0.3200E+00
     12.232  0.0000E+00  0.3200E+00
     12.352  0.0000E+00  0.3200E+00
     12.473  0.0000E+00  0.3200E+00
     12.594  0.0000E+00  0.3200E+00
     12.715  0.0000E+00  0.3200E+00
     12.836  0.0000E+00  0.3200E+00
     12.957  0.0000E+00  0.3200E+00
     13.078  0.0000E+00  0.3200E+00
     13.198  0.0000E+00  0.3200E+00
     13.319  0.0000E+00  0.3200E+00
     13.440  0.0000E+00  0.3200E+00
     13.561  0.0000E+00  0.3200E+00
     13.682  0.0000E+00  0.3200E+00
     13.803  0.0000E+00  0.3200E+00
     13.924  0.0000E+00  0.3200E+00
     14.044  0.0000E+00  0.3200E+00
     14.165  0.0000E+00  0.3200E+00
     14.286  0.0000E+00  0.3200E+00
     14.407  0.0000E+00  0.3200E+00
     14.528  0.0000E+00  0.3200E+00
     14.649  0.9365E-15  0.3200E+00
     14.769  0.2040E-06  0.3200E+00
     14.890  0.9909E-03  0.3201E+00
     15.011  0.4261E-02  0.3206E+00
     15.132  0.2413E-02  0.3209E+00
     15.253  0.2347E-02  0.3212E+00
     15.374  0.1103E-01  0.3225E+00
     15.495  0.7670E-02  0.3235E+00
     15.615  0.9756E-02  0.3246E+00
     15.736  0.7881E-02  0.3256E+00
     15.857  0.4152E-02  0.3261E+00
     15.978  0.1902E-01  0.3284E+00
     16.099  0.1713E-01  0.3305E+00
     16.220  0.1720E-01  0.3326E+00
     16.341  0.1664E-01  0.3346E+00
     16.461  0.1403E-01  0.3363E+00
     16.582  0.1797E-01  0.3384E+00
     16.703  0.1325E-01  0.3400E+00
     16.824  0.2015E-01  0.3425E+00
     16.945  0.2260E-01  0.3452E+00
     17.066  0.2985E-01  0.3488E+00
     17.187  0.2328E-01  0.3516E+00
     17.307  0.1404E-01  0.3533E+00
     17.428  0.1663E-01  0.3553E+00
     17.549  0.3254E-01  0.3593E+00
     17.670  0.2500E-01  0.3623E+00
     17.791  0.2538E-01  0.3653E+00
     17.912  0.1559E-01  0.3672E+00
     18.033  0.2692E-01  0.3705E+00
     18.153  0.3399E-01  0.3746E+00
     18.274  0.3514E-01  0.3788E+00
     18.395  0.3378E-01  0.3829E+00
     18.516  0.4015E-01  0.3878E+00
     18.637  0.3130E-01  0.3916E+00
     18.758  0.3029E-01  0.3952E+00
     18.879  0.3800E-01  0.3998E+00
     18.999  0.3391E-01  0.4039E+00
     19.120  0.4734E-01  0.4096E+00
     19.241  0.4086E-01  0.4146E+00
     19.362  0.6412E-01  0.4223E+00
     19.483  0.3957E-01  0.4271E+00
     19.604  0.2778E-01  0.4305E+00
     19.724  0.3615E-01  0.4348E+00
     19.845  0.2615E-01  0.4380E+00
     19.966  0.2470E-01  0.4410E+00
     20.087  0.2026E-01  0.4434E+00
     20.208  0.2564E-01  0.4465E+00
     20.329  0.4433E-01  0.4519E+00
     20.450  0.2506E-01  0.4549E+00
     20.570  0.3133E-01  0.4587E+00
     20.691  0.2546E-01  0.4618E+00
     20.812  0.2641E-01  0.4650E+00
     20.933  0.2384E-01  0.4678E+00
     21.054  0.1434E-01  0.4696E+00
     21.175  0.1002E-01  0.4708E+00
     21.296  0.1961E-01  0.4732E+00
     21.416  0.1590E-01  0.4751E+00
     21.537  0.1346E-01  0.4767E+00
     21.658  0.1268E-01  0.4782E+00
     21.779  0.3977E-02  0.4787E+00
     21.900  0.6034E-02  0.4794E+00
     22.021  0.1323E-02  0.4796E+00
     22.142  0.3799E-03  0.4797E+00
     22.262  0.1155E-06  0.4797E+00
     22.383  0.3449E-03  0.4797E+00
     22.504  0.2513E-02  0.4800E+00
     22.625  0.3703E-04  0.4800E+00
     22.746  0.2398E-10  0.4800E+00
     22.867  0.0000E+00  0.4800E+00
     22.988  0.0000E+00  0.4800E+00
     23.108  0.0000E+00  0.4800E+00
     23.229  0.0000E+00  0.4800E+00
     23.350  0.0000E+00  0.4800E+00
     23.471  0.0000E+00  0.4800E+00
     23.592  0.0000E+00  0.4800E+00
     23.713  0.0000E+00  0.4800E+00
     23.834  0.0000E+00  0.4800E+00
     23.954  0.0000E+00  0.4800E+00
     24.075  0.0000E+00  0.4800E+00
