       N       E                     dE             d eps       ncg     rms          rms(c)
DAV:   1     0.979594517446E+02    0.97959E+02   -0.25712E+04  4032   0.198E+03
DAV:   2    -0.723179538675E+02   -0.17028E+03   -0.16719E+03  6336   0.223E+02
DAV:   3    -0.751821987628E+02   -0.28642E+01   -0.28642E+01  4848   0.406E+01
DAV:   4    -0.752011155462E+02   -0.18917E-01   -0.18917E-01  7344   0.256E+00
DAV:   5    -0.752011184466E+02   -0.29004E-05   -0.29004E-05  4752   0.384E-02    0.163E+01
DAV:   6    -0.734310446882E+02    0.17701E+01   -0.13358E+00  4680   0.614E+00    0.107E+01
DAV:   7    -0.728385457374E+02    0.59250E+00   -0.17383E+00  5880   0.708E+00    0.223E+00
DAV:   8    -0.728369766020E+02    0.15691E-02   -0.23716E-02  6600   0.117E+00    0.118E-01
DAV:   9    -0.728371664695E+02   -0.18987E-03   -0.44372E-04  5856   0.140E-01    0.614E-02
DAV:  10    -0.728372903475E+02   -0.12388E-03   -0.11816E-04  6192   0.859E-02    0.479E-03
DAV:  11    -0.728372914650E+02   -0.11176E-05   -0.16204E-06  6144   0.996E-03    0.281E-03
DAV:  12    -0.728372918358E+02   -0.37074E-06   -0.69157E-08  6192   0.238E-03    0.152E-04
DAV:  13    -0.728372918450E+02   -0.91713E-08   -0.14235E-10  6312   0.925E-05
   1 F= -.72837292E+02 E0= -.72837292E+02  d E =-.728373E+02
