 vasp.5.4.4.18Apr17-6-g9f103f2a35 (build Jan 14 2019 14:48:31) complex          
  
 executed on             LinuxIFC date 2019.08.26  21:14:05
 running on   24 total cores
 distrk:  each k-point on   24 cores,    1 groups
 distr:  one band on NCORES_PER_BAND=   1 cores,   24 groups


--------------------------------------------------------------------------------------------------------


 INCAR:
 POTCAR:    PAW_PBE C_h 06Feb2004                 

 ----------------------------------------------------------------------------- 
|                                                                             |
|           W    W    AA    RRRRR   N    N  II  N    N   GGGG   !!!           |
|           W    W   A  A   R    R  NN   N  II  NN   N  G    G  !!!           |
|           W    W  A    A  R    R  N N  N  II  N N  N  G       !!!           |
|           W WW W  AAAAAA  RRRRR   N  N N  II  N  N N  G  GGG   !            |
|           WW  WW  A    A  R   R   N   NN  II  N   NN  G    G                |
|           W    W  A    A  R    R  N    N  II  N    N   GGGG   !!!           |
|                                                                             |
|      For optimal performance we recommend to set                            |
|        NCORE= 4 - approx SQRT( number of cores)                             |
|      NCORE specifies how many cores store one orbital (NPAR=cpu/NCORE).     |
|      This setting can  greatly improve the performance of VASP for DFT.     |
|      The default,   NCORE=1            might be grossly inefficient         |
|      on modern multi-core architectures or massively parallel machines.     |
|      Do your own testing !!!!                                               |
|      Unfortunately you need to use the default for GW and RPA calculations. |
|      (for HF NCORE is supported but not extensively tested yet)             |
|                                                                             |
 ----------------------------------------------------------------------------- 

 POTCAR:    PAW_PBE C_h 06Feb2004                 
   VRHFIN =C: s2p2                                                              
   LEXCH  = PE                                                                  
   EATOM  =   147.1560 eV,   10.8157 Ry                                         
                                                                                
   TITEL  = PAW_PBE C_h 06Feb2004                                               
   LULTRA =        F    use ultrasoft PP ?                                      
   IUNSCR =        1    unscreen: 0-lin 1-nonlin 2-no                           
   RPACOR =    0.800    partial core radius                                     
   POMASS =   12.011; ZVAL   =    4.000    mass and valenz                      
   RCORE  =    1.100    outmost cutoff radius                                   
   RWIGS  =    1.630; RWIGS  =    0.863    wigner-seitz radius (au A)           
   ENMAX  =  700.000; ENMIN  =  500.000 eV                                      
   ICORE  =        2    local potential                                         
   LCOR   =        T    correct aug charges                                     
   LPAW   =        T    paw PP                                                  
   EAUG   =  946.768                                                            
   DEXC   =    0.000                                                            
   RMAX   =    1.128    core radius for proj-oper                               
   RAUG   =    1.300    factor for augmentation sphere                          
   RDEP   =    1.162    radius for radial grids                                 
   RDEPT  =    1.088    core radius for aug-charge                              
                                                                                
   Atomic configuration                                                         
    4 entries                                                                   
     n  l   j            E        occ.                                          
     1  0  0.50      -273.3789   2.0000                                         
     2  0  0.50       -13.7508   2.0000                                         
     2  1  0.50        -5.2854   2.0000                                         
     3  2  1.50        -5.4423   0.0000                                         
   Description                                                                  
     l       E           TYP  RCUT    TYP  RCUT                                 
     0    -13.7508458     23  1.100                                             
     0     -8.2022199     23  1.100                                             
     1     -5.2854383     23  1.100                                             
     1      1.1560700     23  1.100                                             
     2     -5.4423304      7  1.100                                             
  local pseudopotential read in
  partial core-charges read in
  partial kinetic energy density read in
  atomic valenz-charges read in
  non local Contribution for L=           0  read in
    real space projection operators read in
  non local Contribution for L=           0  read in
    real space projection operators read in
  non local Contribution for L=           1  read in
    real space projection operators read in
  non local Contribution for L=           1  read in
    real space projection operators read in
    PAW grid and wavefunctions read in
 
   number of l-projection  operators is LMAX  =           4
   number of lm-projection operators is LMMAX =           8
 
  PAW_PBE C_h 06Feb2004                 :
 energy of atom  1       EATOM= -147.1560
 kinetic energy error for atom=    0.0044 (will be added to EATOM!!)
 
 
 POSCAR: C8                                      
  positions in direct lattice
  velocities in cartesian coordinates
 exchange correlation table for  LEXCH =        8
   RHO(1)=    0.500       N(1)  =     2000
   RHO(2)=  100.500       N(2)  =     4000

 VTST: version 3.1, (03/28/14)

 CHAIN: initializing optimizer
 
 OPT: Using VASP Conjugate-Gradient optimizer
 CHAIN: Read ICHAIN            0
 
 POSCAR: C8                                      
  positions in direct lattice
  velocities in cartesian coordinates
 


--------------------------------------------------------------------------------------------------------


 ion  position               nearest neighbor table
   1  0.250  0.250  0.250-   2 1.55   4 1.55   6 1.55   8 1.55
   2  0.000  0.000  0.000-   1 1.55   3 1.55   5 1.55   7 1.55
   3  0.250  0.750  0.750-   2 1.55   4 1.55   6 1.55   8 1.55
   4  0.000  0.500  0.500-   1 1.55   3 1.55   5 1.55   7 1.55
   5  0.750  0.250  0.750-   2 1.55   4 1.55   6 1.55   8 1.55
   6  0.500  0.000  0.500-   1 1.55   3 1.55   5 1.55   7 1.55
   7  0.750  0.750  0.250-   2 1.55   4 1.55   6 1.55   8 1.55
   8  0.500  0.500  0.000-   1 1.55   3 1.55   5 1.55   7 1.55
 
  LATTYP: Found a simple cubic cell.
 ALAT       =     3.5855170879
  
  Lattice vectors:
  
 A1 = (   3.5855170879,   0.0000000000,   0.0000000000)
 A2 = (   0.0000000000,   3.5855170879,   0.0000000000)
 A3 = (   0.0000000000,   0.0000000000,   3.5855170879)


Analysis of symmetry for initial positions (statically):
=====================================================================
 Subroutine PRICEL returns following result:
 
  LATTYP: Found a face centered cubic cell.
 ALAT       =     3.5855170879
  
  Lattice vectors:
  
 A1 = (   1.7927585439,   1.7927585439,  -0.0000000000)
 A2 = (   1.7927585439,   0.0000000000,  -1.7927585439)
 A3 = (   0.0000000000,   1.7927585439,  -1.7927585439)
 
   4 primitive cells build up your supercell.
 

 Routine SETGRP: Setting up the symmetry group for a 
 simple cubic supercell.


 Subroutine GETGRP returns: Found 48 space group operations
 (whereof 24 operations were pure point group operations)
 out of a pool of 48 trial point group operations.


The static configuration has the point symmetry T_d .
 The point group associated with its full space group is O_h .


Analysis of symmetry for dynamics (positions and initial velocities):
=====================================================================
 Subroutine PRICEL returns following result:
 
  LATTYP: Found a face centered cubic cell.
 ALAT       =     3.5855170879
  
  Lattice vectors:
  
 A1 = (   1.7927585439,   1.7927585439,  -0.0000000000)
 A2 = (   1.7927585439,   0.0000000000,  -1.7927585439)
 A3 = (   0.0000000000,   1.7927585439,  -1.7927585439)
 
   4 primitive cells build up your supercell.
 

 Routine SETGRP: Setting up the symmetry group for a 
 simple cubic supercell.


 Subroutine GETGRP returns: Found 48 space group operations
 (whereof 24 operations were pure point group operations)
 out of a pool of 48 trial point group operations.


The dynamic configuration has the point symmetry T_d .
 The point group associated with its full space group is O_h .


 Subroutine INISYM returns: Found 48 space group operations
 (whereof 24 operations are pure point group operations),
 and found     4 'primitive' translations

 
 
 KPOINTS: K-Mesh Generated with KP-Resolved Value 

Automatic generation of k-mesh.
Space group operators:
 irot       det(A)        alpha          n_x          n_y          n_z        tau_x        tau_y        tau_z
    1     1.000000     0.000000     1.000000     0.000000     0.000000     0.000000     0.000000     0.000000
    2     1.000000   120.000000    -0.577350    -0.577350    -0.577350     0.000000     0.000000     0.000000
    3     1.000000   120.000000     0.577350     0.577350     0.577350     0.000000     0.000000     0.000000
    4    -1.000000    90.000000     0.000000     0.000000    -1.000000     0.000000     0.000000     0.000000
    5    -1.000000   180.000000     0.000000     0.707107     0.707107     0.000000     0.000000     0.000000
    6    -1.000000    90.000000     0.000000     1.000000     0.000000     0.000000     0.000000     0.000000
    7     1.000000   179.999999     0.000000     0.000000     1.000000     0.000000     0.000000     0.000000
    8     1.000000   120.000000    -0.577350     0.577350     0.577350     0.000000     0.000000     0.000000
    9     1.000000   120.000000    -0.577350     0.577350    -0.577350     0.000000     0.000000     0.000000
   10    -1.000000    90.000000     0.000000     0.000000     1.000000     0.000000     0.000000     0.000000
   11    -1.000000    90.000000    -1.000000     0.000000     0.000000     0.000000     0.000000     0.000000
   12    -1.000000   180.000000     0.707107     0.000000     0.707107     0.000000     0.000000     0.000000
   13     1.000000   120.000000     0.577350    -0.577350     0.577350     0.000000     0.000000     0.000000
   14     1.000000   120.000000    -0.577350    -0.577350     0.577350     0.000000     0.000000     0.000000
   15     1.000000   180.000000     1.000000     0.000000     0.000000     0.000000     0.000000     0.000000
   16    -1.000000    90.000000     0.000000    -1.000000     0.000000     0.000000     0.000000     0.000000
   17    -1.000000   180.000000     0.707107     0.707107     0.000000     0.000000     0.000000     0.000000
   18    -1.000000    90.000000     1.000000     0.000000     0.000000     0.000000     0.000000     0.000000
   19     1.000000   120.000000     0.577350    -0.577350    -0.577350     0.000000     0.000000     0.000000
   20     1.000000   180.000000     0.000000     1.000000     0.000000     0.000000     0.000000     0.000000
   21     1.000000   120.000000     0.577350     0.577350    -0.577350     0.000000     0.000000     0.000000
   22    -1.000000   180.000000     0.000000    -0.707107     0.707107     0.000000     0.000000     0.000000
   23    -1.000000   180.000000     0.707107    -0.707107     0.000000     0.000000     0.000000     0.000000
   24    -1.000000   180.000000     0.707107     0.000000    -0.707107     0.000000     0.000000     0.000000
   25    -1.000000     0.000000     1.000000     0.000000     0.000000     0.750000     0.750000    -0.750000
   26    -1.000000   120.000000    -0.577350    -0.577350    -0.577350     0.750000     0.750000    -0.750000
   27    -1.000000   120.000000     0.577350     0.577350     0.577350     0.750000     0.750000    -0.750000
   28     1.000000    90.000000     0.000000     0.000000    -1.000000     0.750000     0.750000    -0.750000
   29     1.000000   180.000000     0.000000     0.707107     0.707107     0.750000     0.750000    -0.750000
   30     1.000000    90.000000     0.000000     1.000000     0.000000     0.750000     0.750000    -0.750000
   31    -1.000000   179.999999     0.000000     0.000000     1.000000     0.750000     0.750000    -0.750000
   32    -1.000000   120.000000    -0.577350     0.577350     0.577350     0.750000     0.750000    -0.750000
   33    -1.000000   120.000000    -0.577350     0.577350    -0.577350     0.750000     0.750000    -0.750000
   34     1.000000    90.000000     0.000000     0.000000     1.000000     0.750000     0.750000    -0.750000
   35     1.000000    90.000000    -1.000000     0.000000     0.000000     0.750000     0.750000    -0.750000
   36     1.000000   180.000000     0.707107     0.000000     0.707107     0.750000     0.750000    -0.750000
   37    -1.000000   120.000000     0.577350    -0.577350     0.577350     0.750000     0.750000    -0.750000
   38    -1.000000   120.000000    -0.577350    -0.577350     0.577350     0.750000     0.750000    -0.750000
   39    -1.000000   180.000000     1.000000     0.000000     0.000000     0.750000     0.750000    -0.750000
   40     1.000000    90.000000     0.000000    -1.000000     0.000000     0.750000     0.750000    -0.750000
   41     1.000000   180.000000     0.707107     0.707107     0.000000     0.750000     0.750000    -0.750000
   42     1.000000    90.000000     1.000000     0.000000     0.000000     0.750000     0.750000    -0.750000
   43    -1.000000   120.000000     0.577350    -0.577350    -0.577350     0.750000     0.750000    -0.750000
   44    -1.000000   180.000000     0.000000     1.000000     0.000000     0.750000     0.750000    -0.750000
   45    -1.000000   120.000000     0.577350     0.577350    -0.577350     0.750000     0.750000    -0.750000
   46     1.000000   180.000000     0.000000    -0.707107     0.707107     0.750000     0.750000    -0.750000
   47     1.000000   180.000000     0.707107    -0.707107     0.000000     0.750000     0.750000    -0.750000
   48     1.000000   180.000000     0.707107     0.000000    -0.707107     0.750000     0.750000    -0.750000
 
 Subroutine IBZKPT returns following result:
 ===========================================
 
 Found     84 irreducible k-points:
 
 Following reciprocal coordinates:
            Coordinates               Weight
  0.035714  0.035714  0.035714      8.000000
  0.107143  0.035714  0.035714     24.000000
  0.178571  0.035714  0.035714     24.000000
  0.250000  0.035714  0.035714     24.000000
  0.321429  0.035714  0.035714     24.000000
  0.392857  0.035714  0.035714     24.000000
  0.464286  0.035714  0.035714     24.000000
  0.107143  0.107143  0.035714     24.000000
  0.178571  0.107143  0.035714     48.000000
  0.250000  0.107143  0.035714     48.000000
  0.321429  0.107143  0.035714     48.000000
  0.392857  0.107143  0.035714     48.000000
  0.464286  0.107143  0.035714     48.000000
  0.178571  0.178571  0.035714     24.000000
  0.250000  0.178571  0.035714     48.000000
  0.321429  0.178571  0.035714     48.000000
  0.392857  0.178571  0.035714     48.000000
  0.464286  0.178571  0.035714     48.000000
  0.250000  0.250000  0.035714     24.000000
  0.321429  0.250000  0.035714     48.000000
  0.392857  0.250000  0.035714     48.000000
  0.464286  0.250000  0.035714     48.000000
  0.321429  0.321429  0.035714     24.000000
  0.392857  0.321429  0.035714     48.000000
  0.464286  0.321429  0.035714     48.000000
  0.392857  0.392857  0.035714     24.000000
  0.464286  0.392857  0.035714     48.000000
  0.464286  0.464286  0.035714     24.000000
  0.107143  0.107143  0.107143      8.000000
  0.178571  0.107143  0.107143     24.000000
  0.250000  0.107143  0.107143     24.000000
  0.321429  0.107143  0.107143     24.000000
  0.392857  0.107143  0.107143     24.000000
  0.464286  0.107143  0.107143     24.000000
  0.178571  0.178571  0.107143     24.000000
  0.250000  0.178571  0.107143     48.000000
  0.321429  0.178571  0.107143     48.000000
  0.392857  0.178571  0.107143     48.000000
  0.464286  0.178571  0.107143     48.000000
  0.250000  0.250000  0.107143     24.000000
  0.321429  0.250000  0.107143     48.000000
  0.392857  0.250000  0.107143     48.000000
  0.464286  0.250000  0.107143     48.000000
  0.321429  0.321429  0.107143     24.000000
  0.392857  0.321429  0.107143     48.000000
  0.464286  0.321429  0.107143     48.000000
  0.392857  0.392857  0.107143     24.000000
  0.464286  0.392857  0.107143     48.000000
  0.464286  0.464286  0.107143     24.000000
  0.178571  0.178571  0.178571      8.000000
  0.250000  0.178571  0.178571     24.000000
  0.321429  0.178571  0.178571     24.000000
  0.392857  0.178571  0.178571     24.000000
  0.464286  0.178571  0.178571     24.000000
  0.250000  0.250000  0.178571     24.000000
  0.321429  0.250000  0.178571     48.000000
  0.392857  0.250000  0.178571     48.000000
  0.464286  0.250000  0.178571     48.000000
  0.321429  0.321429  0.178571     24.000000
  0.392857  0.321429  0.178571     48.000000
  0.464286  0.321429  0.178571     48.000000
  0.392857  0.392857  0.178571     24.000000
  0.464286  0.392857  0.178571     48.000000
  0.464286  0.464286  0.178571     24.000000
  0.250000  0.250000  0.250000      8.000000
  0.321429  0.250000  0.250000     24.000000
  0.392857  0.250000  0.250000     24.000000
  0.464286  0.250000  0.250000     24.000000
  0.321429  0.321429  0.250000     24.000000
  0.392857  0.321429  0.250000     48.000000
  0.464286  0.321429  0.250000     48.000000
  0.392857  0.392857  0.250000     24.000000
  0.464286  0.392857  0.250000     48.000000
  0.464286  0.464286  0.250000     24.000000
  0.321429  0.321429  0.321429      8.000000
  0.392857  0.321429  0.321429     24.000000
  0.464286  0.321429  0.321429     24.000000
  0.392857  0.392857  0.321429     24.000000
  0.464286  0.392857  0.321429     48.000000
  0.464286  0.464286  0.321429     24.000000
  0.392857  0.392857  0.392857      8.000000
  0.464286  0.392857  0.392857     24.000000
  0.464286  0.464286  0.392857     24.000000
  0.464286  0.464286  0.464286      8.000000
 
 Following cartesian coordinates:
            Coordinates               Weight
  0.009961  0.009961  0.009961      8.000000
  0.029882  0.009961  0.009961     24.000000
  0.049804  0.009961  0.009961     24.000000
  0.069725  0.009961  0.009961     24.000000
  0.089646  0.009961  0.009961     24.000000
  0.109568  0.009961  0.009961     24.000000
  0.129489  0.009961  0.009961     24.000000
  0.029882  0.029882  0.009961     24.000000
  0.049804  0.029882  0.009961     48.000000
  0.069725  0.029882  0.009961     48.000000
  0.089646  0.029882  0.009961     48.000000
  0.109568  0.029882  0.009961     48.000000
  0.129489  0.029882  0.009961     48.000000
  0.049804  0.049804  0.009961     24.000000
  0.069725  0.049804  0.009961     48.000000
  0.089646  0.049804  0.009961     48.000000
  0.109568  0.049804  0.009961     48.000000
  0.129489  0.049804  0.009961     48.000000
  0.069725  0.069725  0.009961     24.000000
  0.089646  0.069725  0.009961     48.000000
  0.109568  0.069725  0.009961     48.000000
  0.129489  0.069725  0.009961     48.000000
  0.089646  0.089646  0.009961     24.000000
  0.109568  0.089646  0.009961     48.000000
  0.129489  0.089646  0.009961     48.000000
  0.109568  0.109568  0.009961     24.000000
  0.129489  0.109568  0.009961     48.000000
  0.129489  0.129489  0.009961     24.000000
  0.029882  0.029882  0.029882      8.000000
  0.049804  0.029882  0.029882     24.000000
  0.069725  0.029882  0.029882     24.000000
  0.089646  0.029882  0.029882     24.000000
  0.109568  0.029882  0.029882     24.000000
  0.129489  0.029882  0.029882     24.000000
  0.049804  0.049804  0.029882     24.000000
  0.069725  0.049804  0.029882     48.000000
  0.089646  0.049804  0.029882     48.000000
  0.109568  0.049804  0.029882     48.000000
  0.129489  0.049804  0.029882     48.000000
  0.069725  0.069725  0.029882     24.000000
  0.089646  0.069725  0.029882     48.000000
  0.109568  0.069725  0.029882     48.000000
  0.129489  0.069725  0.029882     48.000000
  0.089646  0.089646  0.029882     24.000000
  0.109568  0.089646  0.029882     48.000000
  0.129489  0.089646  0.029882     48.000000
  0.109568  0.109568  0.029882     24.000000
  0.129489  0.109568  0.029882     48.000000
  0.129489  0.129489  0.029882     24.000000
  0.049804  0.049804  0.049804      8.000000
  0.069725  0.049804  0.049804     24.000000
  0.089646  0.049804  0.049804     24.000000
  0.109568  0.049804  0.049804     24.000000
  0.129489  0.049804  0.049804     24.000000
  0.069725  0.069725  0.049804     24.000000
  0.089646  0.069725  0.049804     48.000000
  0.109568  0.069725  0.049804     48.000000
  0.129489  0.069725  0.049804     48.000000
  0.089646  0.089646  0.049804     24.000000
  0.109568  0.089646  0.049804     48.000000
  0.129489  0.089646  0.049804     48.000000
  0.109568  0.109568  0.049804     24.000000
  0.129489  0.109568  0.049804     48.000000
  0.129489  0.129489  0.049804     24.000000
  0.069725  0.069725  0.069725      8.000000
  0.089646  0.069725  0.069725     24.000000
  0.109568  0.069725  0.069725     24.000000
  0.129489  0.069725  0.069725     24.000000
  0.089646  0.089646  0.069725     24.000000
  0.109568  0.089646  0.069725     48.000000
  0.129489  0.089646  0.069725     48.000000
  0.109568  0.109568  0.069725     24.000000
  0.129489  0.109568  0.069725     48.000000
  0.129489  0.129489  0.069725     24.000000
  0.089646  0.089646  0.089646      8.000000
  0.109568  0.089646  0.089646     24.000000
  0.129489  0.089646  0.089646     24.000000
  0.109568  0.109568  0.089646     24.000000
  0.129489  0.109568  0.089646     48.000000
  0.129489  0.129489  0.089646     24.000000
  0.109568  0.109568  0.109568      8.000000
  0.129489  0.109568  0.109568     24.000000
  0.129489  0.129489  0.109568     24.000000
  0.129489  0.129489  0.129489      8.000000
 


--------------------------------------------------------------------------------------------------------




 Dimension of arrays:
   k-points           NKPTS =     84   k-points in BZ     NKDIM =     84   number of bands    NBANDS=     24
   number of dos      NEDOS =    301   number of ions     NIONS =      8
   non local maximal  LDIM  =      4   non local SUM 2l+1 LMDIM =      8
   total plane-waves  NPLWV =  46656
   max r-space proj   IRMAX =      1   max aug-charges    IRDMAX=  16113
   dimension x,y,z NGX =    36 NGY =   36 NGZ =   36
   dimension x,y,z NGXF=    48 NGYF=   48 NGZF=   48
   support grid    NGXF=    96 NGYF=   96 NGZF=   96
   ions per type =               8
   NGX,Y,Z   is equivalent  to a cutoff of  16.69, 16.69, 16.69 a.u.
   NGXF,Y,Z  is equivalent  to a cutoff of  22.26, 22.26, 22.26 a.u.

 SYSTEM =  unknown system                          
 POSCAR =  C8                                      

 Startparameter for this run:
   NWRITE =      2    write-flag & timer
   PREC   = high      normal or accurate (medium, high low for compatibility)
   ISTART =      0    job   : 0-new  1-cont  2-samecut
   ICHARG =      2    charge: 1-file 2-atom 10-const
   ISPIN  =      1    spin polarized calculation?
   LNONCOLLINEAR =      F non collinear calculations
   LSORBIT =      F    spin-orbit coupling
   INIWAV =      1    electr: 0-lowe 1-rand  2-diag
   LASPH  =      F    aspherical Exc in radial PAW
   METAGGA=      F    non-selfconsistent MetaGGA calc.

 Electronic Relaxation 1
   ENCUT  =  875.0 eV  64.31 Ry    8.02 a.u.   8.65  8.65  8.65*2*pi/ulx,y,z
   ENINI  =  875.0     initial cutoff
   ENAUG  =  946.8 eV  augmentation charge cutoff
   NELM   =     40;   NELMIN=  4; NELMDL= -5     # of ELM steps 
   EDIFF  = 0.1E-07   stopping-criterion for ELM
   LREAL  =      F    real-space projection
   NLSPLINE    = F    spline interpolate recip. space projectors
   LCOMPAT=      F    compatible to vasp.4.4
   GGA_COMPAT  = T    GGA compatible to vasp.4.4-vasp.4.6
   LMAXPAW     = -100 max onsite density
   LMAXMIX     =    2 max onsite mixed and CHGCAR
   VOSKOWN=      0    Vosko Wilk Nusair interpolation
   ROPT   =    0.00000
 Ionic relaxation
   EDIFFG = -.1E-01   stopping-criterion for IOM
   NSW    =    100    number of steps for IOM
   NBLOCK =      1;   KBLOCK =    100    inner block; outer block 
   IBRION =      2    ionic relax: 0-MD 1-quasi-New 2-CG
   NFREE  =      1    steps in history (QN), initial steepest desc. (CG)
   ISIF   =      2    stress and relaxation
   IWAVPR =     11    prediction:  0-non 1-charg 2-wave 3-comb
   ISYM   =      2    0-nonsym 1-usesym 2-fastsym
   LCORR  =      T    Harris-Foulkes like correction to forces

   POTIM  = 0.5000    time-step for ionic-motion
   TEIN   =    0.0    initial temperature
   TEBEG  =    0.0;   TEEND  =   0.0 temperature during run
   SMASS  =  -3.00    Nose mass-parameter (am)
   estimated Nose-frequenzy (Omega)   =  0.10E-29 period in steps =****** mass=  -0.294E-27a.u.
   SCALEE = 1.0000    scale energy and forces
   NPACO  =    256;   APACO  = 16.0  distance and # of slots for P.C.
   PSTRESS=    0.0 pullay stress

  Mass of Ions in am
   POMASS =  12.01
  Ionic Valenz
   ZVAL   =   4.00
  Atomic Wigner-Seitz radii
   RWIGS  =  -1.00
  virtual crystal weights 
   VCA    =   1.00
   NELECT =      32.0000    total number of electrons
   NUPDOWN=      -1.0000    fix difference up-down

 DOS related values:
   EMIN   =  10.00;   EMAX   =-10.00  energy-range for DOS
   EFERMI =   0.00
   ISMEAR =     0;   SIGMA  =   0.05  broadening in eV -4-tet -1-fermi 0-gaus

 Electronic relaxation 2 (details)
   IALGO  =     38    algorithm
   LDIAG  =      T    sub-space diagonalisation (order eigenvalues)
   LSUBROT=      F    optimize rotation matrix (better conditioning)
   TURBO    =      0    0=normal 1=particle mesh
   IRESTART =      0    0=no restart 2=restart with 2 vectors
   NREBOOT  =      0    no. of reboots
   NMIN     =      0    reboot dimension
   EREF     =   0.00    reference energy to select bands
   IMIX   =      4    mixing-type and parameters
     AMIX     =   0.40;   BMIX     =  1.00
     AMIX_MAG =   1.60;   BMIX_MAG =  1.00
     AMIN     =   0.10
     WC   =   100.;   INIMIX=   1;  MIXPRE=   1;  MAXMIX= -45

 Intra band minimization:
   WEIMIN = 0.0010     energy-eigenvalue tresh-hold
   EBREAK =  0.10E-09  absolut break condition
   DEPER  =   0.30     relativ break condition  

   TIME   =   0.40     timestep for ELM

  volume/ion in A,a.u.               =       5.76        38.88
  Fermi-wavevector in a.u.,A,eV,Ry     =   1.449572  2.739293 28.589351  2.101258
  Thomas-Fermi vector in A             =   2.567283
 
 Write flags
   LWAVE        =      F    write WAVECAR
   LDOWNSAMPLE  =      F    k-point downsampling of WAVECAR
   LCHARG       =      F    write CHGCAR
   LVTOT        =      F    write LOCPOT, total local potential
   LVHAR        =      F    write LOCPOT, Hartree potential only
   LELF         =      F    write electronic localiz. function (ELF)
   LORBIT       =      0    0 simple, 1 ext, 2 COOP (PROOUT), +10 PAW based schemes


 Dipole corrections
   LMONO  =      F    monopole corrections only (constant potential shift)
   LDIPOL =      F    correct potential (dipole corrections)
   IDIPOL =      0    1-x, 2-y, 3-z, 4-all directions 
   EPSILON=  1.0000000 bulk dielectric constant

 Exchange correlation treatment:
   GGA     =    --    GGA type
   LEXCH   =     8    internal setting for exchange type
   VOSKOWN=      0    Vosko Wilk Nusair interpolation
   LHFCALC =     F    Hartree Fock is set to
   LHFONE  =     F    Hartree Fock one center treatment
   AEXX    =    0.0000 exact exchange contribution

 Linear response parameters
   LEPSILON=     F    determine dielectric tensor
   LRPA    =     F    only Hartree local field effects (RPA)
   LNABLA  =     F    use nabla operator in PAW spheres
   LVEL    =     F    velocity operator in full k-point grid
   LINTERFAST=   F  fast interpolation
   KINTER  =     0    interpolate to denser k-point grid
   CSHIFT  =0.1000    complex shift for real part using Kramers Kronig
   OMEGAMAX=  -1.0    maximum frequency
   DEG_THRESHOLD= 0.2000000E-02 threshold for treating states as degnerate
   RTIME   =   -0.100 relaxation time in fs
  (WPLASMAI=    0.000 imaginary part of plasma frequency in eV, 0.658/RTIME)
   DFIELD  = 0.0000000 0.0000000 0.0000000 field for delta impulse in time
 
 Orbital magnetization related:
   ORBITALMAG=     F  switch on orbital magnetization
   LCHIMAG   =     F  perturbation theory with respect to B field
   DQ        =  0.001000  dq finite difference perturbation B field
   LLRAUG    =     F  two centre corrections for induced B field



--------------------------------------------------------------------------------------------------------


 conjugate gradient relaxation of ions
 charge density and potential will be updated during run
 non-spin polarized calculation
 Variant of blocked Davidson
 Davidson routine will perform the subspace rotation
 perform sub-space diagonalisation
    after iterative eigenvector-optimisation
 modified Broyden-mixing scheme, WC =      100.0
 initial mixing is a Kerker type mixing with AMIX =  0.4000 and BMIX =      1.0000
 Hartree-type preconditioning will be used
 using additional bands            8
 reciprocal scheme for non local part
 use partial core corrections
 calculate Harris-corrections to forces 
   (improved forces if not selfconsistent)
 use gradient corrections 
 use of overlap-Matrix (Vanderbilt PP)
 Gauss-broadening in eV      SIGMA  =   0.05


--------------------------------------------------------------------------------------------------------


  energy-cutoff  :      875.00
  volume of cell :       46.10
      direct lattice vectors                 reciprocal lattice vectors
     3.585517088  0.000000000  0.000000000     0.278899800  0.000000000  0.000000000
     0.000000000  3.585517088  0.000000000     0.000000000  0.278899800  0.000000000
     0.000000000  0.000000000  3.585517088     0.000000000  0.000000000  0.278899800

  length of vectors
     3.585517088  3.585517088  3.585517088     0.278899800  0.278899800  0.278899800


 
 k-points in units of 2pi/SCALE and weight: K-Mesh Generated with KP-Resolved Value 
   0.00996071  0.00996071  0.00996071       0.003
   0.02988212  0.00996071  0.00996071       0.009
   0.04980354  0.00996071  0.00996071       0.009
   0.06972495  0.00996071  0.00996071       0.009
   0.08964636  0.00996071  0.00996071       0.009
   0.10956778  0.00996071  0.00996071       0.009
   0.12948919  0.00996071  0.00996071       0.009
   0.02988212  0.02988212  0.00996071       0.009
   0.04980354  0.02988212  0.00996071       0.017
   0.06972495  0.02988212  0.00996071       0.017
   0.08964636  0.02988212  0.00996071       0.017
   0.10956778  0.02988212  0.00996071       0.017
   0.12948919  0.02988212  0.00996071       0.017
   0.04980354  0.04980354  0.00996071       0.009
   0.06972495  0.04980354  0.00996071       0.017
   0.08964636  0.04980354  0.00996071       0.017
   0.10956778  0.04980354  0.00996071       0.017
   0.12948919  0.04980354  0.00996071       0.017
   0.06972495  0.06972495  0.00996071       0.009
   0.08964636  0.06972495  0.00996071       0.017
   0.10956778  0.06972495  0.00996071       0.017
   0.12948919  0.06972495  0.00996071       0.017
   0.08964636  0.08964636  0.00996071       0.009
   0.10956778  0.08964636  0.00996071       0.017
   0.12948919  0.08964636  0.00996071       0.017
   0.10956778  0.10956778  0.00996071       0.009
   0.12948919  0.10956778  0.00996071       0.017
   0.12948919  0.12948919  0.00996071       0.009
   0.02988212  0.02988212  0.02988212       0.003
   0.04980354  0.02988212  0.02988212       0.009
   0.06972495  0.02988212  0.02988212       0.009
   0.08964636  0.02988212  0.02988212       0.009
   0.10956778  0.02988212  0.02988212       0.009
   0.12948919  0.02988212  0.02988212       0.009
   0.04980354  0.04980354  0.02988212       0.009
   0.06972495  0.04980354  0.02988212       0.017
   0.08964636  0.04980354  0.02988212       0.017
   0.10956778  0.04980354  0.02988212       0.017
   0.12948919  0.04980354  0.02988212       0.017
   0.06972495  0.06972495  0.02988212       0.009
   0.08964636  0.06972495  0.02988212       0.017
   0.10956778  0.06972495  0.02988212       0.017
   0.12948919  0.06972495  0.02988212       0.017
   0.08964636  0.08964636  0.02988212       0.009
   0.10956778  0.08964636  0.02988212       0.017
   0.12948919  0.08964636  0.02988212       0.017
   0.10956778  0.10956778  0.02988212       0.009
   0.12948919  0.10956778  0.02988212       0.017
   0.12948919  0.12948919  0.02988212       0.009
   0.04980354  0.04980354  0.04980354       0.003
   0.06972495  0.04980354  0.04980354       0.009
   0.08964636  0.04980354  0.04980354       0.009
   0.10956778  0.04980354  0.04980354       0.009
   0.12948919  0.04980354  0.04980354       0.009
   0.06972495  0.06972495  0.04980354       0.009
   0.08964636  0.06972495  0.04980354       0.017
   0.10956778  0.06972495  0.04980354       0.017
   0.12948919  0.06972495  0.04980354       0.017
   0.08964636  0.08964636  0.04980354       0.009
   0.10956778  0.08964636  0.04980354       0.017
   0.12948919  0.08964636  0.04980354       0.017
   0.10956778  0.10956778  0.04980354       0.009
   0.12948919  0.10956778  0.04980354       0.017
   0.12948919  0.12948919  0.04980354       0.009
   0.06972495  0.06972495  0.06972495       0.003
   0.08964636  0.06972495  0.06972495       0.009
   0.10956778  0.06972495  0.06972495       0.009
   0.12948919  0.06972495  0.06972495       0.009
   0.08964636  0.08964636  0.06972495       0.009
   0.10956778  0.08964636  0.06972495       0.017
   0.12948919  0.08964636  0.06972495       0.017
   0.10956778  0.10956778  0.06972495       0.009
   0.12948919  0.10956778  0.06972495       0.017
   0.12948919  0.12948919  0.06972495       0.009
   0.08964636  0.08964636  0.08964636       0.003
   0.10956778  0.08964636  0.08964636       0.009
   0.12948919  0.08964636  0.08964636       0.009
   0.10956778  0.10956778  0.08964636       0.009
   0.12948919  0.10956778  0.08964636       0.017
   0.12948919  0.12948919  0.08964636       0.009
   0.10956778  0.10956778  0.10956778       0.003
   0.12948919  0.10956778  0.10956778       0.009
   0.12948919  0.12948919  0.10956778       0.009
   0.12948919  0.12948919  0.12948919       0.003
 
 k-points in reciprocal lattice and weights: K-Mesh Generated with KP-Resolved Value 
   0.03571429  0.03571429  0.03571429       0.003
   0.10714286  0.03571429  0.03571429       0.009
   0.17857143  0.03571429  0.03571429       0.009
   0.25000000  0.03571429  0.03571429       0.009
   0.32142857  0.03571429  0.03571429       0.009
   0.39285714  0.03571429  0.03571429       0.009
   0.46428571  0.03571429  0.03571429       0.009
   0.10714286  0.10714286  0.03571429       0.009
   0.17857143  0.10714286  0.03571429       0.017
   0.25000000  0.10714286  0.03571429       0.017
   0.32142857  0.10714286  0.03571429       0.017
   0.39285714  0.10714286  0.03571429       0.017
   0.46428571  0.10714286  0.03571429       0.017
   0.17857143  0.17857143  0.03571429       0.009
   0.25000000  0.17857143  0.03571429       0.017
   0.32142857  0.17857143  0.03571429       0.017
   0.39285714  0.17857143  0.03571429       0.017
   0.46428571  0.17857143  0.03571429       0.017
   0.25000000  0.25000000  0.03571429       0.009
   0.32142857  0.25000000  0.03571429       0.017
   0.39285714  0.25000000  0.03571429       0.017
   0.46428571  0.25000000  0.03571429       0.017
   0.32142857  0.32142857  0.03571429       0.009
   0.39285714  0.32142857  0.03571429       0.017
   0.46428571  0.32142857  0.03571429       0.017
   0.39285714  0.39285714  0.03571429       0.009
   0.46428571  0.39285714  0.03571429       0.017
   0.46428571  0.46428571  0.03571429       0.009
   0.10714286  0.10714286  0.10714286       0.003
   0.17857143  0.10714286  0.10714286       0.009
   0.25000000  0.10714286  0.10714286       0.009
   0.32142857  0.10714286  0.10714286       0.009
   0.39285714  0.10714286  0.10714286       0.009
   0.46428571  0.10714286  0.10714286       0.009
   0.17857143  0.17857143  0.10714286       0.009
   0.25000000  0.17857143  0.10714286       0.017
   0.32142857  0.17857143  0.10714286       0.017
   0.39285714  0.17857143  0.10714286       0.017
   0.46428571  0.17857143  0.10714286       0.017
   0.25000000  0.25000000  0.10714286       0.009
   0.32142857  0.25000000  0.10714286       0.017
   0.39285714  0.25000000  0.10714286       0.017
   0.46428571  0.25000000  0.10714286       0.017
   0.32142857  0.32142857  0.10714286       0.009
   0.39285714  0.32142857  0.10714286       0.017
   0.46428571  0.32142857  0.10714286       0.017
   0.39285714  0.39285714  0.10714286       0.009
   0.46428571  0.39285714  0.10714286       0.017
   0.46428571  0.46428571  0.10714286       0.009
   0.17857143  0.17857143  0.17857143       0.003
   0.25000000  0.17857143  0.17857143       0.009
   0.32142857  0.17857143  0.17857143       0.009
   0.39285714  0.17857143  0.17857143       0.009
   0.46428571  0.17857143  0.17857143       0.009
   0.25000000  0.25000000  0.17857143       0.009
   0.32142857  0.25000000  0.17857143       0.017
   0.39285714  0.25000000  0.17857143       0.017
   0.46428571  0.25000000  0.17857143       0.017
   0.32142857  0.32142857  0.17857143       0.009
   0.39285714  0.32142857  0.17857143       0.017
   0.46428571  0.32142857  0.17857143       0.017
   0.39285714  0.39285714  0.17857143       0.009
   0.46428571  0.39285714  0.17857143       0.017
   0.46428571  0.46428571  0.17857143       0.009
   0.25000000  0.25000000  0.25000000       0.003
   0.32142857  0.25000000  0.25000000       0.009
   0.39285714  0.25000000  0.25000000       0.009
   0.46428571  0.25000000  0.25000000       0.009
   0.32142857  0.32142857  0.25000000       0.009
   0.39285714  0.32142857  0.25000000       0.017
   0.46428571  0.32142857  0.25000000       0.017
   0.39285714  0.39285714  0.25000000       0.009
   0.46428571  0.39285714  0.25000000       0.017
   0.46428571  0.46428571  0.25000000       0.009
   0.32142857  0.32142857  0.32142857       0.003
   0.39285714  0.32142857  0.32142857       0.009
   0.46428571  0.32142857  0.32142857       0.009
   0.39285714  0.39285714  0.32142857       0.009
   0.46428571  0.39285714  0.32142857       0.017
   0.46428571  0.46428571  0.32142857       0.009
   0.39285714  0.39285714  0.39285714       0.003
   0.46428571  0.39285714  0.39285714       0.009
   0.46428571  0.46428571  0.39285714       0.009
   0.46428571  0.46428571  0.46428571       0.003
 
 position of ions in fractional coordinates (direct lattice) 
   0.25000000  0.25000000  0.25000000
   0.00000000  0.00000000  0.00000000
   0.25000000  0.75000000  0.75000000
   0.00000000  0.50000000  0.50000000
   0.75000000  0.25000000  0.75000000
   0.50000000  0.00000000  0.50000000
   0.75000000  0.75000000  0.25000000
   0.50000000  0.50000000  0.00000000
 
 position of ions in cartesian coordinates  (Angst):
   0.89637927  0.89637927  0.89637927
   0.00000000  0.00000000  0.00000000
   0.89637927  2.68913782  2.68913782
   0.00000000  1.79275854  1.79275854
   2.68913782  0.89637927  2.68913782
   1.79275854  0.00000000  1.79275854
   2.68913782  2.68913782  0.89637927
   1.79275854  1.79275854  0.00000000
 


--------------------------------------------------------------------------------------------------------


 k-point  1 :   0.0357 0.0357 0.0357  plane waves:    2719
 k-point  2 :   0.1071 0.0357 0.0357  plane waves:    2710
 k-point  3 :   0.1786 0.0357 0.0357  plane waves:    2711
 k-point  4 :   0.2500 0.0357 0.0357  plane waves:    2716
 k-point  5 :   0.3214 0.0357 0.0357  plane waves:    2728
 k-point  6 :   0.3929 0.0357 0.0357  plane waves:    2720
 k-point  7 :   0.4643 0.0357 0.0357  plane waves:    2719
 k-point  8 :   0.1071 0.1071 0.0357  plane waves:    2715
 k-point  9 :   0.1786 0.1071 0.0357  plane waves:    2718
 k-point 10 :   0.2500 0.1071 0.0357  plane waves:    2719
 k-point 11 :   0.3214 0.1071 0.0357  plane waves:    2719
 k-point 12 :   0.3929 0.1071 0.0357  plane waves:    2711
 k-point 13 :   0.4643 0.1071 0.0357  plane waves:    2717
 k-point 14 :   0.1786 0.1786 0.0357  plane waves:    2712
 k-point 15 :   0.2500 0.1786 0.0357  plane waves:    2711
 k-point 16 :   0.3214 0.1786 0.0357  plane waves:    2713
 k-point 17 :   0.3929 0.1786 0.0357  plane waves:    2716
 k-point 18 :   0.4643 0.1786 0.0357  plane waves:    2715
 k-point 19 :   0.2500 0.2500 0.0357  plane waves:    2708
 k-point 20 :   0.3214 0.2500 0.0357  plane waves:    2701
 k-point 21 :   0.3929 0.2500 0.0357  plane waves:    2706
 k-point 22 :   0.4643 0.2500 0.0357  plane waves:    2713
 k-point 23 :   0.3214 0.3214 0.0357  plane waves:    2697
 k-point 24 :   0.3929 0.3214 0.0357  plane waves:    2701
 k-point 25 :   0.4643 0.3214 0.0357  plane waves:    2703
 k-point 26 :   0.3929 0.3929 0.0357  plane waves:    2704
 k-point 27 :   0.4643 0.3929 0.0357  plane waves:    2702
 k-point 28 :   0.4643 0.4643 0.0357  plane waves:    2700
 k-point 29 :   0.1071 0.1071 0.1071  plane waves:    2701
 k-point 30 :   0.1786 0.1071 0.1071  plane waves:    2712
 k-point 31 :   0.2500 0.1071 0.1071  plane waves:    2715
 k-point 32 :   0.3214 0.1071 0.1071  plane waves:    2722
 k-point 33 :   0.3929 0.1071 0.1071  plane waves:    2717
 k-point 34 :   0.4643 0.1071 0.1071  plane waves:    2717
 k-point 35 :   0.1786 0.1786 0.1071  plane waves:    2709
 k-point 36 :   0.2500 0.1786 0.1071  plane waves:    2711
 k-point 37 :   0.3214 0.1786 0.1071  plane waves:    2710
 k-point 38 :   0.3929 0.1786 0.1071  plane waves:    2712
 k-point 39 :   0.4643 0.1786 0.1071  plane waves:    2718
 k-point 40 :   0.2500 0.2500 0.1071  plane waves:    2706
 k-point 41 :   0.3214 0.2500 0.1071  plane waves:    2706
 k-point 42 :   0.3929 0.2500 0.1071  plane waves:    2705
 k-point 43 :   0.4643 0.2500 0.1071  plane waves:    2706
 k-point 44 :   0.3214 0.3214 0.1071  plane waves:    2702
 k-point 45 :   0.3929 0.3214 0.1071  plane waves:    2703
 k-point 46 :   0.4643 0.3214 0.1071  plane waves:    2702
 k-point 47 :   0.3929 0.3929 0.1071  plane waves:    2704
 k-point 48 :   0.4643 0.3929 0.1071  plane waves:    2702
 k-point 49 :   0.4643 0.4643 0.1071  plane waves:    2709
 k-point 50 :   0.1786 0.1786 0.1786  plane waves:    2707
 k-point 51 :   0.2500 0.1786 0.1786  plane waves:    2712
 k-point 52 :   0.3214 0.1786 0.1786  plane waves:    2709
 k-point 53 :   0.3929 0.1786 0.1786  plane waves:    2703
 k-point 54 :   0.4643 0.1786 0.1786  plane waves:    2715
 k-point 55 :   0.2500 0.2500 0.1786  plane waves:    2717
 k-point 56 :   0.3214 0.2500 0.1786  plane waves:    2713
 k-point 57 :   0.3929 0.2500 0.1786  plane waves:    2707
 k-point 58 :   0.4643 0.2500 0.1786  plane waves:    2711
 k-point 59 :   0.3214 0.3214 0.1786  plane waves:    2711
 k-point 60 :   0.3929 0.3214 0.1786  plane waves:    2706
 k-point 61 :   0.4643 0.3214 0.1786  plane waves:    2708
 k-point 62 :   0.3929 0.3929 0.1786  plane waves:    2711
 k-point 63 :   0.4643 0.3929 0.1786  plane waves:    2700
 k-point 64 :   0.4643 0.4643 0.1786  plane waves:    2706
 k-point 65 :   0.2500 0.2500 0.2500  plane waves:    2722
 k-point 66 :   0.3214 0.2500 0.2500  plane waves:    2710
 k-point 67 :   0.3929 0.2500 0.2500  plane waves:    2712
 k-point 68 :   0.4643 0.2500 0.2500  plane waves:    2705
 k-point 69 :   0.3214 0.3214 0.2500  plane waves:    2717
 k-point 70 :   0.3929 0.3214 0.2500  plane waves:    2710
 k-point 71 :   0.4643 0.3214 0.2500  plane waves:    2705
 k-point 72 :   0.3929 0.3929 0.2500  plane waves:    2704
 k-point 73 :   0.4643 0.3929 0.2500  plane waves:    2697
 k-point 74 :   0.4643 0.4643 0.2500  plane waves:    2699
 k-point 75 :   0.3214 0.3214 0.3214  plane waves:    2704
 k-point 76 :   0.3929 0.3214 0.3214  plane waves:    2695
 k-point 77 :   0.4643 0.3214 0.3214  plane waves:    2704
 k-point 78 :   0.3929 0.3929 0.3214  plane waves:    2703
 k-point 79 :   0.4643 0.3929 0.3214  plane waves:    2701
 k-point 80 :   0.4643 0.4643 0.3214  plane waves:    2703
 k-point 81 :   0.3929 0.3929 0.3929  plane waves:    2701
 k-point 82 :   0.4643 0.3929 0.3929  plane waves:    2706
 k-point 83 :   0.4643 0.4643 0.3929  plane waves:    2705
 k-point 84 :   0.4643 0.4643 0.4643  plane waves:    2704

 maximum and minimum number of plane-waves per node :      2728     2695

 maximum number of plane-waves:      2728
 maximum index in each direction: 
   IXMAX=    8   IYMAX=    8   IZMAX=    8
   IXMIN=   -9   IYMIN=   -9   IZMIN=   -9


 serial   3D FFT for wavefunctions
 parallel 3D FFT for charge:
    minimum data exchange during FFTs selected (reduces bandwidth)


 total amount of memory used by VASP MPI-rank0    51874. kBytes
=======================================================================

   base      :      30000. kBytes
   nonl-proj :      15058. kBytes
   fftplans  :        905. kBytes
   grid      :       2114. kBytes
   one-center:         24. kBytes
   wavefun   :       3773. kBytes
 
     INWAV:  cpu time    0.0000: real time    0.0000
 Broyden mixing: mesh for mixing (old mesh)
   NGX = 17   NGY = 17   NGZ = 17
  (NGX  = 48   NGY  = 48   NGZ  = 48)
  gives a total of   4913 points

 initial charge density was supplied:
 charge density of overlapping atoms calculated
 number of electron      32.0000000 magnetization 
 keeping initial charge density in first step


--------------------------------------------------------------------------------------------------------


 Maximum index for augmentation-charges          749 (set IRDMAX)


--------------------------------------------------------------------------------------------------------


 First call to EWALD:  gamma=   0.494
 Maximum number of real-space cells 3x 3x 3
 Maximum number of reciprocal cells 3x 3x 3

    FEWALD:  cpu time    0.0030: real time    0.0057


--------------------------------------- Iteration      1(   1)  ---------------------------------------


    POTLOK:  cpu time    0.0180: real time    0.0396
    SETDIJ:  cpu time    0.0170: real time    0.0283
     EDDAV:  cpu time    1.3708: real time    1.4922
       DOS:  cpu time    0.0040: real time    0.0137
    --------------------------------------------
      LOOP:  cpu time    1.4108: real time    1.5746

 eigenvalue-minimisations  :  4032
 total energy-change (2. order) : 0.9795945E+02  (-0.2571155E+04)
 number of electron      32.0000000 magnetization 
 augmentation part       32.0000000 magnetization 

 Free energy of the ion-electron system (eV)
  ---------------------------------------------------
  alpha Z        PSCENC =        76.11486991
  Ewald energy   TEWEN  =     -1384.57015210
  -Hartree energ DENC   =       -71.36019569
  -exchange      EXHF   =         0.00000000
  -V(xc)+E(xc)   XCENC  =        61.79361046
  PAW double counting   =       914.77613359     -872.73161751
  entropy T*S    EENTRO =        -0.00060489
  eigenvalues    EBANDS =       196.72463532
  atomic energy  EATOM  =      1177.21277265
  Solvation  Ediel_sol  =         0.00000000
  ---------------------------------------------------
  free energy    TOTEN  =        97.95945174 eV

  energy without entropy =       97.96005663  energy(sigma->0) =       97.95975419


--------------------------------------------------------------------------------------------------------




--------------------------------------- Iteration      1(   2)  ---------------------------------------


     EDDAV:  cpu time    2.2377: real time    2.2616
       DOS:  cpu time    0.0000: real time    0.0006
    --------------------------------------------
      LOOP:  cpu time    2.2367: real time    2.2613

 eigenvalue-minimisations  :  6336
 total energy-change (2. order) :-0.1702774E+03  (-0.1671907E+03)
 number of electron      32.0000000 magnetization 
 augmentation part       32.0000000 magnetization 

 Free energy of the ion-electron system (eV)
  ---------------------------------------------------
  alpha Z        PSCENC =        76.11486991
  Ewald energy   TEWEN  =     -1384.57015210
  -Hartree energ DENC   =       -71.36019569
  -exchange      EXHF   =         0.00000000
  -V(xc)+E(xc)   XCENC  =        61.79361046
  PAW double counting   =       914.77613359     -872.73161751
  entropy T*S    EENTRO =        -0.00000000
  eigenvalues    EBANDS =        26.44662482
  atomic energy  EATOM  =      1177.21277265
  Solvation  Ediel_sol  =         0.00000000
  ---------------------------------------------------
  free energy    TOTEN  =       -72.31795387 eV

  energy without entropy =      -72.31795387  energy(sigma->0) =      -72.31795387


--------------------------------------------------------------------------------------------------------




--------------------------------------- Iteration      1(   3)  ---------------------------------------


     EDDAV:  cpu time    1.7027: real time    1.7145
       DOS:  cpu time    0.0000: real time    0.0006
    --------------------------------------------
      LOOP:  cpu time    1.7027: real time    1.7151

 eigenvalue-minimisations  :  4848
 total energy-change (2. order) :-0.2864245E+01  (-0.2864245E+01)
 number of electron      32.0000000 magnetization 
 augmentation part       32.0000000 magnetization 

 Free energy of the ion-electron system (eV)
  ---------------------------------------------------
  alpha Z        PSCENC =        76.11486991
  Ewald energy   TEWEN  =     -1384.57015210
  -Hartree energ DENC   =       -71.36019569
  -exchange      EXHF   =         0.00000000
  -V(xc)+E(xc)   XCENC  =        61.79361046
  PAW double counting   =       914.77613359     -872.73161751
  entropy T*S    EENTRO =        -0.00000000
  eigenvalues    EBANDS =        23.58237992
  atomic energy  EATOM  =      1177.21277265
  Solvation  Ediel_sol  =         0.00000000
  ---------------------------------------------------
  free energy    TOTEN  =       -75.18219876 eV

  energy without entropy =      -75.18219876  energy(sigma->0) =      -75.18219876


--------------------------------------------------------------------------------------------------------




--------------------------------------- Iteration      1(   4)  ---------------------------------------


     EDDAV:  cpu time    2.7936: real time    2.8115
       DOS:  cpu time    0.0000: real time    0.0006
    --------------------------------------------
      LOOP:  cpu time    2.7946: real time    2.8122

 eigenvalue-minimisations  :  7344
 total energy-change (2. order) :-0.1891678E-01  (-0.1891678E-01)
 number of electron      32.0000000 magnetization 
 augmentation part       32.0000000 magnetization 

 Free energy of the ion-electron system (eV)
  ---------------------------------------------------
  alpha Z        PSCENC =        76.11486991
  Ewald energy   TEWEN  =     -1384.57015210
  -Hartree energ DENC   =       -71.36019569
  -exchange      EXHF   =         0.00000000
  -V(xc)+E(xc)   XCENC  =        61.79361046
  PAW double counting   =       914.77613359     -872.73161751
  entropy T*S    EENTRO =        -0.00000000
  eigenvalues    EBANDS =        23.56346314
  atomic energy  EATOM  =      1177.21277265
  Solvation  Ediel_sol  =         0.00000000
  ---------------------------------------------------
  free energy    TOTEN  =       -75.20111555 eV

  energy without entropy =      -75.20111555  energy(sigma->0) =      -75.20111555


--------------------------------------------------------------------------------------------------------




--------------------------------------- Iteration      1(   5)  ---------------------------------------


     EDDAV:  cpu time    1.6677: real time    1.6823
       DOS:  cpu time    0.0000: real time    0.0006
    CHARGE:  cpu time    0.0810: real time    0.1096
    MIXING:  cpu time    0.0030: real time    0.0168
    --------------------------------------------
      LOOP:  cpu time    1.7507: real time    1.8094

 eigenvalue-minimisations  :  4752
 total energy-change (2. order) :-0.2900375E-05  (-0.2900375E-05)
 number of electron      32.0000000 magnetization 
 augmentation part       -0.0709844 magnetization 

 Broyden mixing:
  rms(total) = 0.16294E+01    rms(broyden)= 0.16293E+01
  rms(prec ) = 0.25807E+01
  weight for this iteration     100.00

 Free energy of the ion-electron system (eV)
  ---------------------------------------------------
  alpha Z        PSCENC =        76.11486991
  Ewald energy   TEWEN  =     -1384.57015210
  -Hartree energ DENC   =       -71.36019569
  -exchange      EXHF   =         0.00000000
  -V(xc)+E(xc)   XCENC  =        61.79361046
  PAW double counting   =       914.77613359     -872.73161751
  entropy T*S    EENTRO =        -0.00000000
  eigenvalues    EBANDS =        23.56346024
  atomic energy  EATOM  =      1177.21277265
  Solvation  Ediel_sol  =         0.00000000
  ---------------------------------------------------
  free energy    TOTEN  =       -75.20111845 eV

  energy without entropy =      -75.20111845  energy(sigma->0) =      -75.20111845


--------------------------------------------------------------------------------------------------------




--------------------------------------- Iteration      1(   6)  ---------------------------------------


    POTLOK:  cpu time    0.0070: real time    0.0119
    SETDIJ:  cpu time    0.0030: real time    0.0035
     EDDAV:  cpu time    1.5948: real time    1.5980
       DOS:  cpu time    0.0010: real time    0.0007
    CHARGE:  cpu time    0.0730: real time    0.0745
    MIXING:  cpu time    0.0040: real time    0.0130
    --------------------------------------------
      LOOP:  cpu time    1.6827: real time    1.7015

 eigenvalue-minimisations  :  4680
 total energy-change (2. order) : 0.1770074E+01  (-0.1335841E+00)
 number of electron      32.0000000 magnetization 
 augmentation part       -0.0735671 magnetization 

 Broyden mixing:
  rms(total) = 0.10681E+01    rms(broyden)= 0.10681E+01
  rms(prec ) = 0.15210E+01
  weight for this iteration     100.00

 eigenvalues of (default mixing * dielectric matrix)
  average eigenvalue GAMMA=   2.7387
  2.7387

 Free energy of the ion-electron system (eV)
  ---------------------------------------------------
  alpha Z        PSCENC =        76.11486991
  Ewald energy   TEWEN  =     -1384.57015210
  -Hartree energ DENC   =       -86.37848614
  -exchange      EXHF   =         0.00000000
  -V(xc)+E(xc)   XCENC  =        63.03492302
  PAW double counting   =      3642.43842619    -3600.74000380
  entropy T*S    EENTRO =        -0.00000000
  eigenvalues    EBANDS =        39.45660558
  atomic energy  EATOM  =      1177.21277265
  Solvation  Ediel_sol  =         0.00000000
  ---------------------------------------------------
  free energy    TOTEN  =       -73.43104469 eV

  energy without entropy =      -73.43104469  energy(sigma->0) =      -73.43104469


--------------------------------------------------------------------------------------------------------




--------------------------------------- Iteration      1(   7)  ---------------------------------------


    POTLOK:  cpu time    0.0050: real time    0.0106
    SETDIJ:  cpu time    0.0040: real time    0.0035
     EDDAV:  cpu time    2.0847: real time    2.0894
       DOS:  cpu time    0.0010: real time    0.0006
    CHARGE:  cpu time    0.0740: real time    0.0744
    MIXING:  cpu time    0.0020: real time    0.0073
    --------------------------------------------
      LOOP:  cpu time    2.1707: real time    2.1859

 eigenvalue-minimisations  :  5880
 total energy-change (2. order) : 0.5924990E+00  (-0.1738294E+00)
 number of electron      32.0000000 magnetization 
 augmentation part       -0.0771023 magnetization 

 Broyden mixing:
  rms(total) = 0.22257E+00    rms(broyden)= 0.22257E+00
  rms(prec ) = 0.24767E+00
  weight for this iteration     100.00

 eigenvalues of (default mixing * dielectric matrix)
  average eigenvalue GAMMA=   2.1751
  1.9332  2.4171

 Free energy of the ion-electron system (eV)
  ---------------------------------------------------
  alpha Z        PSCENC =        76.11486991
  Ewald energy   TEWEN  =     -1384.57015210
  -Hartree energ DENC   =      -107.19773037
  -exchange      EXHF   =         0.00000000
  -V(xc)+E(xc)   XCENC  =        64.84052637
  PAW double counting   =     12051.52921396   -12010.10503300
  entropy T*S    EENTRO =        -0.00000000
  eigenvalues    EBANDS =        59.33698684
  atomic energy  EATOM  =      1177.21277265
  Solvation  Ediel_sol  =         0.00000000
  ---------------------------------------------------
  free energy    TOTEN  =       -72.83854574 eV

  energy without entropy =      -72.83854574  energy(sigma->0) =      -72.83854574


--------------------------------------------------------------------------------------------------------




--------------------------------------- Iteration      1(   8)  ---------------------------------------


    POTLOK:  cpu time    0.0050: real time    0.0136
    SETDIJ:  cpu time    0.0030: real time    0.0035
     EDDAV:  cpu time    2.4356: real time    2.4397
       DOS:  cpu time    0.0010: real time    0.0007
    CHARGE:  cpu time    0.0740: real time    0.0744
    MIXING:  cpu time    0.0010: real time    0.0046
    --------------------------------------------
      LOOP:  cpu time    2.5196: real time    2.5366

 eigenvalue-minimisations  :  6600
 total energy-change (2. order) : 0.1569135E-02  (-0.2371631E-02)
 number of electron      32.0000000 magnetization 
 augmentation part       -0.0769268 magnetization 

 Broyden mixing:
  rms(total) = 0.11842E-01    rms(broyden)= 0.11842E-01
  rms(prec ) = 0.19183E-01
  weight for this iteration     100.00

 eigenvalues of (default mixing * dielectric matrix)
  average eigenvalue GAMMA=   2.0257
  1.5382  2.2694  2.2694

 Free energy of the ion-electron system (eV)
  ---------------------------------------------------
  alpha Z        PSCENC =        76.11486991
  Ewald energy   TEWEN  =     -1384.57015210
  -Hartree energ DENC   =      -106.23061445
  -exchange      EXHF   =         0.00000000
  -V(xc)+E(xc)   XCENC  =        64.79490216
  PAW double counting   =     14218.22501382   -14176.68650605
  entropy T*S    EENTRO =        -0.00000000
  eigenvalues    EBANDS =        58.30273746
  atomic energy  EATOM  =      1177.21277265
  Solvation  Ediel_sol  =         0.00000000
  ---------------------------------------------------
  free energy    TOTEN  =       -72.83697660 eV

  energy without entropy =      -72.83697660  energy(sigma->0) =      -72.83697660


--------------------------------------------------------------------------------------------------------




--------------------------------------- Iteration      1(   9)  ---------------------------------------


    POTLOK:  cpu time    0.0060: real time    0.0174
    SETDIJ:  cpu time    0.0040: real time    0.0035
     EDDAV:  cpu time    2.1307: real time    2.1356
       DOS:  cpu time    0.0010: real time    0.0007
    CHARGE:  cpu time    0.0750: real time    0.0746
    MIXING:  cpu time    0.0000: real time    0.0005
    --------------------------------------------
      LOOP:  cpu time    2.2167: real time    2.2324

 eigenvalue-minimisations  :  5856
 total energy-change (2. order) :-0.1898675E-03  (-0.4437169E-04)
 number of electron      32.0000000 magnetization 
 augmentation part       -0.0768228 magnetization 

 Broyden mixing:
  rms(total) = 0.61428E-02    rms(broyden)= 0.61428E-02
  rms(prec ) = 0.94077E-02
  weight for this iteration     100.00

 eigenvalues of (default mixing * dielectric matrix)
  average eigenvalue GAMMA=   1.9767
  0.9865  2.0296  2.4455  2.4455

 Free energy of the ion-electron system (eV)
  ---------------------------------------------------
  alpha Z        PSCENC =        76.11486991
  Ewald energy   TEWEN  =     -1384.57015210
  -Hartree energ DENC   =      -106.04660412
  -exchange      EXHF   =         0.00000000
  -V(xc)+E(xc)   XCENC  =        64.78003630
  PAW double counting   =     14156.30494730   -14114.75663299
  entropy T*S    EENTRO =        -0.00000000
  eigenvalues    EBANDS =        58.12359657
  atomic energy  EATOM  =      1177.21277265
  Solvation  Ediel_sol  =         0.00000000
  ---------------------------------------------------
  free energy    TOTEN  =       -72.83716647 eV

  energy without entropy =      -72.83716647  energy(sigma->0) =      -72.83716647


--------------------------------------------------------------------------------------------------------




--------------------------------------- Iteration      1(  10)  ---------------------------------------


    POTLOK:  cpu time    0.0060: real time    0.0206
    SETDIJ:  cpu time    0.0030: real time    0.0035
     EDDAV:  cpu time    2.2857: real time    2.2892
       DOS:  cpu time    0.0000: real time    0.0006
    CHARGE:  cpu time    0.0750: real time    0.0745
    MIXING:  cpu time    0.0000: real time    0.0005
    --------------------------------------------
      LOOP:  cpu time    2.3696: real time    2.3890

 eigenvalue-minimisations  :  6192
 total energy-change (2. order) :-0.1238780E-03  (-0.1181575E-04)
 number of electron      32.0000000 magnetization 
 augmentation part       -0.0767916 magnetization 

 Broyden mixing:
  rms(total) = 0.47865E-03    rms(broyden)= 0.47856E-03
  rms(prec ) = 0.78660E-03
  weight for this iteration     100.00

 eigenvalues of (default mixing * dielectric matrix)
  average eigenvalue GAMMA=   1.9268
  1.0293  2.8245  2.4194  1.3539  2.0068

 Free energy of the ion-electron system (eV)
  ---------------------------------------------------
  alpha Z        PSCENC =        76.11486991
  Ewald energy   TEWEN  =     -1384.57015210
  -Hartree energ DENC   =      -106.13665133
  -exchange      EXHF   =         0.00000000
  -V(xc)+E(xc)   XCENC  =        64.78727198
  PAW double counting   =     14089.61107916   -14048.06040972
  entropy T*S    EENTRO =        -0.00000000
  eigenvalues    EBANDS =        58.20392909
  atomic energy  EATOM  =      1177.21277265
  Solvation  Ediel_sol  =         0.00000000
  ---------------------------------------------------
  free energy    TOTEN  =       -72.83729035 eV

  energy without entropy =      -72.83729035  energy(sigma->0) =      -72.83729035


--------------------------------------------------------------------------------------------------------




--------------------------------------- Iteration      1(  11)  ---------------------------------------


    POTLOK:  cpu time    0.0060: real time    0.0198
    SETDIJ:  cpu time    0.0040: real time    0.0035
     EDDAV:  cpu time    2.2507: real time    2.2559
       DOS:  cpu time    0.0010: real time    0.0007
    CHARGE:  cpu time    0.0750: real time    0.0745
    MIXING:  cpu time    0.0000: real time    0.0006
    --------------------------------------------
      LOOP:  cpu time    2.3366: real time    2.3549

 eigenvalue-minimisations  :  6144
 total energy-change (2. order) :-0.1117554E-05  (-0.1620412E-06)
 number of electron      32.0000000 magnetization 
 augmentation part       -0.0767896 magnetization 

 Broyden mixing:
  rms(total) = 0.28107E-03    rms(broyden)= 0.28106E-03
  rms(prec ) = 0.32379E-03
  weight for this iteration     100.00

 eigenvalues of (default mixing * dielectric matrix)
  average eigenvalue GAMMA=   2.0033
  2.8990  2.6236  2.4186  2.0584  1.0102  1.0102

 Free energy of the ion-electron system (eV)
  ---------------------------------------------------
  alpha Z        PSCENC =        76.11486991
  Ewald energy   TEWEN  =     -1384.57015210
  -Hartree energ DENC   =      -106.14419510
  -exchange      EXHF   =         0.00000000
  -V(xc)+E(xc)   XCENC  =        64.78793486
  PAW double counting   =     14089.04784340   -14047.49697010
  entropy T*S    EENTRO =        -0.00000000
  eigenvalues    EBANDS =        58.21060502
  atomic energy  EATOM  =      1177.21277265
  Solvation  Ediel_sol  =         0.00000000
  ---------------------------------------------------
  free energy    TOTEN  =       -72.83729147 eV

  energy without entropy =      -72.83729147  energy(sigma->0) =      -72.83729147


--------------------------------------------------------------------------------------------------------




--------------------------------------- Iteration      1(  12)  ---------------------------------------


    POTLOK:  cpu time    0.0140: real time    0.0145
    SETDIJ:  cpu time    0.0030: real time    0.0035
     EDDAV:  cpu time    2.2977: real time    2.3041
       DOS:  cpu time    0.0010: real time    0.0007
    CHARGE:  cpu time    0.0740: real time    0.0744
    MIXING:  cpu time    0.0010: real time    0.0006
    --------------------------------------------
      LOOP:  cpu time    2.3906: real time    2.3978

 eigenvalue-minimisations  :  6192
 total energy-change (2. order) :-0.3707373E-06  (-0.6915653E-08)
 number of electron      32.0000000 magnetization 
 augmentation part       -0.0767902 magnetization 

 Broyden mixing:
  rms(total) = 0.15195E-04    rms(broyden)= 0.15194E-04
  rms(prec ) = 0.15874E-04
  weight for this iteration     100.00

 eigenvalues of (default mixing * dielectric matrix)
  average eigenvalue GAMMA=   1.9477
  2.8734  2.6753  2.4157  2.0455  1.6351  1.0103  0.9787

 Free energy of the ion-electron system (eV)
  ---------------------------------------------------
  alpha Z        PSCENC =        76.11486991
  Ewald energy   TEWEN  =     -1384.57015210
  -Hartree energ DENC   =      -106.14541392
  -exchange      EXHF   =         0.00000000
  -V(xc)+E(xc)   XCENC  =        64.78805665
  PAW double counting   =     14091.14368547   -14049.59292132
  entropy T*S    EENTRO =        -0.00000000
  eigenvalues    EBANDS =        58.21181082
  atomic energy  EATOM  =      1177.21277265
  Solvation  Ediel_sol  =         0.00000000
  ---------------------------------------------------
  free energy    TOTEN  =       -72.83729184 eV

  energy without entropy =      -72.83729184  energy(sigma->0) =      -72.83729184


--------------------------------------------------------------------------------------------------------




--------------------------------------- Iteration      1(  13)  ---------------------------------------


    POTLOK:  cpu time    0.0060: real time    0.0174
    SETDIJ:  cpu time    0.0040: real time    0.0035
     EDDAV:  cpu time    2.3376: real time    2.3456
       DOS:  cpu time    0.0010: real time    0.0007
    --------------------------------------------
      LOOP:  cpu time    2.3486: real time    2.3672

 eigenvalue-minimisations  :  6312
 total energy-change (2. order) :-0.9171345E-08  (-0.1423544E-10)
 number of electron      32.0000000 magnetization 
 augmentation part       -0.0767902 magnetization 

 Free energy of the ion-electron system (eV)
  ---------------------------------------------------
  alpha Z        PSCENC =        76.11486991
  Ewald energy   TEWEN  =     -1384.57015210
  -Hartree energ DENC   =      -106.14544389
  -exchange      EXHF   =         0.00000000
  -V(xc)+E(xc)   XCENC  =        64.78805960
  PAW double counting   =     14091.05017724   -14049.49941705
  entropy T*S    EENTRO =        -0.00000000
  eigenvalues    EBANDS =        58.21184179
  atomic energy  EATOM  =      1177.21277265
  Solvation  Ediel_sol  =         0.00000000
  ---------------------------------------------------
  free energy    TOTEN  =       -72.83729184 eV

  energy without entropy =      -72.83729184  energy(sigma->0) =      -72.83729184


--------------------------------------------------------------------------------------------------------




 average (electrostatic) potential at core
  the test charge radii are     0.5770
  (the norm of the test charge is              1.0000)
       1 -71.8465       2 -71.8465       3 -71.8465       4 -71.8465       5 -71.8465
       6 -71.8465       7 -71.8465       8 -71.8465
 
 
 
 E-fermi :  10.9097     XC(G=0): -13.2981     alpha+bet :-18.3459


 k-point     1 :       0.0357    0.0357    0.0357
  band No.  band energies     occupation 
      1     -10.5330      2.00000
      2      -2.5000      2.00000
      3      -2.5000      2.00000
      4      -2.5000      2.00000
      5      -1.3738      2.00000
      6      -1.3738      2.00000
      7      -1.3738      2.00000
      8       4.3827      2.00000
      9       4.3827      2.00000
     10       4.3827      2.00000
     11       4.5243      2.00000
     12       4.5243      2.00000
     13       4.5243      2.00000
     14      10.4438      2.00000
     15      10.6322      2.00000
     16      10.6322      2.00000
     17      15.3459      0.00000
     18      15.3459      0.00000
     19      15.3459      0.00000
     20      15.7274      0.00000
     21      15.7274      0.00000
     22      15.7274      0.00000
     23      16.3352      0.00000
     24      16.3353      0.00000

 k-point     2 :       0.1071    0.0357    0.0357
  band No.  band energies     occupation 
      1     -10.4398      2.00000
      2      -3.5779      2.00000
      3      -2.4366      2.00000
      4      -2.4366      2.00000
      5      -1.3234      2.00000
      6      -1.3234      2.00000
      7      -0.2116      2.00000
      8       4.0617      2.00000
      9       4.0617      2.00000
     10       4.4609      2.00000
     11       4.4609      2.00000
     12       4.4765      2.00000
     13       4.6148      2.00000
     14       9.9953      2.00000
     15      10.2757      2.00000
     16      10.5165      2.00000
     17      15.1115      0.00000
     18      15.6304      0.00000
     19      15.6304      0.00000
     20      16.1787      0.00000
     21      16.1850      0.00000
     22      16.1850      0.00000
     23      16.2662      0.00000
     24      16.7696      0.00000

 k-point     3 :       0.1786    0.0357    0.0357
  band No.  band energies     occupation 
      1     -10.2537      2.00000
      2      -4.5976      2.00000
      3      -2.3145      2.00000
      4      -2.3145      2.00000
      5      -1.2293      2.00000
      6      -1.2293      2.00000
      7       0.9718      2.00000
      8       3.6261      2.00000
      9       3.6261      2.00000
     10       4.2204      2.00000
     11       4.2204      2.00000
     12       4.6642      2.00000
     13       4.7951      2.00000
     14       9.3698      2.00000
     15       9.6907      2.00000
     16      10.1416      2.00000
     17      14.9635      0.00000
     18      16.1284      0.00000
     19      16.2339      0.00000
     20      16.2339      0.00000
     21      16.7600      0.00000
     22      16.9733      0.00000
     23      16.9733      0.00000
     24      17.5093      0.00000

 k-point     4 :       0.2500    0.0357    0.0357
  band No.  band energies     occupation 
      1      -9.9753      2.00000
      2      -5.5511      2.00000
      3      -2.1440      2.00000
      4      -2.1440      2.00000
      5      -1.1067      2.00000
      6      -1.1067      2.00000
      7       2.1586      2.00000
      8       3.1538      2.00000
      9       3.1538      2.00000
     10       3.8695      2.00000
     11       3.8695      2.00000
     12       4.9468      2.00000
     13       5.0635      2.00000
     14       8.6568      2.00000
     15       9.0036      2.00000
     16       9.5645      2.00000
     17      14.8998      0.00000
     18      15.9428      0.00000
     19      17.1131      0.00000
     20      17.1131      0.00000
     21      17.4709      0.00000
     22      17.9928      0.00000
     23      17.9928      0.00000
     24      18.4259      0.00000

 k-point     5 :       0.3214    0.0357    0.0357
  band No.  band energies     occupation 
      1      -9.6051      2.00000
      2      -6.4322      2.00000
      3      -1.9455      2.00000
      4      -1.9455      2.00000
      5      -0.9805      2.00000
      6      -0.9805      2.00000
      7       2.7204      2.00000
      8       2.7204      2.00000
      9       3.3266      2.00000
     10       3.4885      2.00000
     11       3.4885      2.00000
     12       5.3265      2.00000
     13       5.4179      2.00000
     14       7.9125      2.00000
     15       8.2926      2.00000
     16       8.8394      2.00000
     17      14.9121      0.00000
     18      15.7298      0.00000
     19      18.1942      0.00000
     20      18.1942      0.00000
     21      18.3132      0.00000
     22      19.1627      0.00000
     23      19.1627      0.00000
     24      19.4299      0.00000

 k-point     6 :       0.3929    0.0357    0.0357
  band No.  band energies     occupation 
      1      -9.1444      2.00000
      2      -7.2356      2.00000
      3      -1.7548      2.00000
      4      -1.7548      2.00000
      5      -0.8828      2.00000
      6      -0.8828      2.00000
      7       2.3940      2.00000
      8       2.3940      2.00000
      9       3.1588      2.00000
     10       3.1588      2.00000
     11       4.4466      2.00000
     12       5.8121      2.00000
     13       5.8550      2.00000
     14       7.1574      2.00000
     15       7.6013      2.00000
     16       8.0198      2.00000
     17      14.9909      0.00000
     18      15.5101      0.00000
     19      19.2808      0.00000
     20      19.3936      0.00000
     21      19.3936      0.00000
     22      20.3900      0.00000
     23      20.4055      0.00000
     24      20.4888      0.00000

 k-point     7 :       0.4643    0.0357    0.0357
  band No.  band energies     occupation 
      1      -8.5946      2.00000
      2      -7.9575      2.00000
      3      -1.6297      2.00000
      4      -1.6297      2.00000
      5      -0.8355      2.00000
      6      -0.8355      2.00000
      7       2.2224      2.00000
      8       2.2224      2.00000
      9       2.9621      2.00000
     10       2.9621      2.00000
     11       5.4748      2.00000
     12       6.3682      2.00000
     13       6.3698      2.00000
     14       6.4236      2.00000
     15       6.9552      2.00000
     16       7.1792      2.00000
     17      15.1253      0.00000
     18      15.3031      0.00000
     19      20.3501      0.00000
     20      20.5566      0.00000
     21      20.5566      0.00000
     22      21.3670      0.00000
     23      21.3922      0.00000
     24      21.4740      0.00000

 k-point     8 :       0.1071    0.1071    0.0357
  band No.  band energies     occupation 
      1     -10.3468      2.00000
      2      -3.5053      2.00000
      3      -3.5053      2.00000
      4      -2.3795      2.00000
      5      -1.2767      2.00000
      6      -0.1828      2.00000
      7      -0.1828      2.00000
      8       3.5472      2.00000
      9       4.1635      2.00000
     10       4.1635      2.00000
     11       4.5559      2.00000
     12       4.5559      2.00000
     13       4.6789      2.00000
     14       9.4502      2.00000
     15      10.0011      2.00000
     16      10.5215      2.00000
     17      15.4548      0.00000
     18      15.4548      0.00000
     19      15.5893      0.00000
     20      16.5163      0.00000
     21      16.5737      0.00000
     22      16.5737      0.00000
     23      16.8766      0.00000
     24      16.8878      0.00000

 k-point     9 :       0.1786    0.1071    0.0357
  band No.  band energies     occupation 
      1     -10.1609      2.00000
      2      -4.5190      2.00000
      3      -3.3631      2.00000
      4      -2.2735      2.00000
      5      -1.1900      2.00000
      6      -0.1368      2.00000
      7       0.9659      2.00000
      8       2.9958      2.00000
      9       3.7373      2.00000
     10       4.3336      2.00000
     11       4.3685      2.00000
     12       4.6920      2.00000
     13       4.7475      2.00000
     14       8.7716      2.00000
     15       9.4451      2.00000
     16      10.3066      2.00000
     17      15.3273      0.00000
     18      15.8992      0.00000
     19      16.1121      0.00000
     20      16.4763      0.00000
     21      17.1267      0.00000
     22      17.3003      0.00000
     23      17.5078      0.00000
     24      17.6831      0.00000

 k-point    10 :       0.2500    0.1071    0.0357
  band No.  band energies     occupation 
      1      -9.8827      2.00000
      2      -5.4684      2.00000
      3      -3.1574      2.00000
      4      -2.1393      2.00000
      5      -1.0753      2.00000
      6      -0.0987      2.00000
      7       2.0946      2.00000
      8       2.4884      2.00000
      9       3.2708      2.00000
     10       4.0246      2.00000
     11       4.5291      2.00000
     12       4.6787      2.00000
     13       5.0415      2.00000
     14       8.0337      2.00000
     15       8.7770      2.00000
     16       9.8483      2.00000
     17      15.2744      0.00000
     18      16.3097      0.00000
     19      16.5491      0.00000
     20      17.0276      0.00000
     21      17.8155      0.00000
     22      18.2700      0.00000
     23      18.4015      0.00000
     24      18.4493      0.00000

 k-point    11 :       0.3214    0.1071    0.0357
  band No.  band energies     occupation 
      1      -9.5130      2.00000
      2      -6.3464      2.00000
      3      -2.8998      2.00000
      4      -2.0201      2.00000
      5      -0.9427      2.00000
      6      -0.1061      2.00000
      7       2.1043      2.00000
      8       2.8243      2.00000
      9       3.1659      2.00000
     10       3.7267      2.00000
     11       4.2558      2.00000
     12       5.0915      2.00000
     13       5.4546      2.00000
     14       7.2786      2.00000
     15       8.0777      2.00000
     16       9.2020      2.00000
     17      15.2930      0.00000
     18      16.1055      0.00000
     19      17.4693      0.00000
     20      18.1331      0.00000
     21      18.6366      0.00000
     22      19.3401      0.00000
     23      19.3898      0.00000
     24      19.4098      0.00000

 k-point    12 :       0.3929    0.1071    0.0357
  band No.  band energies     occupation 
      1      -9.0530      2.00000
      2      -7.1478      2.00000
      3      -2.6104      2.00000
      4      -1.9868      2.00000
      5      -0.7840      2.00000
      6      -0.1949      2.00000
      7       1.9103      2.00000
      8       2.4339      2.00000
      9       3.5398      2.00000
     10       3.9486      2.00000
     11       4.1377      2.00000
     12       5.5873      2.00000
     13       6.0218      2.00000
     14       6.5258      2.00000
     15       7.3914      2.00000
     16       8.4280      2.00000
     17      15.3750      0.00000
     18      15.8913      0.00000
     19      18.5721      0.00000
     20      19.3516      0.00000
     21      19.5818      0.00000
     22      20.3054      0.00000
     23      20.4733      0.00000
     24      20.5136      0.00000

 k-point    13 :       0.4643    0.1071    0.0357
  band No.  band energies     occupation 
      1      -8.5040      2.00000
      2      -7.8680      2.00000
      3      -2.3238      2.00000
      4      -2.0946      2.00000
[...]
     11       5.9474      2.00000
     12       6.9675      2.00000
     13       7.0740      2.00000
     14       7.0740      2.00000
     15       7.4225      2.00000
     16       8.5301      2.00000
     17      17.9627      0.00000
     18      18.3717      0.00000
     19      18.3717      0.00000
     20      18.8734      0.00000
     21      19.2183      0.00000
     22      19.5965      0.00000
     23      20.0880      0.00000
     24      20.0880      0.00000

 k-point    73 :       0.4643    0.3929    0.2500
  band No.  band energies     occupation 
      1      -6.7384      2.00000
      2      -6.1433      2.00000
      3      -5.0464      2.00000
      4      -4.6016      2.00000
      5      -1.5711      2.00000
      6      -1.1397      2.00000
      7      -0.0822      2.00000
      8       0.4924      2.00000
      9       5.3859      2.00000
     10       5.6889      2.00000
     11       6.5000      2.00000
     12       6.9805      2.00000
     13       7.1694      2.00000
     14       7.1962      2.00000
     15       7.6988      2.00000
     16       8.2204      2.00000
     17      18.4000      0.00000
     18      18.6271      0.00000
     19      18.8460      0.00000
     20      18.8907      0.00000
     21      19.3411      0.00000
     22      19.6058      0.00000
     23      19.6414      0.00000
     24      20.1624      0.00000

 k-point    74 :       0.4643    0.4643    0.2500
  band No.  band energies     occupation 
      1      -6.2316      2.00000
      2      -5.6606      2.00000
      3      -5.6606      2.00000
      4      -5.1325      2.00000
      5      -1.2124      2.00000
      6      -0.7017      2.00000
      7      -0.7017      2.00000
      8      -0.1504      2.00000
      9       5.7803      2.00000
     10       6.1539      2.00000
     11       6.1539      2.00000
     12       6.5824      2.00000
     13       7.5517      2.00000
     14       7.7320      2.00000
     15       7.7320      2.00000
     16       8.0924      2.00000
     17      18.5647      0.00000
     18      18.9152      0.00000
     19      18.9152      0.00000
     20      19.0301      0.00000
     21      19.4233      0.00000
     22      19.5640      0.00000
     23      19.5640      0.00000
     24      20.2053      0.00000

 k-point    75 :       0.3214    0.3214    0.3214
  band No.  band energies     occupation 
      1      -7.7909      2.00000
      2      -4.8707      2.00000
      3      -4.8707      2.00000
      4      -4.8707      2.00000
      5      -1.0092      2.00000
      6      -1.0092      2.00000
      7      -1.0092      2.00000
      8       1.8132      2.00000
      9       5.5169      2.00000
     10       5.5169      2.00000
     11       5.5169      2.00000
     12       6.6616      2.00000
     13       6.6616      2.00000
     14       6.6616      2.00000
     15       8.4805      2.00000
     16       8.4805      2.00000
     17      17.5906      0.00000
     18      17.5906      0.00000
     19      17.5906      0.00000
     20      18.8620      0.00000
     21      18.8620      0.00000
     22      19.0470      0.00000
     23      21.5925      0.00000
     24      21.5926      0.00000

 k-point    76 :       0.3929    0.3214    0.3214
  band No.  band energies     occupation 
      1      -7.3490      2.00000
      2      -5.5705      2.00000
      3      -4.5951      2.00000
      4      -4.5951      2.00000
      5      -1.5854      2.00000
      6      -1.5854      2.00000
      7      -0.6418      2.00000
      8       1.0792      2.00000
      9       5.7112      2.00000
     10       5.7112      2.00000
     11       6.5003      2.00000
     12       6.8559      2.00000
     13       6.8559      2.00000
     14       6.9754      2.00000
     15       8.1015      2.00000
     16       8.4010      2.00000
     17      17.8775      0.00000
     18      18.0323      0.00000
     19      18.0323      0.00000
     20      18.6809      0.00000
     21      19.2590      0.00000
     22      19.2592      0.00000
     23      20.7401      0.00000
     24      20.7403      0.00000

 k-point    77 :       0.4643    0.3214    0.3214
  band No.  band energies     occupation 
      1      -6.8263      2.00000
      2      -6.2297      2.00000
      3      -4.3990      2.00000
      4      -4.3990      2.00000
      5      -1.9337      2.00000
      6      -1.9337      2.00000
      7      -0.1597      2.00000
      8       0.4181      2.00000
      9       5.8135      2.00000
     10       5.8135      2.00000
     11       6.9459      2.00000
     12       6.9459      2.00000
     13       7.3297      2.00000
     14       7.3530      2.00000
     15       7.7108      2.00000
     16       8.0090      2.00000
     17      18.1711      0.00000
     18      18.4462      0.00000
     19      18.6538      0.00000
     20      18.6538      0.00000
     21      19.7147      0.00000
     22      19.7433      0.00000
     23      19.8435      0.00000
     24      19.8435      0.00000

 k-point    78 :       0.3929    0.3929    0.3214
  band No.  band energies     occupation 
      1      -6.9152      2.00000
      2      -5.2130      2.00000
      3      -5.2130      2.00000
      4      -4.4805      2.00000
      5      -2.0161      2.00000
      6      -1.3021      2.00000
      7      -1.3021      2.00000
      8       0.3481      2.00000
      9       6.0471      2.00000
     10       6.5631      2.00000
     11       6.5631      2.00000
     12       7.1659      2.00000
     13       7.2063      2.00000
     14       7.2063      2.00000
     15       7.9200      2.00000
     16       8.3506      2.00000
     17      18.1993      0.00000
     18      18.3023      0.00000
     19      18.3023      0.00000
     20      18.9116      0.00000
     21      19.1720      0.00000
     22      19.2932      0.00000
     23      20.1667      0.00000
     24      20.1667      0.00000

 k-point    79 :       0.4643    0.3929    0.3214
  band No.  band energies     occupation 
      1      -6.4058      2.00000
      2      -5.8314      2.00000
      3      -4.8480      2.00000
      4      -4.5644      2.00000
      5      -2.0948      2.00000
      6      -1.8172      2.00000
      7      -0.8606      2.00000
      8      -0.3033      2.00000
      9       6.2963      2.00000
     10       6.4730      2.00000
     11       7.1662      2.00000
     12       7.3425      2.00000
     13       7.3525      2.00000
     14       7.5808      2.00000
     15       7.6759      2.00000
     16       8.1209      2.00000
     17      18.5715      0.00000
     18      18.6001      0.00000
     19      18.8067      0.00000
     20      18.8400      0.00000
     21      19.3559      0.00000
     22      19.4989      0.00000
     23      19.6865      0.00000
     24      19.6935      0.00000

 k-point    80 :       0.4643    0.4643    0.3214
  band No.  band energies     occupation 
      1      -5.9186      2.00000
      2      -5.3849      2.00000
      3      -5.3849      2.00000
      4      -4.9325      2.00000
      5      -1.8963      2.00000
      6      -1.4548      2.00000
      7      -1.4548      2.00000
      8      -0.9354      2.00000
      9       6.6524      2.00000
     10       6.9368      2.00000
     11       6.9368      2.00000
     12       7.2925      2.00000
     13       7.6565      2.00000
     14       7.7814      2.00000
     15       7.7814      2.00000
     16       8.0695      2.00000
     17      18.7398      0.00000
     18      18.9839      0.00000
     19      18.9839      0.00000
     20      19.1053      0.00000
     21      19.2174      0.00000
     22      19.3370      0.00000
     23      19.3370      0.00000
     24      19.7644      0.00000

 k-point    81 :       0.3929    0.3929    0.3929
  band No.  band energies     occupation 
      1      -6.4936      2.00000
      2      -4.9306      2.00000
      3      -4.9306      2.00000
      4      -4.9306      2.00000
      5      -1.9007      2.00000
      6      -1.9007      2.00000
      7      -1.9007      2.00000
      8      -0.3786      2.00000
      9       6.9167      2.00000
     10       6.9167      2.00000
     11       6.9167      2.00000
     12       7.3952      2.00000
     13       7.3952      2.00000
     14       7.3952      2.00000
     15       8.1351      2.00000
     16       8.1351      2.00000
     17      18.4542      0.00000
     18      18.4542      0.00000
     19      18.4542      0.00000
     20      19.0469      0.00000
     21      19.0469      0.00000
     22      19.2391      0.00000
     23      20.0977      0.00000
     24      20.0977      0.00000

 k-point    82 :       0.4643    0.3929    0.3929
  band No.  band energies     occupation 
      1      -6.0049      2.00000
      2      -5.4694      2.00000
      3      -4.7285      2.00000
      4      -4.7285      2.00000
      5      -2.2623      2.00000
      6      -2.2623      2.00000
      7      -1.5368      2.00000
      8      -1.0148      2.00000
      9       7.0414      2.00000
     10       7.0414      2.00000
     11       7.5550      2.00000
     12       7.5550      2.00000
     13       7.6000      2.00000
     14       7.6429      2.00000
     15       7.8946      2.00000
     16       8.0247      2.00000
     17      18.6984      0.00000
     18      18.8054      0.00000
     19      18.8054      0.00000
     20      18.9015      0.00000
     21      19.2924      0.00000
     22      19.4039      0.00000
     23      19.5221      0.00000
     24      19.5222      0.00000

 k-point    83 :       0.4643    0.4643    0.3929
  band No.  band energies     occupation 
      1      -5.5552      2.00000
      2      -5.0992      2.00000
      3      -5.0992      2.00000
      4      -4.8114      2.00000
      5      -2.3458      2.00000
      6      -2.0631      2.00000
      7      -2.0631      2.00000
      8      -1.6166      2.00000
      9       7.3550      2.00000
     10       7.5203      2.00000
     11       7.5203      2.00000
     12       7.7666      2.00000
     13       7.7750      2.00000
     14       7.8234      2.00000
     15       7.8234      2.00000
     16       8.0261      2.00000
     17      18.9072      0.00000
     18      18.9840      0.00000
     19      18.9840      0.00000
     20      19.0979      0.00000
     21      19.1338      0.00000
     22      19.2762      0.00000
     23      19.2762      0.00000
     24      19.4193      0.00000

 k-point    84 :       0.4643    0.4643    0.4643
  band No.  band energies     occupation 
      1      -5.1832      2.00000
      2      -4.8940      2.00000
      3      -4.8940      2.00000
      4      -4.8940      2.00000
      5      -2.4308      2.00000
      6      -2.4308      2.00000
      7      -2.4308      2.00000
      8      -2.1463      2.00000
      9       7.8119      2.00000
     10       7.8119      2.00000
     11       7.8119      2.00000
     12       7.8707      2.00000
     13       7.8707      2.00000
     14       7.8707      2.00000
     15       7.9593      2.00000
     16       7.9593      2.00000
     17      19.0315      0.00000
     18      19.0315      0.00000
     19      19.0315      0.00000
     20      19.0937      0.00000
     21      19.0937      0.00000
     22      19.2156      0.00000
     23      19.2156      0.00000
     24      19.2183      0.00000


--------------------------------------------------------------------------------------------------------


 soft charge-density along one line, spin component           1
         0         1         2         3         4         5         6         7         8         9
 total charge-density along one line
 
 pseudopotential strength for first ion, spin component:           1
 12.175  20.476  -0.000   0.000  -0.000  -0.000   0.000  -0.000
 20.476  34.437  -0.000   0.000  -0.000  -0.000   0.000  -0.000
 -0.000  -0.000  -2.973   0.000   0.000  -5.312   0.000   0.000
  0.000   0.000   0.000  -2.973   0.000   0.000  -5.312   0.000
 -0.000  -0.000   0.000   0.000  -2.973   0.000   0.000  -5.312
 -0.000  -0.000  -5.312   0.000   0.000  -9.470   0.000   0.000
  0.000   0.000   0.000  -5.312   0.000   0.000  -9.470   0.000
 -0.000  -0.000   0.000   0.000  -5.312   0.000   0.000  -9.470
 total augmentation occupancy for first ion, spin component:           1
  7.090  -2.460  -0.000   0.000  -0.000   0.000  -0.000   0.000
 -2.460   0.909   0.000   0.000   0.000   0.000   0.000   0.000
 -0.000   0.000   5.591   0.000   0.000  -1.805  -0.000  -0.000
  0.000   0.000   0.000   5.591   0.000   0.000  -1.805   0.000
 -0.000  -0.000   0.000   0.000   5.591  -0.000  -0.000  -1.805
 -0.000   0.000  -1.805   0.000   0.000   0.600  -0.000  -0.000
 -0.000   0.000   0.000  -1.805   0.000  -0.000   0.600   0.000
 -0.000   0.000  -0.000  -0.000  -1.805   0.000   0.000   0.600


------------------------ aborting loop because EDIFF is reached ----------------------------------------


    CHARGE:  cpu time    0.0740: real time    0.0740
    FORLOC:  cpu time    0.0020: real time    0.0035
    FORNL :  cpu time    0.2010: real time    0.2107
    STRESS:  cpu time    1.2168: real time    1.2301
    FORCOR:  cpu time    0.0050: real time    0.0111
    FORHAR:  cpu time    0.0020: real time    0.0034
    MIXING:  cpu time    0.0010: real time    0.0005
    OFIELD:  cpu time    0.0000: real time    0.0021

  FORCE on cell =-STRESS in cart. coord.  units (eV):
  Direction    XX          YY          ZZ          XY          YZ          ZX
  --------------------------------------------------------------------------------------
  Alpha Z    76.11487    76.11487    76.11487
  Ewald    -461.52417  -461.52417  -461.52417     0.00000    -0.00000     0.00000
  Hartree    35.38182    35.38182    35.38182    -0.00000    -0.00000    -0.00000
  E(xc)    -131.72577  -131.72577  -131.72577     0.00000    -0.00000     0.00000
  Local    -127.28263  -127.28263  -127.28263    -0.00000    -0.00000    -0.00000
  n-local    29.42416    28.64837    29.17064     0.59312     0.80013     0.39047
  augment     0.49380     0.49380     0.49380     0.00000    -0.00000    -0.00000
  Kinetic   566.78987   583.77996   582.99614    -5.97367    -7.89231    -4.26721
  Fock        0.00000     0.00000     0.00000     0.00000     0.00000     0.00000
  -------------------------------------------------------------------------------------
  Total      -1.60570    -1.60570    -1.60570    -0.00000     0.00000     0.00000
  in kB     -55.81101   -55.81101   -55.81101    -0.00000     0.00000     0.00000
  external pressure =      -55.81 kB  Pullay stress =        0.00 kB


 VOLUME and BASIS-vectors are now :
 -----------------------------------------------------------------------------
  energy-cutoff  :      875.00
  volume of cell :       46.10
      direct lattice vectors                 reciprocal lattice vectors
     3.585517088  0.000000000  0.000000000     0.278899800  0.000000000  0.000000000
     0.000000000  3.585517088  0.000000000     0.000000000  0.278899800  0.000000000
     0.000000000  0.000000000  3.585517088     0.000000000  0.000000000  0.278899800

  length of vectors
     3.585517088  3.585517088  3.585517088     0.278899800  0.278899800  0.278899800


 FORCES acting on ions
    electron-ion (+dipol)            ewald-force                    non-local-force                 convergence-correction
 -----------------------------------------------------------------------------------------------
   0.595E-14 0.219E-12 0.323E-13   0.426E-13 0.711E-14 0.711E-14   -.642E-16 0.000E+00 -.130E-16   0.202E-14 -.179E-15 -.124E-13
   0.248E-14 0.281E-14 0.210E-13   0.292E-13 0.747E-14 -.711E-14   0.330E-16 -.460E-16 -.867E-18   0.220E-14 0.194E-14 -.988E-14
   0.644E-14 0.247E-12 0.475E-13   0.142E-13 0.000E+00 0.000E+00   -.971E-16 0.000E+00 0.156E-16   0.261E-14 0.334E-15 -.110E-13
   0.297E-14 0.314E-13 0.473E-13   -.954E-15 0.244E-17 -.130E-13   0.260E-16 -.364E-16 0.173E-17   0.244E-14 0.197E-14 -.938E-14
   0.213E-13 -.183E-12 -.323E-12   0.711E-14 0.000E+00 0.142E-13   -.867E-16 0.416E-16 0.173E-17   0.138E-13 -.863E-15 -.112E-13
   0.183E-13 0.251E-14 -.708E-12   -.214E-13 -.371E-16 0.125E-14   0.781E-16 -.503E-16 -.173E-17   0.132E-14 0.206E-14 -.860E-14
   0.456E-13 -.527E-12 0.166E-14   -.213E-13 -.711E-14 0.711E-14   -.503E-16 0.486E-16 -.147E-16   0.142E-13 0.271E-15 -.123E-13
   0.287E-13 -.370E-12 -.385E-12   -.497E-13 -.717E-14 -.719E-14   0.815E-16 -.434E-17 0.607E-17   0.529E-15 0.221E-14 -.101E-13
 -----------------------------------------------------------------------------------------------
   0.132E-12 -.577E-12 -.127E-11   -.184E-15 0.271E-15 0.242E-14   -.798E-16 -.468E-16 -.520E-17   0.391E-13 0.774E-14 -.849E-13
 
 
 POSITION                                       TOTAL-FORCE (eV/Angst)
 -----------------------------------------------------------------------------------
      0.89638      0.89638      0.89638         0.000000      0.000000     -0.000000
      0.00000      0.00000      0.00000         0.000000     -0.000000     -0.000000
      0.89638      2.68914      2.68914        -0.000000     -0.000000     -0.000000
      0.00000      1.79276      1.79276         0.000000     -0.000000      0.000000
      2.68914      0.89638      2.68914        -0.000000     -0.000000     -0.000000
      1.79276      0.00000      1.79276         0.000000      0.000000     -0.000000
      2.68914      2.68914      0.89638        -0.000000      0.000000      0.000000
      1.79276      1.79276      0.00000         0.000000     -0.000000      0.000000
 -----------------------------------------------------------------------------------
    total drift:                                0.000000     -0.000000     -0.000000


--------------------------------------------------------------------------------------------------------



  FREE ENERGIE OF THE ION-ELECTRON SYSTEM (eV)
  ---------------------------------------------------
  free  energy   TOTEN  =       -72.83729184 eV

  energy  without entropy=      -72.83729184  energy(sigma->0) =      -72.83729184
 


--------------------------------------------------------------------------------------------------------


    POTLOK:  cpu time    0.0120: real time    0.0166


--------------------------------------------------------------------------------------------------------


 stress matrix after NEB project (eV)
     -1.60570      0.00000      0.00000
     -0.00000     -1.60570     -0.00000
      0.00000      0.00000     -1.60570
  FORCES: max atom, RMS     0.000000    0.000000
  FORCE total and by dimension    0.000000    0.000000
  Stress total and by dimension    2.781156    1.605701


--------------------------------------------------------------------------------------------------------


  
 reached required accuracy - stopping structural energy minimisation
     LOOP+:  cpu time   29.5365: real time   30.0245
    4ORBIT:  cpu time    0.0000: real time    0.0000

 total amount of memory used by VASP MPI-rank0    51874. kBytes
=======================================================================

   base      :      30000. kBytes
   nonl-proj :      15058. kBytes
   fftplans  :        905. kBytes
   grid      :       2114. kBytes
   one-center:         24. kBytes
   wavefun   :       3773. kBytes
 
  
  
 General timing and accounting informations for this job:
 ========================================================
  
                  Total CPU time used (sec):       31.987
                            User time (sec):       31.017
                          System time (sec):        0.970
                         Elapsed time (sec):       33.651
  
                   Maximum memory used (kb):      126988.
                   Average memory used (kb):           0.
  
                          Minor page faults:        31816
                          Major page faults:          356
                 Voluntary context switches:         8387
