 running on   24 total cores
 distrk:  each k-point on   24 cores,    1 groups
 distr:  one band on    1 cores,   24 groups
 using from now: INCAR     
 vasp.5.4.4.18Apr17-6-g9f103f2a35 (build Jan 14 2019 14:48:31) complex          
  
 POSCAR found type information on POSCAR  C 
 POSCAR found :  1 types and       8 ions
 scaLAPACK will be used

 ----------------------------------------------------------------------------- 
|                                                                             |
|           W    W    AA    RRRRR   N    N  II  N    N   GGGG   !!!           |
|           W    W   A  A   R    R  NN   N  II  NN   N  G    G  !!!           |
|           W    W  A    A  R    R  N N  N  II  N N  N  G       !!!           |
|           W WW W  AAAAAA  RRRRR   N  N N  II  N  N N  G  GGG   !            |
|           WW  WW  A    A  R   R   N   NN  II  N   NN  G    G                |
|           W    W  A    A  R    R  N    N  II  N    N   GGGG   !!!           |
|                                                                             |
|      For optimal performance we recommend to set                            |
|        NCORE= 4 - approx SQRT( number of cores)                             |
|      NCORE specifies how many cores store one orbital (NPAR=cpu/NCORE).     |
|      This setting can  greatly improve the performance of VASP for DFT.     |
|      The default,   NCORE=1            might be grossly inefficient         |
|      on modern multi-core architectures or massively parallel machines.     |
|      Do your own testing !!!!                                               |
|      Unfortunately you need to use the default for GW and RPA calculations. |
|      (for HF NCORE is supported but not extensively tested yet)             |
|                                                                             |
 ----------------------------------------------------------------------------- 

 WARNING: for PREC=h ENMAX is automatically increase by 25 %
        this was not the case for versions prior to vasp.4.4
 LDA part: xc-table for Pade appr. of Perdew
 POSCAR found type information on POSCAR  C 
 POSCAR found :  1 types and       8 ions
 POSCAR, INCAR and KPOINTS ok, starting setup
 FFT: planning ...
 WAVECAR not read
 entering main loop
       N       E                     dE             d eps       ncg     rms          rms(c)
DAV:   1     0.979594517446E+02    0.97959E+02   -0.25712E+04  4032   0.198E+03
DAV:   2    -0.723179538675E+02   -0.17028E+03   -0.16719E+03  6336   0.223E+02
DAV:   3    -0.751821987628E+02   -0.28642E+01   -0.28642E+01  4848   0.406E+01
DAV:   4    -0.752011155462E+02   -0.18917E-01   -0.18917E-01  7344   0.256E+00
DAV:   5    -0.752011184466E+02   -0.29004E-05   -0.29004E-05  4752   0.384E-02    0.163E+01
DAV:   6    -0.734310446882E+02    0.17701E+01   -0.13358E+00  4680   0.614E+00    0.107E+01
DAV:   7    -0.728385457374E+02    0.59250E+00   -0.17383E+00  5880   0.708E+00    0.223E+00
DAV:   8    -0.728369766020E+02    0.15691E-02   -0.23716E-02  6600   0.117E+00    0.118E-01
DAV:   9    -0.728371664695E+02   -0.18987E-03   -0.44372E-04  5856   0.140E-01    0.614E-02
DAV:  10    -0.728372903475E+02   -0.12388E-03   -0.11816E-04  6192   0.859E-02    0.479E-03
DAV:  11    -0.728372914650E+02   -0.11176E-05   -0.16204E-06  6144   0.996E-03    0.281E-03
DAV:  12    -0.728372918358E+02   -0.37074E-06   -0.69157E-08  6192   0.238E-03    0.152E-04
DAV:  13    -0.728372918450E+02   -0.91713E-08   -0.14235E-10  6312   0.925E-05
   1 F= -.72837292E+02 E0= -.72837292E+02  d E =-.728373E+02
 curvature:   0.00 expect dE= 0.000E+00 dE for cont linesearch  0.000E+00
 trial: gam= 0.00000 g(F)=  0.994E-59 g(S)=  0.000E+00 ort = 0.000E+00 (trialstep = 0.100E+01)
 search vector abs. value=  0.100E-09
 reached required accuracy - stopping structural energy minimisation
