<?xml version="1.0" encoding="ISO-8859-1"?>
<modeling>
 <generator>
  <i name="program" type="string">vasp </i>
  <i name="version" type="string">5.4.4.18Apr17-6-g9f103f2a35  </i>
  <i name="subversion" type="string">(build Jan 14 2019 14:48:31) complex            parallel </i>
  <i name="platform" type="string">LinuxIFC </i>
  <i name="date" type="string">2019 08 26 </i>
  <i name="time" type="string">21:14:05 </i>
 </generator>
 <incar>
  <i type="int" name="ISTART">     0</i>
  <i type="string" name="PREC">high     (precision level)</i>
  <i type="logical" name="ADDGRID"> T  </i>
  <i type="int" name="NELM">    40</i>
  <i type="int" name="NELMIN">     4</i>
  <i type="int" name="IBRION">     2</i>
  <i name="EDIFF">      0.00000001</i>
  <i name="EDIFFG">     -0.01000000</i>
  <i type="int" name="NSW">   100</i>
  <i type="int" name="ISIF">     2</i>
  <i type="logical" name="LREAL"> F  </i>
  <i type="int" name="ISMEAR">     0</i>
  <i name="SIGMA">      0.05000000</i>
  <i type="logical" name="LWAVE"> F  </i>
  <i type="logical" name="LCHARG"> F  </i>
  <v type="int" name="KPOINT_BSE">    -1     0     0     0</v>
  <i type="int" name="NELM">    40</i>
 </incar>
 <structure name="primitive_cell" >
  <crystal>
   <varray name="basis" >
    <v>       1.79275854       1.79275854      -0.00000000 </v>
    <v>       1.79275854       0.00000000      -1.79275854 </v>
    <v>       0.00000000       1.79275854      -1.79275854 </v>
   </varray>
   <i name="volume">     11.52379167 </i>
   <varray name="rec_basis" >
    <v>       0.27889980       0.27889980       0.27889980 </v>
    <v>       0.27889980      -0.27889980      -0.27889980 </v>
    <v>      -0.27889980       0.27889980      -0.27889980 </v>
   </varray>
  </crystal>
  <varray name="positions" >
   <v>      -0.25000000      -0.25000000      -0.25000000 </v>
   <v>       0.00000000       0.00000000       0.00000000 </v>
  </varray>
 </structure>
 <varray name="primitive_index" >
  <v type="int" >        1 </v>
  <v type="int" >        2 </v>
 </varray>
 <kpoints>
  <generation param="Monkhorst-Pack">
   <v type="int" name="divisions">      14       14       14 </v>
   <v name="usershift">      0.00000000       0.00000000       0.00000000 </v>
   <v name="genvec1">      0.07142857       0.00000000       0.00000000 </v>
   <v name="genvec2">      0.00000000       0.07142857       0.00000000 </v>
   <v name="genvec3">      0.00000000       0.00000000       0.07142857 </v>
   <v name="shift">      0.50000000       0.50000000       0.50000000 </v>
  </generation>
  <varray name="kpointlist" >
   <v>       0.03571429       0.03571429       0.03571429 </v>
   <v>       0.10714286       0.03571429       0.03571429 </v>
   <v>       0.17857143       0.03571429       0.03571429 </v>
   <v>       0.25000000       0.03571429       0.03571429 </v>
   <v>       0.32142857       0.03571429       0.03571429 </v>
   <v>       0.39285714       0.03571429       0.03571429 </v>
   <v>       0.46428571       0.03571429       0.03571429 </v>
   <v>       0.10714286       0.10714286       0.03571429 </v>
   <v>       0.17857143       0.10714286       0.03571429 </v>
   <v>       0.25000000       0.10714286       0.03571429 </v>
   <v>       0.32142857       0.10714286       0.03571429 </v>
   <v>       0.39285714       0.10714286       0.03571429 </v>
   <v>       0.46428571       0.10714286       0.03571429 </v>
   <v>       0.17857143       0.17857143       0.03571429 </v>
   <v>       0.25000000       0.17857143       0.03571429 </v>
   <v>       0.32142857       0.17857143       0.03571429 </v>
   <v>       0.39285714       0.17857143       0.03571429 </v>
   <v>       0.46428571       0.17857143       0.03571429 </v>
   <v>       0.25000000       0.25000000       0.03571429 </v>
   <v>       0.32142857       0.25000000       0.03571429 </v>
   <v>       0.39285714       0.25000000       0.03571429 </v>
   <v>       0.46428571       0.25000000       0.03571429 </v>
   <v>       0.32142857       0.32142857       0.03571429 </v>
   <v>       0.39285714       0.32142857       0.03571429 </v>
   <v>       0.46428571       0.32142857       0.03571429 </v>
   <v>       0.39285714       0.39285714       0.03571429 </v>
   <v>       0.46428571       0.39285714       0.03571429 </v>
   <v>       0.46428571       0.46428571       0.03571429 </v>
   <v>       0.10714286       0.10714286       0.10714286 </v>
   <v>       0.17857143       0.10714286       0.10714286 </v>
   <v>       0.25000000       0.10714286       0.10714286 </v>
   <v>       0.32142857       0.10714286       0.10714286 </v>
   <v>       0.39285714       0.10714286       0.10714286 </v>
   <v>       0.46428571       0.10714286       0.10714286 </v>
   <v>       0.17857143       0.17857143       0.10714286 </v>
   <v>       0.25000000       0.17857143       0.10714286 </v>
   <v>       0.32142857       0.17857143       0.10714286 </v>
   <v>       0.39285714       0.17857143       0.10714286 </v>
   <v>       0.46428571       0.17857143       0.10714286 </v>
   <v>       0.25000000       0.25000000       0.10714286 </v>
   <v>       0.32142857       0.25000000       0.10714286 </v>
   <v>       0.39285714       0.25000000       0.10714286 </v>
   <v>       0.46428571       0.25000000       0.10714286 </v>
   <v>       0.32142857       0.32142857       0.10714286 </v>
   <v>       0.39285714       0.32142857       0.10714286 </v>
   <v>       0.46428571       0.32142857       0.10714286 </v>
   <v>       0.39285714       0.39285714       0.10714286 </v>
   <v>       0.46428571       0.39285714       0.10714286 </v>
   <v>       0.46428571       0.46428571       0.10714286 </v>
   <v>       0.17857143       0.17857143       0.17857143 </v>
   <v>       0.25000000       0.17857143       0.17857143 </v>
   <v>       0.32142857       0.17857143       0.17857143 </v>
   <v>       0.39285714       0.17857143       0.17857143 </v>
   <v>       0.46428571       0.17857143       0.17857143 </v>
   <v>       0.25000000       0.25000000       0.17857143 </v>
   <v>       0.32142857       0.25000000       0.17857143 </v>
   <v>       0.39285714       0.25000000       0.17857143 </v>
   <v>       0.46428571       0.25000000       0.17857143 </v>
   <v>       0.32142857       0.32142857       0.17857143 </v>
   <v>       0.39285714       0.32142857       0.17857143 </v>
   <v>       0.46428571       0.32142857       0.17857143 </v>
   <v>       0.39285714       0.39285714       0.17857143 </v>
   <v>       0.46428571       0.39285714       0.17857143 </v>
   <v>       0.46428571       0.46428571       0.17857143 </v>
   <v>       0.25000000       0.25000000       0.25000000 </v>
   <v>       0.32142857       0.25000000       0.25000000 </v>
   <v>       0.39285714       0.25000000       0.25000000 </v>
   <v>       0.46428571       0.25000000       0.25000000 </v>
   <v>       0.32142857       0.32142857       0.25000000 </v>
   <v>       0.39285714       0.32142857       0.25000000 </v>
   <v>       0.46428571       0.32142857       0.25000000 </v>
   <v>       0.39285714       0.39285714       0.25000000 </v>
   <v>       0.46428571       0.39285714       0.25000000 </v>
   <v>       0.46428571       0.46428571       0.25000000 </v>
   <v>       0.32142857       0.32142857       0.32142857 </v>
   <v>       0.39285714       0.32142857       0.32142857 </v>
   <v>       0.46428571       0.32142857       0.32142857 </v>
   <v>       0.39285714       0.39285714       0.32142857 </v>
   <v>       0.46428571       0.39285714       0.32142857 </v>
   <v>       0.46428571       0.46428571       0.32142857 </v>
   <v>       0.39285714       0.39285714       0.39285714 </v>
   <v>       0.46428571       0.39285714       0.39285714 </v>
   <v>       0.46428571       0.46428571       0.39285714 </v>
   <v>       0.46428571       0.46428571       0.46428571 </v>
  </varray>
  <varray name="weights" >
   <v>       0.00291545 </v>
   <v>       0.00874636 </v>
   <v>       0.00874636 </v>
   <v>       0.00874636 </v>
   <v>       0.00874636 </v>
   <v>       0.00874636 </v>
   <v>       0.00874636 </v>
   <v>       0.00874636 </v>
   <v>       0.01749271 </v>
   <v>       0.01749271 </v>
   <v>       0.01749271 </v>
   <v>       0.01749271 </v>
   <v>       0.01749271 </v>
   <v>       0.00874636 </v>
   <v>       0.01749271 </v>
   <v>       0.01749271 </v>
   <v>       0.01749271 </v>
   <v>       0.01749271 </v>
   <v>       0.00874636 </v>
   <v>       0.01749271 </v>
   <v>       0.01749271 </v>
   <v>       0.01749271 </v>
   <v>       0.00874636 </v>
   <v>       0.01749271 </v>
   <v>       0.01749271 </v>
   <v>       0.00874636 </v>
   <v>       0.01749271 </v>
   <v>       0.00874636 </v>
   <v>       0.00291545 </v>
   <v>       0.00874636 </v>
   <v>       0.00874636 </v>
   <v>       0.00874636 </v>
   <v>       0.00874636 </v>
   <v>       0.00874636 </v>
   <v>       0.00874636 </v>
   <v>       0.01749271 </v>
   <v>       0.01749271 </v>
   <v>       0.01749271 </v>
   <v>       0.01749271 </v>
   <v>       0.00874636 </v>
   <v>       0.01749271 </v>
   <v>       0.01749271 </v>
   <v>       0.01749271 </v>
   <v>       0.00874636 </v>
   <v>       0.01749271 </v>
   <v>       0.01749271 </v>
   <v>       0.00874636 </v>
   <v>       0.01749271 </v>
   <v>       0.00874636 </v>
   <v>       0.00291545 </v>
   <v>       0.00874636 </v>
   <v>       0.00874636 </v>
   <v>       0.00874636 </v>
   <v>       0.00874636 </v>
   <v>       0.00874636 </v>
   <v>       0.01749271 </v>
   <v>       0.01749271 </v>
   <v>       0.01749271 </v>
   <v>       0.00874636 </v>
   <v>       0.01749271 </v>
   <v>       0.01749271 </v>
   <v>       0.00874636 </v>
   <v>       0.01749271 </v>
   <v>       0.00874636 </v>
   <v>       0.00291545 </v>
   <v>       0.00874636 </v>
   <v>       0.00874636 </v>
   <v>       0.00874636 </v>
   <v>       0.00874636 </v>
   <v>       0.01749271 </v>
   <v>       0.01749271 </v>
   <v>       0.00874636 </v>
   <v>       0.01749271 </v>
   <v>       0.00874636 </v>
   <v>       0.00291545 </v>
   <v>       0.00874636 </v>
   <v>       0.00874636 </v>
   <v>       0.00874636 </v>
   <v>       0.01749271 </v>
   <v>       0.00874636 </v>
   <v>       0.00291545 </v>
   <v>       0.00874636 </v>
   <v>       0.00874636 </v>
   <v>       0.00291545 </v>
  </varray>
 </kpoints>
 <parameters>
  <separator name="general" >
   <i type="string" name="SYSTEM">unknown system</i>
   <i type="logical" name="LCOMPAT"> F  </i>
  </separator>
  <separator name="electronic" >
   <i type="string" name="PREC">high</i>
   <i name="ENMAX">    875.00000000</i>
   <i name="ENAUG">    946.76800000</i>
   <i name="EDIFF">      0.00000001</i>
   <i type="int" name="IALGO">    38</i>
   <i type="int" name="IWAVPR">    11</i>
   <i type="int" name="NBANDS">    24</i>
   <i name="NELECT">     32.00000000</i>
   <i type="int" name="TURBO">     0</i>
   <i type="int" name="IRESTART">     0</i>
   <i type="int" name="NREBOOT">     0</i>
   <i type="int" name="NMIN">     0</i>
   <i name="EREF">      0.00000000</i>
   <separator name="electronic smearing" >
    <i type="int" name="ISMEAR">     0</i>
    <i name="SIGMA">      0.05000000</i>
    <i name="KSPACING">      0.50000000</i>
    <i type="logical" name="KGAMMA"> T  </i>
   </separator>
   <separator name="electronic projectors" >
    <i type="logical" name="LREAL"> F  </i>
    <v name="ROPT">      0.00000000</v>
    <i type="int" name="LMAXPAW">  -100</i>
    <i type="int" name="LMAXMIX">     2</i>
    <i type="logical" name="NLSPLINE"> F  </i>
   </separator>
   <separator name="electronic startup" >
    <i type="int" name="ISTART">     0</i>
    <i type="int" name="ICHARG">     2</i>
    <i type="int" name="INIWAV">     1</i>
   </separator>
   <separator name="electronic spin" >
    <i type="int" name="ISPIN">     1</i>
    <i type="logical" name="LNONCOLLINEAR"> F  </i>
    <v name="MAGMOM">      1.00000000      1.00000000      1.00000000      1.00000000      1.00000000      1.00000000      1.00000000      1.00000000</v>
    <i name="NUPDOWN">     -1.00000000</i>
    <i type="logical" name="LSORBIT"> F  </i>
    <v name="SAXIS">      0.00000000      0.00000000      1.00000000</v>
    <i type="logical" name="LSPIRAL"> F  </i>
    <v name="QSPIRAL">      0.00000000      0.00000000      0.00000000</v>
    <i type="logical" name="LZEROZ"> F  </i>
   </separator>
   <separator name="electronic exchange-correlation" >
    <i type="logical" name="LASPH"> F  </i>
    <i type="logical" name="LMETAGGA"> F  </i>
   </separator>
   <separator name="electronic convergence" >
    <i type="int" name="NELM">    40</i>
    <i type="int" name="NELMDL">    -5</i>
    <i type="int" name="NELMIN">     4</i>
    <i name="ENINI">    875.00000000</i>
    <separator name="electronic convergence detail" >
     <i type="logical" name="LDIAG"> T  </i>
     <i type="logical" name="LSUBROT"> F  </i>
     <i name="WEIMIN">      0.00100000</i>
     <i name="EBREAK">      0.00000000</i>
     <i name="DEPER">      0.30000000</i>
     <i type="int" name="NRMM">     4</i>
     <i name="TIME">      0.40000000</i>
    </separator>
   </separator>
   <separator name="electronic mixer" >
    <i name="AMIX">      0.40000000</i>
    <i name="BMIX">      1.00000000</i>
    <i name="AMIN">      0.10000000</i>
    <i name="AMIX_MAG">      1.60000000</i>
    <i name="BMIX_MAG">      1.00000000</i>
    <separator name="electronic mixer details" >
     <i type="int" name="IMIX">     4</i>
     <i type="logical" name="MIXFIRST"> F  </i>
     <i type="int" name="MAXMIX">   -45</i>
     <i name="WC">    100.00000000</i>
     <i type="int" name="INIMIX">     1</i>
     <i type="int" name="MIXPRE">     1</i>
     <i type="int" name="MREMOVE">     5</i>
    </separator>
   </separator>
   <separator name="electronic dipolcorrection" >
    <i type="logical" name="LDIPOL"> F  </i>
    <i type="logical" name="LMONO"> F  </i>
    <i type="int" name="IDIPOL">     0</i>
    <i name="EPSILON">      1.00000000</i>
    <v name="DIPOL">   -100.00000000   -100.00000000   -100.00000000</v>
    <i name="EFIELD">      0.00000000</i>
   </separator>
  </separator>
  <separator name="grids" >
   <i type="int" name="NGX">    36</i>
   <i type="int" name="NGY">    36</i>
   <i type="int" name="NGZ">    36</i>
   <i type="int" name="NGXF">    48</i>
   <i type="int" name="NGYF">    48</i>
   <i type="int" name="NGZF">    48</i>
   <i type="logical" name="ADDGRID"> T  </i>
  </separator>
  <separator name="ionic" >
   <i type="int" name="NSW">   100</i>
   <i type="int" name="IBRION">     2</i>
   <i type="int" name="MDALGO">     0</i>
   <i type="int" name="ISIF">     2</i>
   <i name="PSTRESS">      0.00000000</i>
   <i name="EDIFFG">     -0.01000000</i>
   <i type="int" name="NFREE">     1</i>
   <i name="POTIM">      0.50000000</i>
   <i name="SMASS">     -3.00000000</i>
   <i name="SCALEE">      1.00000000</i>
  </separator>
  <separator name="ionic md" >
   <i name="TEBEG">      0.00010000</i>
   <i name="TEEND">      0.00010000</i>
   <i type="int" name="NBLOCK">     1</i>
   <i type="int" name="KBLOCK">   100</i>
   <i type="int" name="NPACO">   256</i>
   <i name="APACO">     16.00000000</i>
  </separator>
  <separator name="symmetry" >
   <i type="int" name="ISYM">     2</i>
   <i name="SYMPREC">      0.00001000</i>
  </separator>
  <separator name="dos" >
   <i type="int" name="LORBIT">     0</i>
   <v name="RWIGS">     -1.00000000</v>
   <i type="int" name="NEDOS">   301</i>
   <i name="EMIN">     10.00000000</i>
   <i name="EMAX">    -10.00000000</i>
   <i name="EFERMI">      0.00000000</i>
  </separator>
  <separator name="writing" >
   <i type="int" name="NWRITE">     2</i>
   <i type="logical" name="LWAVE"> F  </i>
   <i type="logical" name="LDOWNSAMPLE"> F  </i>
   <i type="logical" name="LCHARG"> F  </i>
   <i type="logical" name="LPARD"> F  </i>
   <i type="logical" name="LVTOT"> F  </i>
   <i type="logical" name="LVHAR"> F  </i>
   <i type="logical" name="LELF"> F  </i>
   <i type="logical" name="LOPTICS"> F  </i>
   <v name="STM">      0.00000000      0.00000000      0.00000000      0.00000000      0.00000000      0.00000000      0.00000000</v>
  </separator>
  <separator name="performance" >
   <i type="int" name="NPAR">    24</i>
   <i type="int" name="NSIM">     4</i>
   <i type="int" name="NBLK">    -1</i>
   <i type="logical" name="LPLANE"> T  </i>
   <i type="logical" name="LSCALAPACK"> T  </i>
   <i type="logical" name="LSCAAWARE"> F  </i>
   <i type="logical" name="LSCALU"> F  </i>
   <i type="logical" name="LASYNC"> F  </i>
   <i type="logical" name="LORBITALREAL"> F  </i>
  </separator>
  <separator name="miscellaneous" >
   <i type="int" name="IDIOT">     3</i>
   <i type="int" name="ISPECIAL">     0</i>
   <i type="logical" name="LMUSIC"> F  </i>
   <v name="POMASS">     12.01100000</v>
   <v name="DARWINR">      0.00000000</v>
   <v name="DARWINV">      1.00000000</v>
   <i type="logical" name="LCORR"> T  </i>
  </separator>
  <i type="logical" name="GGA_COMPAT"> T  </i>
  <i type="logical" name="LBERRY"> F  </i>
  <i type="int" name="ICORELEVEL">     0</i>
  <i type="logical" name="LDAU"> F  </i>
  <i type="int" name="I_CONSTRAINED_M">     0</i>
  <separator name="electronic exchange-correlation" >
   <i type="string" name="GGA">--</i>
   <i type="int" name="VOSKOWN">     0</i>
   <i type="logical" name="LHFCALC"> F  </i>
   <i type="string" name="PRECFOCK"></i>
   <i type="logical" name="LSYMGRAD"> F  </i>
   <i type="logical" name="LHFONE"> F  </i>
   <i type="logical" name="LRHFCALC"> F  </i>
   <i type="logical" name="LTHOMAS"> F  </i>
   <i type="logical" name="LMODELHF"> F  </i>
   <i name="ENCUT4O">     -1.00000000</i>
   <i type="int" name="EXXOEP">     0</i>
   <i type="int" name="FOURORBIT">     0</i>
   <i name="AEXX">      0.00000000</i>
   <i name="HFALPHA">      0.00000000</i>
   <i name="MCALPHA">      0.00000000</i>
   <i name="ALDAX">      1.00000000</i>
   <i name="AGGAX">      1.00000000</i>
   <i name="ALDAC">      1.00000000</i>
   <i name="AGGAC">      1.00000000</i>
   <i type="int" name="NKREDX">     1</i>
   <i type="int" name="NKREDY">     1</i>
   <i type="int" name="NKREDZ">     1</i>
   <i type="logical" name="SHIFTRED"> F  </i>
   <i type="logical" name="ODDONLY"> F  </i>
   <i type="logical" name="EVENONLY"> F  </i>
   <i type="int" name="LMAXFOCK">     0</i>
   <i type="int" name="NMAXFOCKAE">     0</i>
   <i type="logical" name="LFOCKAEDFT"> F  </i>
   <i name="HFSCREEN">      0.00000000</i>
   <i name="HFSCREENC">      0.00000000</i>
   <i type="int" name="NBANDSGWLOW">     0</i>
  </separator>
  <separator name="vdW DFT" >
   <i type="logical" name="LUSE_VDW"> F  </i>
   <i name="Zab_VDW">     -0.84910000</i>
   <i name="PARAM1">      0.12340000</i>
   <i name="PARAM2">      1.00000000</i>
   <i name="PARAM3">      0.00000000</i>
  </separator>
  <separator name="model GW" >
   <i type="int" name="MODEL_GW">     0</i>
   <i name="MODEL_EPS0">      3.45713750</i>
   <i name="MODEL_ALPHA">      1.00000000</i>
  </separator>
  <separator name="linear response parameters" >
   <i type="logical" name="LEPSILON"> F  </i>
   <i type="logical" name="LRPA"> F  </i>
   <i type="logical" name="LNABLA"> F  </i>
   <i type="logical" name="LVEL"> F  </i>
   <i type="int" name="KINTER">     0</i>
   <i name="CSHIFT">      0.10000000</i>
   <i name="OMEGAMAX">     -1.00000000</i>
   <i name="DEG_THRESHOLD">      0.00200000</i>
   <i name="RTIME">     -0.10000000</i>
   <i name="WPLASMAI">      0.00000000</i>
   <v name="DFIELD">      0.00000000      0.00000000      0.00000000</v>
   <v name="WPLASMA">      0.00000000      0.00000000      0.00000000      0.00000000      0.00000000      0.00000000      0.00000000      0.00000000      0.00000000</v>
  </separator>
  <separator name="orbital magnetization" >
   <i type="logical" name="NUCIND"> F  </i>
   <v name="MAGPOS">      0.00000000      0.00000000      0.00000000</v>
   <i type="logical" name="LNICSALL"> T  </i>
   <i type="logical" name="ORBITALMAG"> F  </i>
   <i type="logical" name="LMAGBLOCH"> F  </i>
   <i type="logical" name="LCHIMAG"> F  </i>
   <i type="logical" name="LGAUGE"> T  </i>
   <i type="int" name="MAGATOM">     0</i>
   <v name="MAGDIPOL">      0.00000000      0.00000000      0.00000000</v>
   <v name="AVECCONST">      0.00000000      0.00000000      0.00000000</v>
  </separator>
  <separator name="response functions" >
   <i type="logical" name="LADDER"> F  </i>
   <i type="logical" name="LRPAFORCE"> F  </i>
   <i type="logical" name="LFXC"> F  </i>
   <i type="logical" name="LHARTREE"> T  </i>
   <i type="int" name="IBSE">     0</i>
   <v type="int" name="KPOINT">    -1     0     0     0</v>
   <i type="logical" name="LTCTE"> F  </i>
   <i type="logical" name="LTETE"> F  </i>
   <i type="logical" name="LTRIPLET"> F  </i>
   <i type="logical" name="LFXCEPS"> F  </i>
   <i type="logical" name="LFXHEG"> F  </i>
   <i type="int" name="NATURALO">     2</i>
   <i type="logical" name="L2ORDER"> F  </i>
   <i type="logical" name="LMP2LT"> F  </i>
   <i type="logical" name="LUSEW"> F  </i>
   <i name="ENCUTGW">     -2.00000000</i>
   <i name="ENCUTGWSOFT">     -2.00000000</i>
   <i name="ENCUTLF">     -1.00000000</i>
   <i type="int" name="LMAXMP2">    -1</i>
   <i name="SCISSOR">      0.00000000</i>
   <i type="int" name="NOMEGA">     0</i>
   <i type="int" name="NOMEGAR">     0</i>
   <i type="int" name="NBANDSGW">    -1</i>
   <i type="int" name="NBANDSO">    -1</i>
   <i type="int" name="NBANDSV">    -1</i>
   <i type="int" name="NELM">    40</i>
   <i type="int" name="NELMHF">     1</i>
   <i type="int" name="DIM">     3</i>
   <i type="int" name="ANTIRES">     0</i>
   <i name="OMEGAMAX">    -30.00000000</i>
   <i name="OMEGAMIN">    -30.00000000</i>
   <i name="OMEGATL">   -200.00000000</i>
   <i type="int" name="OMEGAGRID">   140</i>
   <i name="CSHIFT">     -0.10000000</i>
   <i type="logical" name="SELFENERGY"> F  </i>
   <i type="logical" name="LSPECTRAL"> F  </i>
   <i type="logical" name="LSPECTRALGW"> F  </i>
   <i type="logical" name="LSINGLES"> F  </i>
   <i type="logical" name="LFERMIGW"> F  </i>
   <i type="logical" name="ODDONLYGW"> F  </i>
   <i type="logical" name="EVENONLYGW"> F  </i>
   <i type="int" name="NKREDLFX">     1</i>
   <i type="int" name="NKREDLFY">     1</i>
   <i type="int" name="NKREDLFZ">     1</i>
   <i type="int" name="MAXMEM">  2800</i>
   <i type="int" name="TELESCOPE">     0</i>
   <i type="int" name="TAUPAR">     1</i>
   <i type="int" name="OMEGAPAR">    -1</i>
   <i name="LAMBDA">      1.00000000</i>
  </separator>
  <separator name="External order field" >
   <i name="OFIELD_KAPPA">      0.00000000</i>
   <v name="OFIELD_K">      0.00000000      0.00000000      0.00000000</v>
   <i name="OFIELD_Q6_NEAR">      0.00000000</i>
   <i name="OFIELD_Q6_FAR">      0.00000000</i>
   <i name="OFIELD_A">      0.00000000</i>
  </separator>
 </parameters>
 <atominfo>
  <atoms>       8 </atoms>
  <types>       1 </types>
  <array name="atoms" >
   <dimension dim="1">ion</dimension>
   <field type="string">element</field>
   <field type="int">atomtype</field>
   <set>
    <rc><c>C </c><c>   1</c></rc>
    <rc><c>C </c><c>   1</c></rc>
    <rc><c>C </c><c>   1</c></rc>
    <rc><c>C </c><c>   1</c></rc>
    <rc><c>C </c><c>   1</c></rc>
    <rc><c>C </c><c>   1</c></rc>
    <rc><c>C </c><c>   1</c></rc>
    <rc><c>C </c><c>   1</c></rc>
   </set>
  </array>
  <array name="atomtypes" >
   <dimension dim="1">type</dimension>
   <field type="int">atomspertype</field>
   <field type="string">element</field>
   <field>mass</field>
   <field>valence</field>
   <field type="string">pseudopotential</field>
   <set>
    <rc><c>   8</c><c>C </c><c>     12.01100000</c><c>      4.00000000</c><c>  PAW_PBE C_h 06Feb2004                 </c></rc>
   </set>
  </array>
 </atominfo>
 <structure name="initialpos" >
  <crystal>
   <varray name="basis" >
    <v>       3.58551709       0.00000000       0.00000000 </v>
    <v>       0.00000000       3.58551709       0.00000000 </v>
    <v>       0.00000000       0.00000000       3.58551709 </v>
   </varray>
   <i name="volume">     46.09516669 </i>
   <varray name="rec_basis" >
    <v>       0.27889980       0.00000000       0.00000000 </v>
    <v>       0.00000000       0.27889980       0.00000000 </v>
    <v>       0.00000000       0.00000000       0.27889980 </v>
   </varray>
  </crystal>
  <varray name="positions" >
   <v>       0.25000000       0.25000000       0.25000000 </v>
   <v>       0.00000000       0.00000000       0.00000000 </v>
   <v>       0.25000000       0.75000000       0.75000000 </v>
   <v>       0.00000000       0.50000000       0.50000000 </v>
   <v>       0.75000000       0.25000000       0.75000000 </v>
   <v>       0.50000000       0.00000000       0.50000000 </v>
   <v>       0.75000000       0.75000000       0.25000000 </v>
   <v>       0.50000000       0.50000000       0.00000000 </v>
  </varray>
 </structure>
 <calculation>
  <scstep>
   <time name="dav">    1.37    1.49</time>
   <time name="total">    1.41    1.57</time>
   <energy>
    <i name="alphaZ">     76.11486991 </i>
    <i name="ewald">  -1384.57015210 </i>
    <i name="hartreedc">    -71.36019569 </i>
    <i name="XCdc">     61.79361046 </i>
    <i name="pawpsdc">    914.77613359 </i>
    <i name="pawaedc">   -872.73161751 </i>
    <i name="eentropy">     -0.00060489 </i>
    <i name="bandstr">    196.72463532 </i>
    <i name="atom">   1177.21277265 </i>
    <i name="e_fr_energy">     97.95945174 </i>
    <i name="e_wo_entrp">     97.96005663 </i>
    <i name="e_0_energy">     97.95975419 </i>
   </energy>
  </scstep>
  <scstep>
   <time name="dav">    2.24    2.26</time>
   <time name="total">    2.24    2.26</time>
   <energy>
    <i name="e_fr_energy">    -72.31795387 </i>
    <i name="e_wo_entrp">    -72.31795387 </i>
    <i name="e_0_energy">    -72.31795387 </i>
   </energy>
  </scstep>
  <scstep>
   <time name="dav">    1.70    1.71</time>
   <time name="total">    1.70    1.72</time>
   <energy>
    <i name="e_fr_energy">    -75.18219876 </i>
    <i name="e_wo_entrp">    -75.18219876 </i>
    <i name="e_0_energy">    -75.18219876 </i>
   </energy>
  </scstep>
  <scstep>
   <time name="dav">    2.79    2.81</time>
   <time name="total">    2.79    2.81</time>
   <energy>
    <i name="e_fr_energy">    -75.20111555 </i>
    <i name="e_wo_entrp">    -75.20111555 </i>
    <i name="e_0_energy">    -75.20111555 </i>
   </energy>
  </scstep>
  <scstep>
   <time name="dav">    1.67    1.68</time>
   <time name="total">    1.75    1.81</time>
   <energy>
    <i name="e_fr_energy">    -75.20111845 </i>
    <i name="e_wo_entrp">    -75.20111845 </i>
    <i name="e_0_energy">    -75.20111845 </i>
   </energy>
  </scstep>
  <scstep>
   <time name="dav">    1.59    1.60</time>
   <time name="total">    1.68    1.70</time>
   <energy>
    <i name="e_fr_energy">    -73.43104469 </i>
    <i name="e_wo_entrp">    -73.43104469 </i>
    <i name="e_0_energy">    -73.43104469 </i>
   </energy>
  </scstep>
  <scstep>
   <time name="dav">    2.08    2.09</time>
   <time name="total">    2.17    2.19</time>
   <energy>
    <i name="e_fr_energy">    -72.83854574 </i>
    <i name="e_wo_entrp">    -72.83854574 </i>
    <i name="e_0_energy">    -72.83854574 </i>
   </energy>
  </scstep>
  <scstep>
   <time name="dav">    2.44    2.44</time>
   <time name="total">    2.52    2.54</time>
   <energy>
    <i name="e_fr_energy">    -72.83697660 </i>
    <i name="e_wo_entrp">    -72.83697660 </i>
    <i name="e_0_energy">    -72.83697660 </i>
   </energy>
  </scstep>
  <scstep>
   <time name="dav">    2.13    2.14</time>
   <time name="total">    2.22    2.23</time>
   <energy>
    <i name="e_fr_energy">    -72.83716647 </i>
    <i name="e_wo_entrp">    -72.83716647 </i>
    <i name="e_0_energy">    -72.83716647 </i>
   </energy>
  </scstep>
  <scstep>
   <time name="dav">    2.29    2.29</time>
   <time name="total">    2.37    2.39</time>
   <energy>
    <i name="e_fr_energy">    -72.83729035 </i>
    <i name="e_wo_entrp">    -72.83729035 </i>
    <i name="e_0_energy">    -72.83729035 </i>
   </energy>
  </scstep>
  <scstep>
   <time name="dav">    2.25    2.26</time>
   <time name="total">    2.34    2.35</time>
   <energy>
    <i name="e_fr_energy">    -72.83729147 </i>
    <i name="e_wo_entrp">    -72.83729147 </i>
    <i name="e_0_energy">    -72.83729147 </i>
   </energy>
  </scstep>
  <scstep>
   <time name="dav">    2.30    2.30</time>
   <time name="total">    2.39    2.40</time>
   <energy>
    <i name="e_fr_energy">    -72.83729184 </i>
    <i name="e_wo_entrp">    -72.83729184 </i>
    <i name="e_0_energy">    -72.83729184 </i>
   </energy>
  </scstep>
  <scstep>
   <time name="dav">    2.34    2.35</time>
   <time name="total">    2.35    2.37</time>
   <energy>
    <i name="alphaZ">     76.11486991 </i>
    <i name="ewald">  -1384.57015210 </i>
    <i name="hartreedc">   -106.14544389 </i>
    <i name="XCdc">     64.78805960 </i>
    <i name="pawpsdc">  14091.05017724 </i>
    <i name="pawaedc"> -14049.49941705 </i>
    <i name="eentropy">     -0.00000000 </i>
    <i name="bandstr">     58.21184179 </i>
    <i name="atom">   1177.21277265 </i>
    <i name="e_fr_energy">    -72.83729184 </i>
    <i name="e_wo_entrp">    -72.83729184 </i>
    <i name="e_0_energy">    -72.83729184 </i>
   </energy>
  </scstep>
  <structure>
   <crystal>
    <varray name="basis" >
     <v>       3.58551709       0.00000000       0.00000000 </v>
     <v>       0.00000000       3.58551709       0.00000000 </v>
     <v>       0.00000000       0.00000000       3.58551709 </v>
    </varray>
    <i name="volume">     46.09516669 </i>
    <varray name="rec_basis" >
     <v>       0.27889980       0.00000000       0.00000000 </v>
     <v>       0.00000000       0.27889980       0.00000000 </v>
     <v>       0.00000000       0.00000000       0.27889980 </v>
    </varray>
   </crystal>
   <varray name="positions" >
    <v>       0.25000000       0.25000000       0.25000000 </v>
    <v>       0.00000000       0.00000000       0.00000000 </v>
    <v>       0.25000000       0.75000000       0.75000000 </v>
    <v>       0.00000000       0.50000000       0.50000000 </v>
    <v>       0.75000000       0.25000000       0.75000000 </v>
    <v>       0.50000000       0.00000000       0.50000000 </v>
    <v>       0.75000000       0.75000000       0.25000000 </v>
    <v>       0.50000000       0.50000000       0.00000000 </v>
   </varray>
  </structure>
  <varray name="forces" >
   <v>       0.00000000       0.00000000      -0.00000000 </v>
   <v>       0.00000000      -0.00000000      -0.00000000 </v>
   <v>      -0.00000000      -0.00000000      -0.00000000 </v>
   <v>       0.00000000      -0.00000000       0.00000000 </v>
   <v>      -0.00000000      -0.00000000      -0.00000000 </v>
   <v>       0.00000000       0.00000000      -0.00000000 </v>
   <v>      -0.00000000       0.00000000       0.00000000 </v>
   <v>       0.00000000      -0.00000000       0.00000000 </v>
  </varray>
  <varray name="stress" >
   <v>     -55.81101008       0.00000000       0.00000000 </v>
   <v>      -0.00000000     -55.81101008      -0.00000000 </v>
   <v>       0.00000000       0.00000000     -55.81101008 </v>
  </varray>
  <energy>
   <i name="e_fr_energy">    -72.83729184 </i>
   <i name="e_wo_entrp">    -72.83729184 </i>
   <i name="e_0_energy">     -0.00000000 </i>
  </energy>
  <time name="totalsc">   29.54   30.02</time>
  <eigenvalues>
   <array>
    <dimension dim="1">band</dimension>
    <dimension dim="2">kpoint</dimension>
    <dimension dim="3">spin</dimension>
    <field>eigene</field>
    <field>occ</field>
    <set>
     <set comment="spin 1">
      <set comment="kpoint 1">
       <r>  -10.5330    1.0000 </r>
       <r>   -2.5000    1.0000 </r>
       <r>   -2.5000    1.0000 </r>
       <r>   -2.5000    1.0000 </r>
       <r>   -1.3738    1.0000 </r>
       <r>   -1.3738    1.0000 </r>
       <r>   -1.3738    1.0000 </r>
       <r>    4.3827    1.0000 </r>
       <r>    4.3827    1.0000 </r>
       <r>    4.3827    1.0000 </r>
       <r>    4.5243    1.0000 </r>
       <r>    4.5243    1.0000 </r>
       <r>    4.5243    1.0000 </r>
       <r>   10.4438    1.0000 </r>
       <r>   10.6322    1.0000 </r>
       <r>   10.6322    1.0000 </r>
       <r>   15.3459    0.0000 </r>
       <r>   15.3459    0.0000 </r>
       <r>   15.3459    0.0000 </r>
       <r>   15.7274    0.0000 </r>
       <r>   15.7274    0.0000 </r>
       <r>   15.7274    0.0000 </r>
       <r>   16.3352    0.0000 </r>
       <r>   16.3353    0.0000 </r>
      </set>
      <set comment="kpoint 2">
       <r>  -10.4398    1.0000 </r>
       <r>   -3.5779    1.0000 </r>
       <r>   -2.4366    1.0000 </r>
       <r>   -2.4366    1.0000 </r>
       <r>   -1.3234    1.0000 </r>
       <r>   -1.3234    1.0000 </r>
       <r>   -0.2116    1.0000 </r>
       <r>    4.0617    1.0000 </r>
       <r>    4.0617    1.0000 </r>
       <r>    4.4609    1.0000 </r>
       <r>    4.4609    1.0000 </r>
       <r>    4.4765    1.0000 </r>
       <r>    4.6148    1.0000 </r>
       <r>    9.9953    1.0000 </r>
       <r>   10.2757    1.0000 </r>
       <r>   10.5165    1.0000 </r>
       <r>   15.1115    0.0000 </r>
       <r>   15.6304    0.0000 </r>
       <r>   15.6304    0.0000 </r>
       <r>   16.1787    0.0000 </r>
       <r>   16.1850    0.0000 </r>
       <r>   16.1850    0.0000 </r>
       <r>   16.2662    0.0000 </r>
       <r>   16.7696    0.0000 </r>
      </set>
      <set comment="kpoint 3">
       <r>  -10.2537    1.0000 </r>
       <r>   -4.5976    1.0000 </r>
       <r>   -2.3145    1.0000 </r>
       <r>   -2.3145    1.0000 </r>
       <r>   -1.2293    1.0000 </r>
       <r>   -1.2293    1.0000 </r>
       <r>    0.9718    1.0000 </r>
       <r>    3.6261    1.0000 </r>
       <r>    3.6261    1.0000 </r>
       <r>    4.2204    1.0000 </r>
       <r>    4.2204    1.0000 </r>
       <r>    4.6642    1.0000 </r>
       <r>    4.7951    1.0000 </r>
       <r>    9.3698    1.0000 </r>
       <r>    9.6907    1.0000 </r>
       <r>   10.1416    1.0000 </r>
       <r>   14.9635    0.0000 </r>
       <r>   16.1284    0.0000 </r>
       <r>   16.2339    0.0000 </r>
       <r>   16.2339    0.0000 </r>
       <r>   16.7600    0.0000 </r>
       <r>   16.9733    0.0000 </r>
       <r>   16.9733    0.0000 </r>
       <r>   17.5093    0.0000 </r>
      </set>
      <set comment="kpoint 4">
       <r>   -9.9753    1.0000 </r>
       <r>   -5.5511    1.0000 </r>
       <r>   -2.1440    1.0000 </r>
       <r>   -2.1440    1.0000 </r>
       <r>   -1.1067    1.0000 </r>
       <r>   -1.1067    1.0000 </r>
       <r>    2.1586    1.0000 </r>
       <r>    3.1538    1.0000 </r>
       <r>    3.1538    1.0000 </r>
       <r>    3.8695    1.0000 </r>
       <r>    3.8695    1.0000 </r>
       <r>    4.9468    1.0000 </r>
       <r>    5.0635    1.0000 </r>
       <r>    8.6568    1.0000 </r>
       <r>    9.0036    1.0000 </r>
       <r>    9.5645    1.0000 </r>
       <r>   14.8998    0.0000 </r>
       <r>   15.9428    0.0000 </r>
       <r>   17.1131    0.0000 </r>
       <r>   17.1131    0.0000 </r>
       <r>   17.4709    0.0000 </r>
       <r>   17.9928    0.0000 </r>
       <r>   17.9928    0.0000 </r>
       <r>   18.4259    0.0000 </r>
      </set>
      <set comment="kpoint 5">
       <r>   -9.6051    1.0000 </r>
       <r>   -6.4322    1.0000 </r>
       <r>   -1.9455    1.0000 </r>
       <r>   -1.9455    1.0000 </r>
       <r>   -0.9805    1.0000 </r>
       <r>   -0.9805    1.0000 </r>
       <r>    2.7204    1.0000 </r>
       <r>    2.7204    1.0000 </r>
       <r>    3.3266    1.0000 </r>
       <r>    3.4885    1.0000 </r>
       <r>    3.4885    1.0000 </r>
       <r>    5.3265    1.0000 </r>
       <r>    5.4179    1.0000 </r>
       <r>    7.9125    1.0000 </r>
       <r>    8.2926    1.0000 </r>
       <r>    8.8394    1.0000 </r>
       <r>   14.9121    0.0000 </r>
       <r>   15.7298    0.0000 </r>
       <r>   18.1942    0.0000 </r>
       <r>   18.1942    0.0000 </r>
       <r>   18.3132    0.0000 </r>
       <r>   19.1627    0.0000 </r>
       <r>   19.1627    0.0000 </r>
       <r>   19.4299    0.0000 </r>
      </set>
      <set comment="kpoint 6">
       <r>   -9.1444    1.0000 </r>
       <r>   -7.2356    1.0000 </r>
       <r>   -1.7548    1.0000 </r>
       <r>   -1.7548    1.0000 </r>
       <r>   -0.8828    1.0000 </r>
       <r>   -0.8828    1.0000 </r>
       <r>    2.3940    1.0000 </r>
       <r>    2.3940    1.0000 </r>
       <r>    3.1588    1.0000 </r>
       <r>    3.1588    1.0000 </r>
       <r>    4.4466    1.0000 </r>
       <r>    5.8121    1.0000 </r>
       <r>    5.8550    1.0000 </r>
       <r>    7.1574    1.0000 </r>
       <r>    7.6013    1.0000 </r>
       <r>    8.0198    1.0000 </r>
       <r>   14.9909    0.0000 </r>
       <r>   15.5101    0.0000 </r>
       <r>   19.2808    0.0000 </r>
       <r>   19.3936    0.0000 </r>
       <r>   19.3936    0.0000 </r>
       <r>   20.3900    0.0000 </r>
       <r>   20.4055    0.0000 </r>
       <r>   20.4888    0.0000 </r>
      </set>
      <set comment="kpoint 7">
       <r>   -8.5946    1.0000 </r>
       <r>   -7.9575    1.0000 </r>
       <r>   -1.6297    1.0000 </r>
       <r>   -1.6297    1.0000 </r>
       <r>   -0.8355    1.0000 </r>
       <r>   -0.8355    1.0000 </r>
       <r>    2.2224    1.0000 </r>
       <r>    2.2224    1.0000 </r>
       <r>    2.9621    1.0000 </r>
       <r>    2.9621    1.0000 </r>
       <r>    5.4748    1.0000 </r>
       <r>    6.3682    1.0000 </r>
       <r>    6.3698    1.0000 </r>
       <r>    6.4236    1.0000 </r>
       <r>    6.9552    1.0000 </r>
       <r>    7.1792    1.0000 </r>
       <r>   15.1253    0.0000 </r>
       <r>   15.3031    0.0000 </r>
       <r>   20.3501    0.0000 </r>
       <r>   20.5566    0.0000 </r>
       <r>   20.5566    0.0000 </r>
       <r>   21.3670    0.0000 </r>
       <r>   21.3922    0.0000 </r>
       <r>   21.4740    0.0000 </r>
      </set>
      <set comment="kpoint 8">
       <r>  -10.3468    1.0000 </r>
       <r>   -3.5053    1.0000 </r>
       <r>   -3.5053    1.0000 </r>
       <r>   -2.3795    1.0000 </r>
       <r>   -1.2767    1.0000 </r>
       <r>   -0.1828    1.0000 </r>
       <r>   -0.1828    1.0000 </r>
       <r>    3.5472    1.0000 </r>
       <r>    4.1635    1.0000 </r>
       <r>    4.1635    1.0000 </r>
       <r>    4.5559    1.0000 </r>
       <r>    4.5559    1.0000 </r>
       <r>    4.6789    1.0000 </r>
       <r>    9.4502    1.0000 </r>
       <r>   10.0011    1.0000 </r>
       <r>   10.5215    1.0000 </r>
       <r>   15.4548    0.0000 </r>
       <r>   15.4548    0.0000 </r>
       <r>   15.5893    0.0000 </r>
       <r>   16.5163    0.0000 </r>
       <r>   16.5737    0.0000 </r>
       <r>   16.5737    0.0000 </r>
       <r>   16.8766    0.0000 </r>
       <r>   16.8878    0.0000 </r>
      </set>
      <set comment="kpoint 9">
       <r>  -10.1609    1.0000 </r>
       <r>   -4.5190    1.0000 </r>
       <r>   -3.3631    1.0000 </r>
       <r>   -2.2735    1.0000 </r>
       <r>   -1.1900    1.0000 </r>
       <r>   -0.1368    1.0000 </r>
       <r>    0.9659    1.0000 </r>
       <r>    2.9958    1.0000 </r>
       <r>    3.7373    1.0000 </r>
       <r>    4.3336    1.0000 </r>
       <r>    4.3685    1.0000 </r>
       <r>    4.6920    1.0000 </r>
       <r>    4.7475    1.0000 </r>
       <r>    8.7716    1.0000 </r>
       <r>    9.4451    1.0000 </r>
       <r>   10.3066    1.0000 </r>
       <r>   15.3273    0.0000 </r>
       <r>   15.8992    0.0000 </r>
       <r>   16.1121    0.0000 </r>
       <r>   16.4763    0.0000 </r>
       <r>   17.1267    0.0000 </r>
       <r>   17.3003    0.0000 </r>
       <r>   17.5078    0.0000 </r>
       <r>   17.6831    0.0000 </r>
      </set>
      <set comment="kpoint 10">
       <r>   -9.8827    1.0000 </r>
       <r>   -5.4684    1.0000 </r>
       <r>   -3.1574    1.0000 </r>
       <r>   -2.1393    1.0000 </r>
       <r>   -1.0753    1.0000 </r>
       <r>   -0.0987    1.0000 </r>
       <r>    2.0946    1.0000 </r>
       <r>    2.4884    1.0000 </r>
       <r>    3.2708    1.0000 </r>
       <r>    4.0246    1.0000 </r>
       <r>    4.5291    1.0000 </r>
       <r>    4.6787    1.0000 </r>
       <r>    5.0415    1.0000 </r>
       <r>    8.0337    1.0000 </r>
       <r>    8.7770    1.0000 </r>
       <r>    9.8483    1.0000 </r>
       <r>   15.2744    0.0000 </r>
       <r>   16.3097    0.0000 </r>
       <r>   16.5491    0.0000 </r>
       <r>   17.0276    0.0000 </r>
       <r>   17.8155    0.0000 </r>
       <r>   18.2700    0.0000 </r>
       <r>   18.4015    0.0000 </r>
       <r>   18.4493    0.0000 </r>
      </set>
      <set comment="kpoint 11">
       <r>   -9.5130    1.0000 </r>
       <r>   -6.3464    1.0000 </r>
       <r>   -2.8998    1.0000 </r>
       <r>   -2.0201    1.0000 </r>
       <r>   -0.9427    1.0000 </r>
       <r>   -0.1061    1.0000 </r>
       <r>    2.1043    1.0000 </r>
       <r>    2.8243    1.0000 </r>
       <r>    3.1659    1.0000 </r>
       <r>    3.7267    1.0000 </r>
       <r>    4.2558    1.0000 </r>
       <r>    5.0915    1.0000 </r>
       <r>    5.4546    1.0000 </r>
       <r>    7.2786    1.0000 </r>
       <r>    8.0777    1.0000 </r>
       <r>    9.2020    1.0000 </r>
       <r>   15.2930    0.0000 </r>
       <r>   16.1055    0.0000 </r>
       <r>   17.4693    0.0000 </r>
       <r>   18.1331    0.0000 </r>
       <r>   18.6366    0.0000 </r>
       <r>   19.3401    0.0000 </r>
       <r>   19.3898    0.0000 </r>
       <r>   19.4098    0.0000 </r>
      </set>
      <set comment="kpoint 12">
       <r>   -9.0530    1.0000 </r>
       <r>   -7.1478    1.0000 </r>
       <r>   -2.6104    1.0000 </r>
       <r>   -1.9868    1.0000 </r>
       <r>   -0.7840    1.0000 </r>
       <r>   -0.1949    1.0000 </r>
       <r>    1.9103    1.0000 </r>
       <r>    2.4339    1.0000 </r>
       <r>    3.5398    1.0000 </r>
       <r>    3.9486    1.0000 </r>
       <r>    4.1377    1.0000 </r>
       <r>    5.5873    1.0000 </r>
       <r>    6.0218    1.0000 </r>
       <r>    6.5258    1.0000 </r>
       <r>    7.3914    1.0000 </r>
       <r>    8.4280    1.0000 </r>
       <r>   15.3750    0.0000 </r>
       <r>   15.8913    0.0000 </r>
       <r>   18.5721    0.0000 </r>
       <r>   19.3516    0.0000 </r>
       <r>   19.5818    0.0000 </r>
       <r>   20.3054    0.0000 </r>
       <r>   20.4733    0.0000 </r>
       <r>   20.5136    0.0000 </r>
      </set>
      <set comment="kpoint 13">
       <r>   -8.5040    1.0000 </r>
       <r>   -7.8680    1.0000 </r>
       <r>   -2.3238    1.0000 </r>
       <r>   -2.0946    1.0000 </r>
       <r>   -0.5843    1.0000 </r>
       <r>   -0.3685    1.0000 </r>
       <r>    1.9282    1.0000 </r>
       <r>    2.1219    1.0000 </r>
       <r>    3.5270    1.0000 </r>
       <r>    3.6821    1.0000 </r>
       <r>    4.9948    1.0000 </r>
       <r>    5.7737    1.0000 </r>
       <r>    6.1397    1.0000 </r>
       <r>    6.7417    1.0000 </r>
       <r>    6.7543    1.0000 </r>
       <r>    7.5873    1.0000 </r>
       <r>   15.5104    0.0000 </r>
       <r>   15.6873    0.0000 </r>
       <r>   19.7410    0.0000 </r>
       <r>   20.4261    0.0000 </r>
       <r>   20.6271    0.0000 </r>
       <r>   21.0576    0.0000 </r>
       <r>   21.3045    0.0000 </r>
       <r>   21.5532    0.0000 </r>
      </set>
      <set comment="kpoint 14">
       <r>   -9.9755    1.0000 </r>
       <r>   -4.3636    1.0000 </r>
       <r>   -4.3636    1.0000 </r>
       <r>   -2.2097    1.0000 </r>
       <r>   -1.1153    1.0000 </r>
       <r>    0.9358    1.0000 </r>
       <r>    0.9358    1.0000 </r>
       <r>    2.4074    1.0000 </r>
       <r>    3.9589    1.0000 </r>
       <r>    3.9589    1.0000 </r>
       <r>    4.5708    1.0000 </r>
       <r>    4.5708    1.0000 </r>
       <r>    4.9826    1.0000 </r>
       <r>    8.0641    1.0000 </r>
       <r>    8.9202    1.0000 </r>
       <r>   10.2903    1.0000 </r>
       <r>   15.9024    0.0000 </r>
       <r>   16.0121    0.0000 </r>
       <r>   16.0121    0.0000 </r>
       <r>   16.8783    0.0000 </r>
       <r>   17.6953    0.0000 </r>
       <r>   17.8099    0.0000 </r>
       <r>   17.8099    0.0000 </r>
       <r>   18.0228    0.0000 </r>
      </set>
      <set comment="kpoint 15">
       <r>   -9.6980    1.0000 </r>
       <r>   -5.3041    1.0000 </r>
       <r>   -4.1356    1.0000 </r>
       <r>   -2.1677    1.0000 </r>
       <r>   -1.0056    1.0000 </r>
       <r>    0.8481    1.0000 </r>
       <r>    1.9451    1.0000 </r>
       <r>    1.9466    1.0000 </r>
       <r>    3.4949    1.0000 </r>
       <r>    4.2835    1.0000 </r>
       <r>    4.3585    1.0000 </r>
       <r>    4.9566    1.0000 </r>
       <r>    5.0686    1.0000 </r>
       <r>    7.3167    1.0000 </r>
       <r>    8.2772    1.0000 </r>
       <r>   10.0097    1.0000 </r>
       <r>   15.9735    0.0000 </r>
       <r>   16.2732    0.0000 </r>
       <r>   16.9063    0.0000 </r>
       <r>   16.9512    0.0000 </r>
       <r>   18.4052    0.0000 </r>
       <r>   18.4601    0.0000 </r>
       <r>   18.5442    0.0000 </r>
       <r>   18.7286    0.0000 </r>
      </set>
      <set comment="kpoint 16">
       <r>   -9.3292    1.0000 </r>
       <r>   -6.1759    1.0000 </r>
       <r>   -3.8420    1.0000 </r>
       <r>   -2.2200    1.0000 </r>
       <r>   -0.8429    1.0000 </r>
       <r>    0.6694    1.0000 </r>
       <r>    1.6838    1.0000 </r>
       <r>    2.8567    1.0000 </r>
       <r>    3.0191    1.0000 </r>
       <r>    4.2149    1.0000 </r>
       <r>    4.6927    1.0000 </r>
       <r>    4.9793    1.0000 </r>
       <r>    5.5218    1.0000 </r>
       <r>    6.5644    1.0000 </r>
       <r>    7.5975    1.0000 </r>
       <r>    9.4916    1.0000 </r>
       <r>   15.9989    0.0000 </r>
       <r>   16.7586    0.0000 </r>
       <r>   16.9738    0.0000 </r>
       <r>   18.0737    0.0000 </r>
       <r>   19.2175    0.0000 </r>
       <r>   19.2416    0.0000 </r>
       <r>   19.3774    0.0000 </r>
       <r>   19.7740    0.0000 </r>
      </set>
      <set comment="kpoint 17">
       <r>   -8.8704    1.0000 </r>
       <r>   -6.9727    1.0000 </r>
       <r>   -3.4950    1.0000 </r>
       <r>   -2.4182    1.0000 </r>
       <r>   -0.6030    1.0000 </r>
       <r>    0.3946    1.0000 </r>
       <r>    1.6553    1.0000 </r>
       <r>    2.5603    1.0000 </r>
       <r>    3.6596    1.0000 </r>
       <r>    4.2046    1.0000 </r>
       <r>    4.7782    1.0000 </r>
       <r>    5.1677    1.0000 </r>
       <r>    5.8257    1.0000 </r>
       <r>    6.2609    1.0000 </r>
       <r>    6.9263    1.0000 </r>
       <r>    8.7939    1.0000 </r>
       <r>   16.0822    0.0000 </r>
       <r>   16.5708    0.0000 </r>
       <r>   17.9261    0.0000 </r>
       <r>   19.3043    0.0000 </r>
       <r>   20.0014    0.0000 </r>
       <r>   20.1434    0.0000 </r>
       <r>   20.4415    0.0000 </r>
       <r>   20.6398    0.0000 </r>
      </set>
      <set comment="kpoint 18">
       <r>   -8.3232    1.0000 </r>
       <r>   -7.6897    1.0000 </r>
       <r>   -3.1155    1.0000 </r>
       <r>   -2.7382    1.0000 </r>
       <r>   -0.2914    1.0000 </r>
       <r>    0.0572    1.0000 </r>
       <r>    1.8303    1.0000 </r>
       <r>    2.1500    1.0000 </r>
       <r>    4.3270    1.0000 </r>
       <r>    4.3933    1.0000 </r>
       <r>    4.5383    1.0000 </r>
       <r>    5.1054    1.0000 </r>
       <r>    5.7009    1.0000 </r>
       <r>    6.2894    1.0000 </r>
       <r>    7.1085    1.0000 </r>
       <r>    7.9781    1.0000 </r>
       <r>   16.2140    0.0000 </r>
       <r>   16.3821    0.0000 </r>
       <r>   19.0277    0.0000 </r>
       <r>   20.0509    0.0000 </r>
       <r>   20.7737    0.0000 </r>
       <r>   20.8552    0.0000 </r>
       <r>   21.1361    0.0000 </r>
       <r>   21.5370    0.0000 </r>
      </set>
      <set comment="kpoint 19">
       <r>   -9.4215    1.0000 </r>
       <r>   -5.0610    1.0000 </r>
       <r>   -5.0610    1.0000 </r>
       <r>   -2.2990    1.0000 </r>
       <r>   -0.8748    1.0000 </r>
       <r>    1.6056    1.0000 </r>
       <r>    1.6927    1.0000 </r>
       <r>    1.6927    1.0000 </r>
       <r>    3.8069    1.0000 </r>
       <r>    3.8069    1.0000 </r>
       <r>    4.8999    1.0000 </r>
       <r>    4.8999    1.0000 </r>
       <r>    5.4246    1.0000 </r>
       <r>    6.5717    1.0000 </r>
       <r>    7.6576    1.0000 </r>
       <r>    9.9251    1.0000 </r>
       <r>   16.3449    0.0000 </r>
       <r>   16.9234    0.0000 </r>
       <r>   16.9234    0.0000 </r>
       <r>   17.4186    0.0000 </r>
       <r>   18.6565    0.0000 </r>
       <r>   18.7670    0.0000 </r>
       <r>   19.3245    0.0000 </r>
       <r>   19.3245    0.0000 </r>
      </set>
      <set comment="kpoint 20">
       <r>   -9.0543    1.0000 </r>
       <r>   -5.9224    1.0000 </r>
       <r>   -4.7438    1.0000 </r>
       <r>   -2.5813    1.0000 </r>
       <r>   -0.6561    1.0000 </r>
       <r>    1.3367    1.0000 </r>
       <r>    1.5087    1.0000 </r>
       <r>    2.4312    1.0000 </r>
       <r>    3.2937    1.0000 </r>
       <r>    4.1906    1.0000 </r>
       <r>    4.9290    1.0000 </r>
       <r>    5.5762    1.0000 </r>
       <r>    5.6367    1.0000 </r>
       <r>    5.8299    1.0000 </r>
       <r>    6.9978    1.0000 </r>
       <r>    9.5800    1.0000 </r>
       <r>   16.7727    0.0000 </r>
       <r>   16.9504    0.0000 </r>
       <r>   17.5280    0.0000 </r>
       <r>   18.0505    0.0000 </r>
       <r>   19.1434    0.0000 </r>
       <r>   19.4093    0.0000 </r>
       <r>   20.0394    0.0000 </r>
       <r>   20.2540    0.0000 </r>
      </set>
      <set comment="kpoint 21">
       <r>   -8.5976    1.0000 </r>
       <r>   -6.7119    1.0000 </r>
       <r>   -4.3604    1.0000 </r>
       <r>   -2.9882    1.0000 </r>
       <r>   -0.3467    1.0000 </r>
       <r>    0.9126    1.0000 </r>
       <r>    1.6300    1.0000 </r>
       <r>    2.7837    1.0000 </r>
       <r>    3.1019    1.0000 </r>
       <r>    4.6398    1.0000 </r>
       <r>    5.0479    1.0000 </r>
       <r>    5.1091    1.0000 </r>
       <r>    5.5523    1.0000 </r>
       <r>    6.3440    1.0000 </r>
       <r>    6.4997    1.0000 </r>
       <r>    9.0058    1.0000 </r>
       <r>   17.0272    0.0000 </r>
       <r>   17.4314    0.0000 </r>
       <r>   17.5112    0.0000 </r>
       <r>   19.2775    0.0000 </r>
       <r>   19.6623    0.0000 </r>
       <r>   20.4272    0.0000 </r>
       <r>   20.5255    0.0000 </r>
       <r>   20.8287    0.0000 </r>
      </set>
      <set comment="kpoint 22">
       <r>   -8.0532    1.0000 </r>
       <r>   -7.4236    1.0000 </r>
       <r>   -3.9234    1.0000 </r>
       <r>   -3.4541    1.0000 </r>
       <r>    0.0355    1.0000 </r>
       <r>    0.4657    1.0000 </r>
       <r>    1.9147    1.0000 </r>
       <r>    2.3124    1.0000 </r>
       <r>    3.7531    1.0000 </r>
       <r>    4.4173    1.0000 </r>
       <r>    5.1522    1.0000 </r>
       <r>    5.2252    1.0000 </r>
       <r>    5.4129    1.0000 </r>
       <r>    5.7234    1.0000 </r>
       <r>    7.4001    1.0000 </r>
       <r>    8.2583    1.0000 </r>
       <r>   17.1442    0.0000 </r>
       <r>   17.2868    0.0000 </r>
       <r>   18.4748    0.0000 </r>
       <r>   19.5306    0.0000 </r>
       <r>   20.2901    0.0000 </r>
       <r>   20.6522    0.0000 </r>
       <r>   20.9577    0.0000 </r>
       <r>   21.5257    0.0000 </r>
      </set>
      <set comment="kpoint 23">
       <r>   -8.6892    1.0000 </r>
       <r>   -5.5893    1.0000 </r>
       <r>   -5.5893    1.0000 </r>
       <r>   -3.0717    1.0000 </r>
       <r>   -0.3777    1.0000 </r>
       <r>    1.5604    1.0000 </r>
       <r>    1.9345    1.0000 </r>
       <r>    1.9345    1.0000 </r>
       <r>    3.6440    1.0000 </r>
       <r>    3.6440    1.0000 </r>
       <r>    5.1030    1.0000 </r>
       <r>    5.7927    1.0000 </r>
       <r>    5.7927    1.0000 </r>
       <r>    5.9874    1.0000 </r>
       <r>    6.3559    1.0000 </r>
       <r>    9.4235    1.0000 </r>
       <r>   16.9074    0.0000 </r>
       <r>   18.0705    0.0000 </r>
       <r>   18.0705    0.0000 </r>
       <r>   18.1310    0.0000 </r>
       <r>   19.1834    0.0000 </r>
       <r>   19.7199    0.0000 </r>
       <r>   20.6937    0.0000 </r>
       <r>   20.6937    0.0000 </r>
      </set>
      <set comment="kpoint 24">
       <r>   -8.2356    1.0000 </r>
       <r>   -6.3677    1.0000 </r>
       <r>   -5.1818    1.0000 </r>
       <r>   -3.6240    1.0000 </r>
       <r>   -0.0175    1.0000 </r>
       <r>    1.4104    1.0000 </r>
       <r>    1.7871    1.0000 </r>
       <r>    2.5130    1.0000 </r>
       <r>    3.0983    1.0000 </r>
       <r>    4.0673    1.0000 </r>
       <r>    4.4013    1.0000 </r>
       <r>    5.7184    1.0000 </r>
       <r>    5.9678    1.0000 </r>
       <r>    6.1933    1.0000 </r>
       <r>    6.7127    1.0000 </r>
       <r>    9.0186    1.0000 </r>
       <r>   17.3779    0.0000 </r>
       <r>   18.1288    0.0000 </r>
       <r>   18.3254    0.0000 </r>
       <r>   19.2768    0.0000 </r>
       <r>   19.3713    0.0000 </r>
       <r>   20.1379    0.0000 </r>
       <r>   20.5073    0.0000 </r>
       <r>   20.6174    0.0000 </r>
      </set>
      <set comment="kpoint 25">
       <r>   -7.6954    1.0000 </r>
       <r>   -7.0715    1.0000 </r>
       <r>   -4.7082    1.0000 </r>
       <r>   -4.1816    1.0000 </r>
       <r>    0.4116    1.0000 </r>
       <r>    0.8940    1.0000 </r>
       <r>    2.1413    1.0000 </r>
       <r>    2.5878    1.0000 </r>
       <r>    3.1072    1.0000 </r>
       <r>    3.7349    1.0000 </r>
       <r>    4.5595    1.0000 </r>
       <r>    5.1136    1.0000 </r>
       <r>    6.1267    1.0000 </r>
       <r>    6.2214    1.0000 </r>
       <r>    7.6044    1.0000 </r>
       <r>    8.3946    1.0000 </r>
       <r>   18.1327    0.0000 </r>
       <r>   18.2126    0.0000 </r>
       <r>   18.2975    0.0000 </r>
       <r>   19.0765    0.0000 </r>
       <r>   19.7056    0.0000 </r>
       <r>   20.1536    0.0000 </r>
       <r>   20.5850    0.0000 </r>
       <r>   21.5524    0.0000 </r>
      </set>
      <set comment="kpoint 26">
       <r>   -7.7862    1.0000 </r>
       <r>   -5.9438    1.0000 </r>
       <r>   -5.9438    1.0000 </r>
       <r>   -4.2679    1.0000 </r>
       <r>    0.3816    1.0000 </r>
       <r>    1.9257    1.0000 </r>
       <r>    1.9257    1.0000 </r>
       <r>    2.0812    1.0000 </r>
       <r>    3.4960    1.0000 </r>
       <r>    3.4960    1.0000 </r>
       <r>    3.7199    1.0000 </r>
       <r>    5.0961    1.0000 </r>
       <r>    6.6454    1.0000 </r>
       <r>    6.8752    1.0000 </r>
       <r>    6.8752    1.0000 </r>
       <r>    8.8027    1.0000 </r>
       <r>   17.5587    0.0000 </r>
       <r>   19.0051    0.0000 </r>
       <r>   19.1992    0.0000 </r>
       <r>   19.2921    0.0000 </r>
       <r>   19.2921    0.0000 </r>
       <r>   19.7176    0.0000 </r>
       <r>   19.7176    0.0000 </r>
       <r>   20.8812    0.0000 </r>
      </set>
      <set comment="kpoint 27">
       <r>   -7.2519    1.0000 </r>
       <r>   -6.6362    1.0000 </r>
       <r>   -5.4459    1.0000 </r>
       <r>   -4.8827    1.0000 </r>
       <r>    0.8450    1.0000 </r>
       <r>    1.3639    1.0000 </r>
       <r>    2.4786    1.0000 </r>
       <r>    2.4798    1.0000 </r>
       <r>    2.9587    1.0000 </r>
       <r>    3.0768    1.0000 </r>
       <r>    3.9687    1.0000 </r>
       <r>    4.5065    1.0000 </r>
       <r>    6.8898    1.0000 </r>
       <r>    6.9504    1.0000 </r>
       <r>    7.6926    1.0000 </r>
       <r>    8.3523    1.0000 </r>
       <r>   18.0458    0.0000 </r>
       <r>   18.7817    0.0000 </r>
       <r>   19.1837    0.0000 </r>
       <r>   19.2808    0.0000 </r>
       <r>   19.2930    0.0000 </r>
       <r>   19.4176    0.0000 </r>
       <r>   20.5178    0.0000 </r>
       <r>   21.5890    0.0000 </r>
      </set>
      <set comment="kpoint 28">
       <r>   -6.7259    1.0000 </r>
       <r>   -6.1217    1.0000 </r>
       <r>   -6.1217    1.0000 </r>
       <r>   -5.5342    1.0000 </r>
       <r>    1.3372    1.0000 </r>
       <r>    1.8844    1.0000 </r>
       <r>    1.8844    1.0000 </r>
       <r>    2.4569    1.0000 </r>
       <r>    2.9089    1.0000 </r>
       <r>    3.4111    1.0000 </r>
       <r>    3.4111    1.0000 </r>
       <r>    3.9321    1.0000 </r>
       <r>    7.3642    1.0000 </r>
       <r>    7.6255    1.0000 </r>
       <r>    7.6255    1.0000 </r>
       <r>    8.0999    1.0000 </r>
       <r>   18.2383    0.0000 </r>
       <r>   18.6954    0.0000 </r>
       <r>   18.6954    0.0000 </r>
       <r>   18.8379    0.0000 </r>
       <r>   20.0242    0.0000 </r>
       <r>   20.3823    0.0000 </r>
       <r>   20.3823    0.0000 </r>
       <r>   21.1630    0.0000 </r>
      </set>
      <set comment="kpoint 29">
       <r>  -10.2538    1.0000 </r>
       <r>   -3.4355    1.0000 </r>
       <r>   -3.4355    1.0000 </r>
       <r>   -3.4355    1.0000 </r>
       <r>   -0.1668    1.0000 </r>
       <r>   -0.1668    1.0000 </r>
       <r>   -0.1668    1.0000 </r>
       <r>    3.6726    1.0000 </r>
       <r>    3.6726    1.0000 </r>
       <r>    3.6726    1.0000 </r>
       <r>    4.7677    1.0000 </r>
       <r>    4.7677    1.0000 </r>
       <r>    4.7677    1.0000 </r>
       <r>    8.8391    1.0000 </r>
       <r>   10.2011    1.0000 </r>
       <r>   10.2011    1.0000 </r>
       <r>   15.5406    0.0000 </r>
       <r>   15.5406    0.0000 </r>
       <r>   15.5406    0.0000 </r>
       <r>   16.9023    0.0000 </r>
       <r>   16.9023    0.0000 </r>
       <r>   17.1466    0.0000 </r>
       <r>   17.1466    0.0000 </r>
       <r>   17.1511    0.0000 </r>
      </set>
      <set comment="kpoint 30">
       <r>  -10.0681    1.0000 </r>
       <r>   -4.4419    1.0000 </r>
       <r>   -3.2997    1.0000 </r>
       <r>   -3.2997    1.0000 </r>
       <r>   -0.1519    1.0000 </r>
       <r>   -0.1519    1.0000 </r>
       <r>    0.9315    1.0000 </r>
       <r>    3.1588    1.0000 </r>
       <r>    3.1588    1.0000 </r>
       <r>    3.9337    1.0000 </r>
       <r>    4.7841    1.0000 </r>
       <r>    4.7841    1.0000 </r>
       <r>    4.9445    1.0000 </r>
       <r>    8.1186    1.0000 </r>
       <r>    9.6631    1.0000 </r>
       <r>   10.1260    1.0000 </r>
       <r>   15.4974    0.0000 </r>
       <r>   15.9020    0.0000 </r>
       <r>   15.9020    0.0000 </r>
       <r>   16.7973    0.0000 </r>
       <r>   17.5708    0.0000 </r>
       <r>   17.6092    0.0000 </r>
       <r>   17.7286    0.0000 </r>
       <r>   18.0505    0.0000 </r>
      </set>
      <set comment="kpoint 31">
       <r>   -9.7903    1.0000 </r>
       <r>   -5.3864    1.0000 </r>
       <r>   -3.1074    1.0000 </r>
       <r>   -3.1074    1.0000 </r>
       <r>   -0.1722    1.0000 </r>
       <r>   -0.1722    1.0000 </r>
       <r>    1.9724    1.0000 </r>
       <r>    2.7122    1.0000 </r>
       <r>    2.7122    1.0000 </r>
       <r>    4.3547    1.0000 </r>
       <r>    4.6347    1.0000 </r>
       <r>    4.6347    1.0000 </r>
       <r>    5.2079    1.0000 </r>
       <r>    7.3598    1.0000 </r>
       <r>    9.0186    1.0000 </r>
       <r>    9.7707    1.0000 </r>
       <r>   15.4962    0.0000 </r>
       <r>   16.5739    0.0000 </r>
       <r>   16.5739    0.0000 </r>
       <r>   16.6246    0.0000 </r>
       <r>   18.2370    0.0000 </r>
       <r>   18.4101    0.0000 </r>
       <r>   18.4247    0.0000 </r>
       <r>   19.1480    0.0000 </r>
      </set>
      <set comment="kpoint 32">
       <r>   -9.4211    1.0000 </r>
       <r>   -6.2612    1.0000 </r>
       <r>   -2.8776    1.0000 </r>
       <r>   -2.8776    1.0000 </r>
       <r>   -0.2653    1.0000 </r>
       <r>   -0.2653    1.0000 </r>
       <r>    2.4090    1.0000 </r>
       <r>    2.4090    1.0000 </r>
       <r>    2.9045    1.0000 </r>
       <r>    4.3904    1.0000 </r>
       <r>    4.3904    1.0000 </r>
       <r>    4.9641    1.0000 </r>
       <r>    5.5550    1.0000 </r>
       <r>    6.5997    1.0000 </r>
       <r>    8.3422    1.0000 </r>
       <r>    9.1858    1.0000 </r>
       <r>   15.5484    0.0000 </r>
       <r>   16.4185    0.0000 </r>
       <r>   17.5026    0.0000 </r>
       <r>   17.5026    0.0000 </r>
       <r>   19.0120    0.0000 </r>
       <r>   19.2816    0.0000 </r>
       <r>   19.3450    0.0000 </r>
       <r>   20.3465    0.0000 </r>
      </set>
      <set comment="kpoint 33">
       <r>   -8.9617    1.0000 </r>
       <r>   -7.0603    1.0000 </r>
       <r>   -2.6489    1.0000 </r>
       <r>   -2.6489    1.0000 </r>
       <r>   -0.4243    1.0000 </r>
       <r>   -0.4243    1.0000 </r>
       <r>    2.2707    1.0000 </r>
       <r>    2.2707    1.0000 </r>
       <r>    3.7108    1.0000 </r>
       <r>    4.1404    1.0000 </r>
       <r>    4.1404    1.0000 </r>
       <r>    5.7543    1.0000 </r>
       <r>    5.8579    1.0000 </r>
       <r>    5.9824    1.0000 </r>
       <r>    7.6781    1.0000 </r>
       <r>    8.4332    1.0000 </r>
       <r>   15.6531    0.0000 </r>
       <r>   16.2012    0.0000 </r>
       <r>   18.6034    0.0000 </r>
       <r>   18.6034    0.0000 </r>
       <r>   19.9187    0.0000 </r>
       <r>   20.2398    0.0000 </r>
       <r>   20.3302    0.0000 </r>
       <r>   21.4651    0.0000 </r>
      </set>
      <set comment="kpoint 34">
       <r>   -8.4136    1.0000 </r>
       <r>   -7.7788    1.0000 </r>
       <r>   -2.4927    1.0000 </r>
       <r>   -2.4927    1.0000 </r>
       <r>   -0.5602    1.0000 </r>
       <r>   -0.5602    1.0000 </r>
       <r>    2.2398    1.0000 </r>
       <r>    2.2398    1.0000 </r>
       <r>    3.9786    1.0000 </r>
       <r>    3.9786    1.0000 </r>
       <r>    4.4359    1.0000 </r>
       <r>    5.1403    1.0000 </r>
       <r>    6.4843    1.0000 </r>
       <r>    6.6530    1.0000 </r>
       <r>    7.0533    1.0000 </r>
       <r>    7.5698    1.0000 </r>
       <r>   15.8041    0.0000 </r>
       <r>   15.9912    0.0000 </r>
       <r>   19.7193    0.0000 </r>
       <r>   19.7193    0.0000 </r>
       <r>   20.9269    0.0000 </r>
       <r>   21.2469    0.0000 </r>
       <r>   21.3284    0.0000 </r>
       <r>   21.3361    0.0000 </r>
      </set>
      <set comment="kpoint 35">
       <r>   -9.8829    1.0000 </r>
       <r>   -4.2899    1.0000 </r>
       <r>   -4.2899    1.0000 </r>
       <r>   -3.1800    1.0000 </r>
       <r>   -0.2087    1.0000 </r>
       <r>    0.8340    1.0000 </r>
       <r>    0.8340    1.0000 </r>
       <r>    2.6494    1.0000 </r>
       <r>    3.5051    1.0000 </r>
       <r>    3.5051    1.0000 </r>
       <r>    4.9692    1.0000 </r>
       <r>    4.9692    1.0000 </r>
       <r>    5.0679    1.0000 </r>
       <r>    7.3705    1.0000 </r>
       <r>    9.3514    1.0000 </r>
       <r>   10.0327    1.0000 </r>
       <r>   15.9218    0.0000 </r>
       <r>   15.9218    0.0000 </r>
       <r>   15.9433    0.0000 </r>
       <r>   17.1762    0.0000 </r>
       <r>   17.7261    0.0000 </r>
       <r>   18.0084    0.0000 </r>
       <r>   18.4362    0.0000 </r>
       <r>   18.4362    0.0000 </r>
      </set>
      <set comment="kpoint 36">
       <r>   -9.6058    1.0000 </r>
       <r>   -5.2241    1.0000 </r>
       <r>   -4.0684    1.0000 </r>
       <r>   -3.0222    1.0000 </r>
       <r>   -0.3441    1.0000 </r>
       <r>    0.6311    1.0000 </r>
       <r>    1.7059    1.0000 </r>
       <r>    2.3105    1.0000 </r>
       <r>    3.1721    1.0000 </r>
       <r>    4.0593    1.0000 </r>
       <r>    4.8540    1.0000 </r>
       <r>    5.1557    1.0000 </r>
       <r>    5.2520    1.0000 </r>
       <r>    6.5989    1.0000 </r>
       <r>    8.7730    1.0000 </r>
       <r>    9.8074    1.0000 </r>
       <r>   15.9736    0.0000 </r>
       <r>   16.3286    0.0000 </r>
       <r>   16.6267    0.0000 </r>
       <r>   17.1497    0.0000 </r>
       <r>   18.3915    0.0000 </r>
       <r>   18.5065    0.0000 </r>
       <r>   18.9897    0.0000 </r>
       <r>   19.4746    0.0000 </r>
      </set>
      <set comment="kpoint 37">
       <r>   -9.2375    1.0000 </r>
       <r>   -6.0919    1.0000 </r>
       <r>   -3.7876    1.0000 </r>
       <r>   -2.8670    1.0000 </r>
       <r>   -0.5466    1.0000 </r>
       <r>    0.3122    1.0000 </r>
       <r>    2.1903    1.0000 </r>
       <r>    2.4467    1.0000 </r>
       <r>    2.9593    1.0000 </r>
       <r>    4.6831    1.0000 </r>
       <r>    4.7919    1.0000 </r>
       <r>    5.0770    1.0000 </r>
       <r>    5.6501    1.0000 </r>
       <r>    5.8369    1.0000 </r>
       <r>    8.1297    1.0000 </r>
       <r>    9.3404    1.0000 </r>
       <r>   16.0654    0.0000 </r>
       <r>   16.9764    0.0000 </r>
       <r>   17.0330    0.0000 </r>
       <r>   17.5686    0.0000 </r>
       <r>   19.1726    0.0000 </r>
       <r>   19.2857    0.0000 </r>
       <r>   19.6959    0.0000 </r>
       <r>   20.6004    0.0000 </r>
      </set>
      <set comment="kpoint 38">
       <r>   -8.7795    1.0000 </r>
       <r>   -6.8860    1.0000 </r>
       <r>   -3.4668    1.0000 </r>
       <r>   -2.7934    1.0000 </r>
       <r>   -0.7044    1.0000 </r>
       <r>   -0.0717    1.0000 </r>
       <r>    2.2553    1.0000 </r>
       <r>    2.8047    1.0000 </r>
       <r>    3.1056    1.0000 </r>
       <r>    4.5617    1.0000 </r>
       <r>    4.8989    1.0000 </r>
       <r>    5.1034    1.0000 </r>
       <r>    5.5634    1.0000 </r>
       <r>    6.2210    1.0000 </r>
       <r>    7.4806    1.0000 </r>
       <r>    8.6726    1.0000 </r>
       <r>   16.1978    0.0000 </r>
       <r>   16.7705    0.0000 </r>
       <r>   17.9805    0.0000 </r>
       <r>   18.6642    0.0000 </r>
       <r>   19.9688    0.0000 </r>
       <r>   20.2590    0.0000 </r>
       <r>   20.5369    0.0000 </r>
       <r>   21.3454    0.0000 </r>
      </set>
      <set comment="kpoint 39">
       <r>   -8.2332    1.0000 </r>
       <r>   -7.6011    1.0000 </r>
       <r>   -3.1437    1.0000 </r>
       <r>   -2.8891    1.0000 </r>
       <r>   -0.6743    1.0000 </r>
       <r>   -0.4337    1.0000 </r>
       <r>    2.4280    1.0000 </r>
       <r>    2.6302    1.0000 </r>
       <r>    3.7461    1.0000 </r>
       <r>    4.4068    1.0000 </r>
       <r>    4.5683    1.0000 </r>
       <r>    4.7021    1.0000 </r>
       <r>    6.2313    1.0000 </r>
       <r>    6.8494    1.0000 </r>
       <r>    7.0061    1.0000 </r>
       <r>    7.8681    1.0000 </r>
       <r>   16.3660    0.0000 </r>
       <r>   16.5612    0.0000 </r>
       <r>   19.0519    0.0000 </r>
       <r>   19.6337    0.0000 </r>
       <r>   20.7539    0.0000 </r>
       <r>   20.8397    0.0000 </r>
       <r>   21.2709    0.0000 </r>
       <r>   21.4220    0.0000 </r>
      </set>
      <set comment="kpoint 40">
       <r>   -9.3297    1.0000 </r>
       <r>   -4.9846    1.0000 </r>
       <r>   -4.9846    1.0000 </r>
       <r>   -2.9420    1.0000 </r>
       <r>   -0.5975    1.0000 </r>
       <r>    1.2984    1.0000 </r>
       <r>    1.2984    1.0000 </r>
       <r>    2.1453    1.0000 </r>
       <r>    3.8279    1.0000 </r>
       <r>    3.8279    1.0000 </r>
       <r>    5.2114    1.0000 </r>
       <r>    5.2114    1.0000 </r>
       <r>    5.5040    1.0000 </r>
       <r>    5.8235    1.0000 </r>
       <r>    8.2516    1.0000 </r>
       <r>    9.7437    1.0000 </r>
       <r>   16.4125    0.0000 </r>
       <r>   16.7112    0.0000 </r>
       <r>   16.7112    0.0000 </r>
       <r>   17.6035    0.0000 </r>
       <r>   18.5850    0.0000 </r>
       <r>   18.7275    0.0000 </r>
       <r>   19.9538    0.0000 </r>
       <r>   19.9538    0.0000 </r>
      </set>
      <set comment="kpoint 41">
       <r>   -8.9630    1.0000 </r>
       <r>   -5.8405    1.0000 </r>
       <r>   -4.6741    1.0000 </r>
       <r>   -2.9485    1.0000 </r>
       <r>   -0.8080    1.0000 </r>
       <r>    0.8019    1.0000 </r>
       <r>    1.8796    1.0000 </r>
       <r>    2.1941    1.0000 </r>
       <r>    3.6049    1.0000 </r>
       <r>    4.5456    1.0000 </r>
       <r>    5.0644    1.0000 </r>
       <r>    5.1789    1.0000 </r>
       <r>    5.6555    1.0000 </r>
       <r>    5.7540    1.0000 </r>
       <r>    7.6447    1.0000 </r>
       <r>    9.4387    1.0000 </r>
       <r>   16.8288    0.0000 </r>
       <r>   16.8432    0.0000 </r>
       <r>   17.6559    0.0000 </r>
       <r>   17.6658    0.0000 </r>
       <r>   19.1094    0.0000 </r>
       <r>   19.2769    0.0000 </r>
       <r>   20.5709    0.0000 </r>
       <r>   20.9407    0.0000 </r>
      </set>
      <set comment="kpoint 42">
       <r>   -8.5071    1.0000 </r>
       <r>   -6.6265    1.0000 </r>
       <r>   -4.3033    1.0000 </r>
       <r>   -3.1319    1.0000 </r>
       <r>   -0.8163    1.0000 </r>
       <r>    0.2833    1.0000 </r>
       <r>    2.3916    1.0000 </r>
       <r>    2.4425    1.0000 </r>
       <r>    3.3306    1.0000 </r>
       <r>    4.3401    1.0000 </r>
       <r>    5.2018    1.0000 </r>
       <r>    5.2268    1.0000 </r>
       <r>    5.6384    1.0000 </r>
       <r>    6.4976    1.0000 </r>
       <r>    7.0191    1.0000 </r>
       <r>    8.8987    1.0000 </r>
       <r>   16.9773    0.0000 </r>
       <r>   17.5193    0.0000 </r>
       <r>   17.5774    0.0000 </r>
       <r>   18.7507    0.0000 </r>
       <r>   19.6435    0.0000 </r>
       <r>   20.2165    0.0000 </r>
       <r>   20.9050    0.0000 </r>
       <r>   21.2604    0.0000 </r>
      </set>
      <set comment="kpoint 43">
       <r>   -7.9639    1.0000 </r>
       <r>   -7.3359    1.0000 </r>
       <r>   -3.8917    1.0000 </r>
       <r>   -3.4774    1.0000 </r>
       <r>   -0.5891    1.0000 </r>
       <r>   -0.1990    1.0000 </r>
       <r>    2.6790    1.0000 </r>
       <r>    3.0079    1.0000 </r>
       <r>    3.0298    1.0000 </r>
       <r>    3.6607    1.0000 </r>
       <r>    5.3553    1.0000 </r>
       <r>    5.5146    1.0000 </r>
       <r>    5.8043    1.0000 </r>
       <r>    6.4034    1.0000 </r>
       <r>    7.3466    1.0000 </r>
       <r>    8.1776    1.0000 </r>
       <r>   17.1504    0.0000 </r>
       <r>   17.3373    0.0000 </r>
       <r>   18.5224    0.0000 </r>
       <r>   19.4002    0.0000 </r>
       <r>   20.2916    0.0000 </r>
       <r>   20.4076    0.0000 </r>
       <r>   21.0067    0.0000 </r>
       <r>   21.2341    0.0000 </r>
      </set>
      <set comment="kpoint 44">
       <r>   -8.5986    1.0000 </r>
       <r>   -5.5112    1.0000 </r>
       <r>   -5.5112    1.0000 </r>
       <r>   -3.2133    1.0000 </r>
       <r>   -0.8719    1.0000 </r>
       <r>    1.2741    1.0000 </r>
       <r>    1.2741    1.0000 </r>
       <r>    2.3614    1.0000 </r>
       <r>    4.2101    1.0000 </r>
       <r>    4.2101    1.0000 </r>
       <r>    4.3120    1.0000 </r>
       <r>    5.8913    1.0000 </r>
       <r>    5.8913    1.0000 </r>
       <r>    6.0574    1.0000 </r>
       <r>    7.0690    1.0000 </r>
       <r>    9.3163    1.0000 </r>
       <r>   16.9817    0.0000 </r>
       <r>   17.7910    0.0000 </r>
       <r>   17.7910    0.0000 </r>
       <r>   18.1970    0.0000 </r>
       <r>   19.1624    0.0000 </r>
       <r>   19.5210    0.0000 </r>
       <r>   21.1433    0.0000 </r>
       <r>   21.1433    0.0000 </r>
      </set>
      <set comment="kpoint 45">
       <r>   -8.1459    1.0000 </r>
       <r>   -6.2846    1.0000 </r>
       <r>   -5.1104    1.0000 </r>
       <r>   -3.6452    1.0000 </r>
       <r>   -0.6941    1.0000 </r>
       <r>    0.6795    1.0000 </r>
       <r>    1.7750    1.0000 </r>
       <r>    2.6403    1.0000 </r>
       <r>    3.5979    1.0000 </r>
       <r>    3.8133    1.0000 </r>
       <r>    4.7644    1.0000 </r>
       <r>    6.0517    1.0000 </r>
       <r>    6.2604    1.0000 </r>
       <r>    6.4702    1.0000 </r>
       <r>    6.7344    1.0000 </r>
       <r>    8.9439    1.0000 </r>
       <r>   17.4495    0.0000 </r>
       <r>   17.9377    0.0000 </r>
       <r>   18.3299    0.0000 </r>
       <r>   18.8562    0.0000 </r>
       <r>   19.3676    0.0000 </r>
       <r>   20.2440    0.0000 </r>
       <r>   20.3539    0.0000 </r>
       <r>   20.7581    0.0000 </r>
      </set>
      <set comment="kpoint 46">
       <r>   -7.6071    1.0000 </r>
       <r>   -6.9853    1.0000 </r>
       <r>   -4.6493    1.0000 </r>
       <r>   -4.1480    1.0000 </r>
       <r>   -0.3396    1.0000 </r>
       <r>    0.1312    1.0000 </r>
       <r>    2.3258    1.0000 </r>
       <r>    2.9338    1.0000 </r>
       <r>    2.9948    1.0000 </r>
       <r>    3.3960    1.0000 </r>
       <r>    5.3124    1.0000 </r>
       <r>    5.8801    1.0000 </r>
       <r>    6.2011    1.0000 </r>
       <r>    6.2902    1.0000 </r>
       <r>    7.5860    1.0000 </r>
       <r>    8.3480    1.0000 </r>
       <r>   18.0951    0.0000 </r>
       <r>   18.1922    0.0000 </r>
       <r>   18.2427    0.0000 </r>
       <r>   19.0692    0.0000 </r>
       <r>   19.7259    0.0000 </r>
       <r>   20.2084    0.0000 </r>
       <r>   20.2945    0.0000 </r>
       <r>   21.2178    0.0000 </r>
      </set>
      <set comment="kpoint 47">
       <r>   -7.6978    1.0000 </r>
       <r>   -5.8646    1.0000 </r>
       <r>   -5.8646    1.0000 </r>
       <r>   -4.2337    1.0000 </r>
       <r>   -0.3937    1.0000 </r>
       <r>    1.1357    1.0000 </r>
       <r>    1.1357    1.0000 </r>
       <r>    2.8958    1.0000 </r>
       <r>    2.9740    1.0000 </r>
       <r>    4.2925    1.0000 </r>
       <r>    4.2925    1.0000 </r>
       <r>    5.8975    1.0000 </r>
       <r>    6.7010    1.0000 </r>
       <r>    6.9103    1.0000 </r>
       <r>    6.9103    1.0000 </r>
       <r>    8.7575    1.0000 </r>
       <r>   17.6298    0.0000 </r>
       <r>   18.9618    0.0000 </r>
       <r>   18.9686    0.0000 </r>
       <r>   18.9686    0.0000 </r>
       <r>   19.2086    0.0000 </r>
       <r>   19.8640    0.0000 </r>
       <r>   19.8640    0.0000 </r>
       <r>   20.5388    0.0000 </r>
      </set>
      <set comment="kpoint 48">
       <r>   -7.1653    1.0000 </r>
       <r>   -6.5524    1.0000 </r>
       <r>   -5.3735    1.0000 </r>
       <r>   -4.8230    1.0000 </r>
       <r>    0.0308    1.0000 </r>
       <r>    0.5477    1.0000 </r>
       <r>    1.6582    1.0000 </r>
       <r>    2.2464    1.0000 </r>
       <r>    3.3733    1.0000 </r>
       <r>    3.8198    1.0000 </r>
       <r>    4.7967    1.0000 </r>
       <r>    5.3338    1.0000 </r>
       <r>    6.9383    1.0000 </r>
       <r>    6.9931    1.0000 </r>
       <r>    7.6975    1.0000 </r>
       <r>    8.3325    1.0000 </r>
       <r>   18.1089    0.0000 </r>
       <r>   18.8154    0.0000 </r>
       <r>   19.0657    0.0000 </r>
       <r>   19.1134    0.0000 </r>
       <r>   19.2841    0.0000 </r>
       <r>   19.5026    0.0000 </r>
       <r>   20.2640    0.0000 </r>
       <r>   21.2868    0.0000 </r>
      </set>
      <set comment="kpoint 49">
       <r>   -6.6419    1.0000 </r>
       <r>   -6.0419    1.0000 </r>
       <r>   -6.0419    1.0000 </r>
       <r>   -5.4614    1.0000 </r>
       <r>    0.4972    1.0000 </r>
       <r>    1.0439    1.0000 </r>
       <r>    1.0439    1.0000 </r>
       <r>    1.6128    1.0000 </r>
       <r>    3.8078    1.0000 </r>
       <r>    4.2877    1.0000 </r>
       <r>    4.2877    1.0000 </r>
       <r>    4.7962    1.0000 </r>
       <r>    7.3980    1.0000 </r>
       <r>    7.6462    1.0000 </r>
       <r>    7.6462    1.0000 </r>
       <r>    8.1011    1.0000 </r>
       <r>   18.2976    0.0000 </r>
       <r>   18.7393    0.0000 </r>
       <r>   18.7393    0.0000 </r>
       <r>   18.8762    0.0000 </r>
       <r>   19.8906    0.0000 </r>
       <r>   20.1919    0.0000 </r>
       <r>   20.1919    0.0000 </r>
       <r>   20.9616    0.0000 </r>
      </set>
      <set comment="kpoint 50">
       <r>   -9.6981    1.0000 </r>
       <r>   -4.1460    1.0000 </r>
       <r>   -4.1460    1.0000 </r>
       <r>   -4.1460    1.0000 </r>
       <r>    0.5968    1.0000 </r>
       <r>    0.5968    1.0000 </r>
       <r>    0.5968    1.0000 </r>
       <r>    3.1611    1.0000 </r>
       <r>    3.1611    1.0000 </r>
       <r>    3.1611    1.0000 </r>
       <r>    5.2376    1.0000 </r>
       <r>    5.2376    1.0000 </r>
       <r>    5.2376    1.0000 </r>
       <r>    6.5901    1.0000 </r>
       <r>    9.5836    1.0000 </r>
       <r>    9.5836    1.0000 </r>
       <r>   16.0247    0.0000 </r>
       <r>   16.0247    0.0000 </r>
       <r>   16.0247    0.0000 </r>
       <r>   17.7077    0.0000 </r>
       <r>   17.7077    0.0000 </r>
       <r>   18.1196    0.0000 </r>
       <r>   19.3934    0.0000 </r>
       <r>   19.3934    0.0000 </r>
      </set>
      <set comment="kpoint 51">
       <r>   -9.4217    1.0000 </r>
       <r>   -5.0662    1.0000 </r>
       <r>   -3.9408    1.0000 </r>
       <r>   -3.9408    1.0000 </r>
       <r>    0.2174    1.0000 </r>
       <r>    0.2174    1.0000 </r>
       <r>    1.2589    1.0000 </r>
       <r>    3.0046    1.0000 </r>
       <r>    3.0046    1.0000 </r>
       <r>    3.9313    1.0000 </r>
       <r>    5.3306    1.0000 </r>
       <r>    5.3306    1.0000 </r>
       <r>    5.4897    1.0000 </r>
       <r>    5.7995    1.0000 </r>
       <r>    9.0247    1.0000 </r>
       <r>    9.5260    1.0000 </r>
       <r>   16.1450    0.0000 </r>
       <r>   16.4366    0.0000 </r>
       <r>   16.4366    0.0000 </r>
       <r>   17.5735    0.0000 </r>
       <r>   18.3945    0.0000 </r>
       <r>   18.4903    0.0000 </r>
       <r>   19.8618    0.0000 </r>
       <r>   20.5147    0.0000 </r>
      </set>
      <set comment="kpoint 52">
       <r>   -9.0545    1.0000 </r>
       <r>   -5.9251    1.0000 </r>
       <r>   -3.6930    1.0000 </r>
       <r>   -3.6930    1.0000 </r>
       <r>   -0.2380    1.0000 </r>
       <r>   -0.2380    1.0000 </r>
       <r>    1.8333    1.0000 </r>
       <r>    3.0043    1.0000 </r>
       <r>    3.0043    1.0000 </r>
       <r>    4.8715    1.0000 </r>
       <r>    5.0291    1.0000 </r>
       <r>    5.2789    1.0000 </r>
       <r>    5.2789    1.0000 </r>
       <r>    5.8212    1.0000 </r>
       <r>    8.4204    1.0000 </r>
       <r>    9.1749    1.0000 </r>
       <r>   16.3013    0.0000 </r>
       <r>   17.1479    0.0000 </r>
       <r>   17.1479    0.0000 </r>
       <r>   17.3807    0.0000 </r>
       <r>   19.0884    0.0000 </r>
       <r>   19.1775    0.0000 </r>
       <r>   20.4807    0.0000 </r>
       <r>   21.6708    0.0000 </r>
      </set>
      <set comment="kpoint 53">
       <r>   -8.5979    1.0000 </r>
       <r>   -6.7134    1.0000 </r>
       <r>   -3.4424    1.0000 </r>
       <r>   -3.4424    1.0000 </r>
       <r>   -0.6631    1.0000 </r>
       <r>   -0.6631    1.0000 </r>
       <r>    2.3923    1.0000 </r>
       <r>    3.0811    1.0000 </r>
       <r>    3.0811    1.0000 </r>
       <r>    4.2968    1.0000 </r>
       <r>    5.1581    1.0000 </r>
       <r>    5.1581    1.0000 </r>
       <r>    5.8769    1.0000 </r>
       <r>    6.2275    1.0000 </r>
       <r>    7.8142    1.0000 </r>
       <r>    8.5745    1.0000 </r>
       <r>   16.4888    0.0000 </r>
       <r>   17.1598    0.0000 </r>
       <r>   18.0860    0.0000 </r>
       <r>   18.0860    0.0000 </r>
       <r>   19.8609    0.0000 </r>
       <r>   20.0185    0.0000 </r>
       <r>   21.2351    0.0000 </r>
       <r>   21.8340    0.0000 </r>
[...]
       <r>   -4.9306    1.0000 </r>
       <r>   -4.9306    1.0000 </r>
       <r>   -1.9007    1.0000 </r>
       <r>   -1.9007    1.0000 </r>
       <r>   -1.9007    1.0000 </r>
       <r>   -0.3786    1.0000 </r>
       <r>    6.9167    1.0000 </r>
       <r>    6.9167    1.0000 </r>
       <r>    6.9167    1.0000 </r>
       <r>    7.3952    1.0000 </r>
       <r>    7.3952    1.0000 </r>
       <r>    7.3952    1.0000 </r>
       <r>    8.1351    1.0000 </r>
       <r>    8.1351    1.0000 </r>
       <r>   18.4542    0.0000 </r>
       <r>   18.4542    0.0000 </r>
       <r>   18.4542    0.0000 </r>
       <r>   19.0469    0.0000 </r>
       <r>   19.0469    0.0000 </r>
       <r>   19.2391    0.0000 </r>
       <r>   20.0977    0.0000 </r>
       <r>   20.0977    0.0000 </r>
      </set>
      <set comment="kpoint 82">
       <r>   -6.0049    1.0000 </r>
       <r>   -5.4694    1.0000 </r>
       <r>   -4.7285    1.0000 </r>
       <r>   -4.7285    1.0000 </r>
       <r>   -2.2623    1.0000 </r>
       <r>   -2.2623    1.0000 </r>
       <r>   -1.5368    1.0000 </r>
       <r>   -1.0148    1.0000 </r>
       <r>    7.0414    1.0000 </r>
       <r>    7.0414    1.0000 </r>
       <r>    7.5550    1.0000 </r>
       <r>    7.5550    1.0000 </r>
       <r>    7.6000    1.0000 </r>
       <r>    7.6429    1.0000 </r>
       <r>    7.8946    1.0000 </r>
       <r>    8.0247    1.0000 </r>
       <r>   18.6984    0.0000 </r>
       <r>   18.8054    0.0000 </r>
       <r>   18.8054    0.0000 </r>
       <r>   18.9015    0.0000 </r>
       <r>   19.2924    0.0000 </r>
       <r>   19.4039    0.0000 </r>
       <r>   19.5221    0.0000 </r>
       <r>   19.5222    0.0000 </r>
      </set>
      <set comment="kpoint 83">
       <r>   -5.5552    1.0000 </r>
       <r>   -5.0992    1.0000 </r>
       <r>   -5.0992    1.0000 </r>
       <r>   -4.8114    1.0000 </r>
       <r>   -2.3458    1.0000 </r>
       <r>   -2.0631    1.0000 </r>
       <r>   -2.0631    1.0000 </r>
       <r>   -1.6166    1.0000 </r>
       <r>    7.3550    1.0000 </r>
       <r>    7.5203    1.0000 </r>
       <r>    7.5203    1.0000 </r>
       <r>    7.7666    1.0000 </r>
       <r>    7.7750    1.0000 </r>
       <r>    7.8234    1.0000 </r>
       <r>    7.8234    1.0000 </r>
       <r>    8.0261    1.0000 </r>
       <r>   18.9072    0.0000 </r>
       <r>   18.9840    0.0000 </r>
       <r>   18.9840    0.0000 </r>
       <r>   19.0979    0.0000 </r>
       <r>   19.1338    0.0000 </r>
       <r>   19.2762    0.0000 </r>
       <r>   19.2762    0.0000 </r>
       <r>   19.4193    0.0000 </r>
      </set>
      <set comment="kpoint 84">
       <r>   -5.1832    1.0000 </r>
       <r>   -4.8940    1.0000 </r>
       <r>   -4.8940    1.0000 </r>
       <r>   -4.8940    1.0000 </r>
       <r>   -2.4308    1.0000 </r>
       <r>   -2.4308    1.0000 </r>
       <r>   -2.4308    1.0000 </r>
       <r>   -2.1463    1.0000 </r>
       <r>    7.8119    1.0000 </r>
       <r>    7.8119    1.0000 </r>
       <r>    7.8119    1.0000 </r>
       <r>    7.8707    1.0000 </r>
       <r>    7.8707    1.0000 </r>
       <r>    7.8707    1.0000 </r>
       <r>    7.9593    1.0000 </r>
       <r>    7.9593    1.0000 </r>
       <r>   19.0315    0.0000 </r>
       <r>   19.0315    0.0000 </r>
       <r>   19.0315    0.0000 </r>
       <r>   19.0937    0.0000 </r>
       <r>   19.0937    0.0000 </r>
       <r>   19.2156    0.0000 </r>
       <r>   19.2156    0.0000 </r>
       <r>   19.2183    0.0000 </r>
      </set>
     </set>
    </set>
   </array>
  </eigenvalues>
  <separator name="orbital magnetization" >
   <v name="MAGDIPOLOUT">      0.00000000      0.00000000      0.00000000</v>
  </separator>
  <dos>
   <i name="efermi">     10.90970875 </i>
   <total>
    <array>
     <dimension dim="1">gridpoints</dimension>
     <dimension dim="2">spin</dimension>
     <field>energy</field>
     <field>total</field>
     <field>integrated</field>
     <set>
      <set comment="spin 1">
       <r>   -12.1810     0.0000     0.0000 </r>
       <r>   -12.0601     0.0000     0.0000 </r>
       <r>   -11.9393     0.0000     0.0000 </r>
       <r>   -11.8184     0.0000     0.0000 </r>
       <r>   -11.6975     0.0000     0.0000 </r>
       <r>   -11.5767     0.0000     0.0000 </r>
       <r>   -11.4558     0.0000     0.0000 </r>
       <r>   -11.3350     0.0000     0.0000 </r>
       <r>   -11.2141     0.0000     0.0000 </r>
       <r>   -11.0933     0.0000     0.0000 </r>
       <r>   -10.9724     0.0000     0.0000 </r>
       <r>   -10.8516     0.0000     0.0000 </r>
       <r>   -10.7307     0.0000     0.0000 </r>
       <r>   -10.6099     0.0007     0.0001 </r>
       <r>   -10.4890     0.0543     0.0066 </r>
       <r>   -10.3682     0.1745     0.0277 </r>
       <r>   -10.2473     0.2205     0.0544 </r>
       <r>   -10.1264     0.3296     0.0942 </r>
       <r>   -10.0056     0.2367     0.1228 </r>
       <r>    -9.8847     0.4448     0.1766 </r>
       <r>    -9.7639     0.3498     0.2188 </r>
       <r>    -9.6430     0.4028     0.2675 </r>
       <r>    -9.5222     0.5039     0.3284 </r>
       <r>    -9.4013     0.4967     0.3885 </r>
       <r>    -9.2805     0.5453     0.4544 </r>
       <r>    -9.1596     0.3897     0.5015 </r>
       <r>    -9.0388     0.6803     0.5837 </r>
       <r>    -8.9179     0.6565     0.6630 </r>
       <r>    -8.7970     0.5292     0.7270 </r>
       <r>    -8.6762     0.5031     0.7878 </r>
       <r>    -8.5553     0.7413     0.8774 </r>
       <r>    -8.4345     0.8208     0.9766 </r>
       <r>    -8.3136     0.5870     1.0475 </r>
       <r>    -8.1928     0.7614     1.1395 </r>
       <r>    -8.0719     0.6347     1.2162 </r>
       <r>    -7.9511     0.8720     1.3216 </r>
       <r>    -7.8302     0.5688     1.3904 </r>
       <r>    -7.7094     0.9507     1.5053 </r>
       <r>    -7.5885     1.0627     1.6337 </r>
       <r>    -7.4677     0.5460     1.6997 </r>
       <r>    -7.3468     0.8305     1.8000 </r>
       <r>    -7.2259     0.7284     1.8881 </r>
       <r>    -7.1051     1.2569     2.0400 </r>
       <r>    -6.9842     0.8724     2.1454 </r>
       <r>    -6.8634     0.9546     2.2608 </r>
       <r>    -6.7425     0.7521     2.3517 </r>
       <r>    -6.6217     1.0838     2.4827 </r>
       <r>    -6.5008     0.8876     2.5899 </r>
       <r>    -6.3800     1.1004     2.7229 </r>
       <r>    -6.2591     0.9965     2.8433 </r>
       <r>    -6.1383     1.1134     2.9779 </r>
       <r>    -6.0174     1.1069     3.1117 </r>
       <r>    -5.8966     1.1460     3.2502 </r>
       <r>    -5.7757     1.3123     3.4088 </r>
       <r>    -5.6548     0.6826     3.4913 </r>
       <r>    -5.5340     0.9972     3.6118 </r>
       <r>    -5.4131     1.6929     3.8164 </r>
       <r>    -5.2923     1.2996     3.9734 </r>
       <r>    -5.1714     1.2247     4.1215 </r>
       <r>    -5.0506     1.4967     4.3023 </r>
       <r>    -4.9297     1.0868     4.4337 </r>
       <r>    -4.8089     1.5307     4.6187 </r>
       <r>    -4.6880     1.5876     4.8105 </r>
       <r>    -4.5672     1.6497     5.0099 </r>
       <r>    -4.4463     1.3165     5.1690 </r>
       <r>    -4.3255     1.4183     5.3404 </r>
       <r>    -4.2046     1.3149     5.4993 </r>
       <r>    -4.0837     2.1529     5.7595 </r>
       <r>    -3.9629     0.7310     5.8479 </r>
       <r>    -3.8420     1.3505     6.0111 </r>
       <r>    -3.7212     0.9689     6.1282 </r>
       <r>    -3.6003     1.1026     6.2614 </r>
       <r>    -3.4795     1.6367     6.4592 </r>
       <r>    -3.3586     1.3381     6.6210 </r>
       <r>    -3.2378     0.6797     6.7031 </r>
       <r>    -3.1169     1.2432     6.8533 </r>
       <r>    -2.9961     1.0345     6.9784 </r>
       <r>    -2.8752     1.3094     7.1366 </r>
       <r>    -2.7543     0.8302     7.2369 </r>
       <r>    -2.6335     0.5224     7.3001 </r>
       <r>    -2.5126     0.7146     7.3864 </r>
       <r>    -2.3918     0.9878     7.5058 </r>
       <r>    -2.2709     1.2631     7.6585 </r>
       <r>    -2.1501     1.2789     7.8130 </r>
       <r>    -2.0292     1.4415     7.9872 </r>
       <r>    -1.9084     1.1661     8.1282 </r>
       <r>    -1.7875     0.6178     8.2028 </r>
       <r>    -1.6667     0.7068     8.2882 </r>
       <r>    -1.5458     1.2289     8.4368 </r>
       <r>    -1.4250     0.8378     8.5380 </r>
       <r>    -1.3041     0.9269     8.6500 </r>
       <r>    -1.1832     1.5330     8.8353 </r>
       <r>    -1.0624     2.1148     9.0909 </r>
       <r>    -0.9415     1.4962     9.2717 </r>
       <r>    -0.8207     2.5316     9.5777 </r>
       <r>    -0.6998     1.8972     9.8070 </r>
       <r>    -0.5790     2.5711    10.1177 </r>
       <r>    -0.4581     1.3546    10.2814 </r>
       <r>    -0.3373     2.0065    10.5239 </r>
       <r>    -0.2164     2.3880    10.8125 </r>
       <r>    -0.0956     2.8619    11.1584 </r>
       <r>     0.0253     1.3727    11.3243 </r>
       <r>     0.1461     1.5211    11.5081 </r>
       <r>     0.2670     0.8471    11.6105 </r>
       <r>     0.3879     1.0933    11.7426 </r>
       <r>     0.5087     1.4960    11.9234 </r>
       <r>     0.6296     0.9888    12.0429 </r>
       <r>     0.7504     1.3092    12.2011 </r>
       <r>     0.8713     1.4117    12.3717 </r>
       <r>     0.9921     1.7188    12.5795 </r>
       <r>     1.1130     0.6623    12.6595 </r>
       <r>     1.2338     0.9116    12.7697 </r>
       <r>     1.3547     1.3132    12.9284 </r>
       <r>     1.4755     1.0897    13.0601 </r>
       <r>     1.5964     0.6662    13.1406 </r>
       <r>     1.7172     1.8979    13.3700 </r>
       <r>     1.8381     1.1946    13.5143 </r>
       <r>     1.9590     2.6449    13.8340 </r>
       <r>     2.0798     1.2961    13.9906 </r>
       <r>     2.2007     2.2482    14.2623 </r>
       <r>     2.3215     2.2216    14.5308 </r>
       <r>     2.4424     2.5421    14.8381 </r>
       <r>     2.5632     2.1150    15.0937 </r>
       <r>     2.6841     1.5572    15.2819 </r>
       <r>     2.8049     1.5269    15.4664 </r>
       <r>     2.9258     1.5177    15.6498 </r>
       <r>     3.0466     3.2511    16.0427 </r>
       <r>     3.1675     3.1455    16.4228 </r>
       <r>     3.2884     1.3289    16.5835 </r>
       <r>     3.4092     1.6810    16.7866 </r>
       <r>     3.5301     2.0799    17.0380 </r>
       <r>     3.6509     2.3753    17.3250 </r>
       <r>     3.7718     2.8421    17.6685 </r>
       <r>     3.8926     2.1992    17.9343 </r>
       <r>     4.0135     2.5820    18.2463 </r>
       <r>     4.1343     1.6873    18.4503 </r>
       <r>     4.2552     2.7379    18.7811 </r>
       <r>     4.3760     3.5827    19.2141 </r>
       <r>     4.4969     3.0873    19.5872 </r>
       <r>     4.6177     3.0244    19.9527 </r>
       <r>     4.7386     2.7812    20.2889 </r>
       <r>     4.8595     3.0438    20.6567 </r>
       <r>     4.9803     2.6039    20.9714 </r>
       <r>     5.1012     3.8784    21.4401 </r>
       <r>     5.2220     4.4115    21.9733 </r>
       <r>     5.3429     2.6373    22.2920 </r>
       <r>     5.4637     1.6502    22.4914 </r>
       <r>     5.5846     2.6570    22.8125 </r>
       <r>     5.7054     3.5090    23.2366 </r>
       <r>     5.8263     4.1502    23.7382 </r>
       <r>     5.9471     2.7110    24.0658 </r>
       <r>     6.0680     1.9911    24.3064 </r>
       <r>     6.1888     3.0258    24.6721 </r>
       <r>     6.3097     3.1513    25.0530 </r>
       <r>     6.4306     2.4458    25.3486 </r>
       <r>     6.5514     3.3536    25.7539 </r>
       <r>     6.6723     2.7642    26.0879 </r>
       <r>     6.7931     2.1797    26.3513 </r>
       <r>     6.9140     2.4468    26.6471 </r>
       <r>     7.0348     3.8969    27.1180 </r>
       <r>     7.1557     2.3977    27.4078 </r>
       <r>     7.2765     2.1186    27.6638 </r>
       <r>     7.3974     2.8482    28.0080 </r>
       <r>     7.5182     1.8123    28.2271 </r>
       <r>     7.6391     3.3631    28.6335 </r>
       <r>     7.7600     3.4466    29.0501 </r>
       <r>     7.8808     1.8504    29.2737 </r>
       <r>     8.0017     1.3746    29.4398 </r>
       <r>     8.1225     2.6078    29.7550 </r>
       <r>     8.2434     1.9371    29.9891 </r>
       <r>     8.3642     2.2006    30.2550 </r>
       <r>     8.4851     1.3788    30.4217 </r>
       <r>     8.6059     0.7323    30.5102 </r>
       <r>     8.7268     1.0547    30.6376 </r>
       <r>     8.8476     1.9925    30.8784 </r>
       <r>     8.9685     1.0753    31.0084 </r>
       <r>     9.0893     1.0875    31.1398 </r>
       <r>     9.2102     0.7463    31.2300 </r>
       <r>     9.3311     0.5176    31.2926 </r>
       <r>     9.4519     1.1573    31.4324 </r>
       <r>     9.5728     0.9680    31.5494 </r>
       <r>     9.6936     0.5098    31.6110 </r>
       <r>     9.8145     0.5699    31.6799 </r>
       <r>     9.9353     0.4843    31.7384 </r>
       <r>    10.0562     0.6909    31.8219 </r>
       <r>    10.1770     0.3544    31.8648 </r>
       <r>    10.2979     0.4128    31.9147 </r>
       <r>    10.4187     0.2838    31.9490 </r>
       <r>    10.5396     0.2448    31.9786 </r>
       <r>    10.6604     0.1570    31.9975 </r>
       <r>    10.7813     0.0205    32.0000 </r>
       <r>    10.9022     0.0000    32.0000 </r>
       <r>    11.0230     0.0000    32.0000 </r>
       <r>    11.1439     0.0000    32.0000 </r>
       <r>    11.2647     0.0000    32.0000 </r>
       <r>    11.3856     0.0000    32.0000 </r>
       <r>    11.5064     0.0000    32.0000 </r>
       <r>    11.6273     0.0000    32.0000 </r>
       <r>    11.7481     0.0000    32.0000 </r>
       <r>    11.8690     0.0000    32.0000 </r>
       <r>    11.9898     0.0000    32.0000 </r>
       <r>    12.1107     0.0000    32.0000 </r>
       <r>    12.2315     0.0000    32.0000 </r>
       <r>    12.3524     0.0000    32.0000 </r>
       <r>    12.4733     0.0000    32.0000 </r>
       <r>    12.5941     0.0000    32.0000 </r>
       <r>    12.7150     0.0000    32.0000 </r>
       <r>    12.8358     0.0000    32.0000 </r>
       <r>    12.9567     0.0000    32.0000 </r>
       <r>    13.0775     0.0000    32.0000 </r>
       <r>    13.1984     0.0000    32.0000 </r>
       <r>    13.3192     0.0000    32.0000 </r>
       <r>    13.4401     0.0000    32.0000 </r>
       <r>    13.5609     0.0000    32.0000 </r>
       <r>    13.6818     0.0000    32.0000 </r>
       <r>    13.8027     0.0000    32.0000 </r>
       <r>    13.9235     0.0000    32.0000 </r>
       <r>    14.0444     0.0000    32.0000 </r>
       <r>    14.1652     0.0000    32.0000 </r>
       <r>    14.2861     0.0000    32.0000 </r>
       <r>    14.4069     0.0000    32.0000 </r>
       <r>    14.5278     0.0000    32.0000 </r>
       <r>    14.6486     0.0000    32.0000 </r>
       <r>    14.7695     0.0000    32.0000 </r>
       <r>    14.8903     0.0991    32.0120 </r>
       <r>    15.0112     0.4261    32.0635 </r>
       <r>    15.1320     0.2413    32.0926 </r>
       <r>    15.2529     0.2347    32.1210 </r>
       <r>    15.3738     1.1032    32.2543 </r>
       <r>    15.4946     0.7670    32.3470 </r>
       <r>    15.6155     0.9756    32.4649 </r>
       <r>    15.7363     0.7881    32.5602 </r>
       <r>    15.8572     0.4152    32.6104 </r>
       <r>    15.9780     1.9024    32.8403 </r>
       <r>    16.0989     1.7135    33.0474 </r>
       <r>    16.2197     1.7200    33.2552 </r>
       <r>    16.3406     1.6637    33.4563 </r>
       <r>    16.4614     1.4028    33.6258 </r>
       <r>    16.5823     1.7970    33.8430 </r>
       <r>    16.7031     1.3247    34.0031 </r>
       <r>    16.8240     2.0151    34.2466 </r>
       <r>    16.9449     2.2598    34.5197 </r>
       <r>    17.0657     2.9852    34.8805 </r>
       <r>    17.1866     2.3280    35.1619 </r>
       <r>    17.3074     1.4038    35.3315 </r>
       <r>    17.4283     1.6628    35.5325 </r>
       <r>    17.5491     3.2543    35.9258 </r>
       <r>    17.6700     2.5000    36.2279 </r>
       <r>    17.7908     2.5381    36.5346 </r>
       <r>    17.9117     1.5593    36.7231 </r>
       <r>    18.0325     2.6922    37.0484 </r>
       <r>    18.1534     3.3989    37.4592 </r>
       <r>    18.2743     3.5144    37.8840 </r>
       <r>    18.3951     3.3782    38.2922 </r>
       <r>    18.5160     4.0150    38.7775 </r>
       <r>    18.6368     3.1304    39.1558 </r>
       <r>    18.7577     3.0293    39.5219 </r>
       <r>    18.8785     3.7998    39.9811 </r>
       <r>    18.9994     3.3909    40.3909 </r>
       <r>    19.1202     4.7341    40.9630 </r>
       <r>    19.2411     4.0858    41.4568 </r>
       <r>    19.3619     6.4119    42.2317 </r>
       <r>    19.4828     3.9570    42.7099 </r>
       <r>    19.6036     2.7776    43.0456 </r>
       <r>    19.7245     3.6148    43.4825 </r>
       <r>    19.8454     2.6151    43.7985 </r>
       <r>    19.9662     2.4698    44.0970 </r>
       <r>    20.0871     2.0259    44.3418 </r>
       <r>    20.2079     2.5641    44.6517 </r>
       <r>    20.3288     4.4333    45.1875 </r>
       <r>    20.4496     2.5057    45.4903 </r>
       <r>    20.5705     3.1328    45.8689 </r>
       <r>    20.6913     2.5463    46.1767 </r>
       <r>    20.8122     2.6412    46.4959 </r>
       <r>    20.9330     2.3842    46.7840 </r>
       <r>    21.0539     1.4336    46.9572 </r>
       <r>    21.1747     1.0020    47.0783 </r>
       <r>    21.2956     1.9609    47.3153 </r>
       <r>    21.4165     1.5899    47.5075 </r>
       <r>    21.5373     1.3465    47.6702 </r>
       <r>    21.6582     1.2680    47.8234 </r>
       <r>    21.7790     0.3977    47.8715 </r>
       <r>    21.8999     0.6034    47.9444 </r>
       <r>    22.0207     0.1323    47.9604 </r>
       <r>    22.1416     0.0380    47.9650 </r>
       <r>    22.2624     0.0000    47.9650 </r>
       <r>    22.3833     0.0345    47.9692 </r>
       <r>    22.5041     0.2513    47.9996 </r>
       <r>    22.6250     0.0037    48.0000 </r>
       <r>    22.7458     0.0000    48.0000 </r>
       <r>    22.8667     0.0000    48.0000 </r>
       <r>    22.9876     0.0000    48.0000 </r>
       <r>    23.1084     0.0000    48.0000 </r>
       <r>    23.2293     0.0000    48.0000 </r>
       <r>    23.3501     0.0000    48.0000 </r>
       <r>    23.4710     0.0000    48.0000 </r>
       <r>    23.5918     0.0000    48.0000 </r>
       <r>    23.7127     0.0000    48.0000 </r>
       <r>    23.8335     0.0000    48.0000 </r>
       <r>    23.9544     0.0000    48.0000 </r>
       <r>    24.0752     0.0000    48.0000 </r>
      </set>
     </set>
    </array>
   </total>
  </dos>
 </calculation>
 <structure name="finalpos" >
  <crystal>
   <varray name="basis" >
    <v>       3.58551709       0.00000000       0.00000000 </v>
    <v>       0.00000000       3.58551709       0.00000000 </v>
    <v>       0.00000000       0.00000000       3.58551709 </v>
   </varray>
   <i name="volume">     46.09516669 </i>
   <varray name="rec_basis" >
    <v>       0.27889980       0.00000000       0.00000000 </v>
    <v>       0.00000000       0.27889980       0.00000000 </v>
    <v>       0.00000000       0.00000000       0.27889980 </v>
   </varray>
  </crystal>
  <varray name="positions" >
   <v>       0.25000000       0.25000000       0.25000000 </v>
   <v>       0.00000000       0.00000000       0.00000000 </v>
   <v>       0.25000000       0.75000000       0.75000000 </v>
   <v>       0.00000000       0.50000000       0.50000000 </v>
   <v>       0.75000000       0.25000000       0.75000000 </v>
   <v>       0.50000000       0.00000000       0.50000000 </v>
   <v>       0.75000000       0.75000000       0.25000000 </v>
   <v>       0.50000000       0.50000000       0.00000000 </v>
  </varray>
 </structure>
</modeling>
