   4   4   0   0
  0.1886276E+02  0.4225601E-09  0.4225600E-09  0.4225600E-09  0.2000000E-15
  1.000000000000000E-004
  CAR 
 unknown system                          
     17.89471261     -1.95748505  301      7.90550154      1.00000000
     -1.957  0.0000E+00  0.0000E+00
     -1.891  0.0000E+00  0.0000E+00
     -1.825  0.0000E+00  0.0000E+00
     -1.759  0.0000E+00  0.0000E+00
     -1.693  0.0000E+00  0.0000E+00
     -1.627  0.0000E+00  0.0000E+00
     -1.560  0.0000E+00  0.0000E+00
     -1.494  0.1447E-17  0.9573E-19
     -1.428  0.1328E-14  0.8796E-16
     -1.362  0.5221E-12  0.3464E-13
     -1.296  0.9019E-10  0.6003E-11
     -1.230  0.7030E-08  0.4712E-09
     -1.163  0.2566E-06  0.1745E-07
     -1.097  0.4590E-05  0.3212E-06
     -1.031  0.4211E-04  0.3108E-05
     -0.965  0.2066E-03  0.1678E-04
     -0.899  0.5692E-03  0.5445E-04
     -0.833  0.9906E-03  0.1200E-03
     -0.766  0.1402E-02  0.2128E-03
     -0.700  0.1822E-02  0.3333E-03
     -0.634  0.1939E-02  0.4616E-03
     -0.568  0.2079E-02  0.5992E-03
     -0.502  0.2572E-02  0.7693E-03
     -0.435  0.2826E-02  0.9563E-03
     -0.369  0.2906E-02  0.1149E-02
     -0.303  0.3006E-02  0.1348E-02
     -0.237  0.2953E-02  0.1543E-02
     -0.171  0.3439E-02  0.1771E-02
     -0.105  0.4122E-02  0.2043E-02
     -0.038  0.4289E-02  0.2327E-02
      0.028  0.3962E-02  0.2589E-02
      0.094  0.3470E-02  0.2819E-02
      0.160  0.4098E-02  0.3090E-02
      0.226  0.5292E-02  0.3440E-02
      0.292  0.5568E-02  0.3809E-02
      0.359  0.5203E-02  0.4153E-02
      0.425  0.4959E-02  0.4481E-02
      0.491  0.5403E-02  0.4839E-02
      0.557  0.5917E-02  0.5230E-02
      0.623  0.5992E-02  0.5627E-02
      0.689  0.6161E-02  0.6034E-02
      0.756  0.7019E-02  0.6499E-02
      0.822  0.8127E-02  0.7037E-02
      0.888  0.8002E-02  0.7566E-02
      0.954  0.7446E-02  0.8059E-02
      1.020  0.7280E-02  0.8541E-02
      1.087  0.8294E-02  0.9089E-02
      1.153  0.1091E-01  0.9811E-02
      1.219  0.1250E-01  0.1064E-01
      1.285  0.1168E-01  0.1141E-01
      1.351  0.1285E-01  0.1226E-01
      1.417  0.1840E-01  0.1348E-01
      1.484  0.2430E-01  0.1509E-01
      1.550  0.2812E-01  0.1695E-01
      1.616  0.2912E-01  0.1887E-01
      1.682  0.3008E-01  0.2087E-01
      1.748  0.3582E-01  0.2324E-01
      1.814  0.4329E-01  0.2610E-01
      1.881  0.4923E-01  0.2936E-01
      1.947  0.5571E-01  0.3304E-01
      2.013  0.6459E-01  0.3732E-01
      2.079  0.7378E-01  0.4220E-01
      2.145  0.8053E-01  0.4753E-01
      2.211  0.8464E-01  0.5313E-01
      2.278  0.8441E-01  0.5872E-01
      2.344  0.8306E-01  0.6421E-01
      2.410  0.8040E-01  0.6953E-01
      2.476  0.7597E-01  0.7456E-01
      2.542  0.7542E-01  0.7955E-01
      2.609  0.7384E-01  0.8444E-01
      2.675  0.7014E-01  0.8908E-01
      2.741  0.6627E-01  0.9347E-01
      2.807  0.5949E-01  0.9740E-01
      2.873  0.5718E-01  0.1012E+00
      2.939  0.6117E-01  0.1052E+00
      3.006  0.6742E-01  0.1097E+00
      3.072  0.7574E-01  0.1147E+00
      3.138  0.8465E-01  0.1203E+00
      3.204  0.9136E-01  0.1264E+00
      3.270  0.9439E-01  0.1326E+00
      3.336  0.9289E-01  0.1387E+00
      3.403  0.9211E-01  0.1448E+00
      3.469  0.9563E-01  0.1512E+00
      3.535  0.9784E-01  0.1576E+00
      3.601  0.9746E-01  0.1641E+00
      3.667  0.9936E-01  0.1707E+00
      3.733  0.1066E+00  0.1777E+00
      3.800  0.1199E+00  0.1857E+00
      3.866  0.1368E+00  0.1947E+00
      3.932  0.1494E+00  0.2046E+00
      3.998  0.1496E+00  0.2145E+00
      4.064  0.1319E+00  0.2232E+00
      4.131  0.1081E+00  0.2304E+00
      4.197  0.9388E-01  0.2366E+00
      4.263  0.8597E-01  0.2423E+00
      4.329  0.8156E-01  0.2477E+00
      4.395  0.7830E-01  0.2529E+00
      4.461  0.7577E-01  0.2579E+00
      4.528  0.7713E-01  0.2630E+00
      4.594  0.8313E-01  0.2685E+00
      4.660  0.9189E-01  0.2746E+00
      4.726  0.9791E-01  0.2810E+00
      4.792  0.9959E-01  0.2876E+00
      4.858  0.1014E+00  0.2943E+00
      4.925  0.1022E+00  0.3011E+00
      4.991  0.9745E-01  0.3076E+00
      5.057  0.9022E-01  0.3135E+00
      5.123  0.8833E-01  0.3194E+00
      5.189  0.8772E-01  0.3252E+00
      5.255  0.8279E-01  0.3307E+00
      5.322  0.7672E-01  0.3357E+00
      5.388  0.7543E-01  0.3407E+00
      5.454  0.7918E-01  0.3460E+00
      5.520  0.8189E-01  0.3514E+00
      5.586  0.8231E-01  0.3568E+00
      5.653  0.8812E-01  0.3627E+00
      5.719  0.9634E-01  0.3690E+00
      5.785  0.1041E+00  0.3759E+00
      5.851  0.1215E+00  0.3840E+00
      5.917  0.1385E+00  0.3931E+00
      5.983  0.1310E+00  0.4018E+00
      6.050  0.1036E+00  0.4087E+00
      6.116  0.7334E-01  0.4135E+00
      6.182  0.5051E-01  0.4169E+00
      6.248  0.3649E-01  0.4193E+00
      6.314  0.2748E-01  0.4211E+00
      6.380  0.1919E-01  0.4224E+00
      6.447  0.1105E-01  0.4231E+00
      6.513  0.7452E-02  0.4236E+00
      6.579  0.8999E-02  0.4242E+00
      6.645  0.1319E-01  0.4250E+00
      6.711  0.1542E-01  0.4261E+00
      6.777  0.1324E-01  0.4269E+00
      6.844  0.1026E-01  0.4276E+00
      6.910  0.8993E-02  0.4282E+00
      6.976  0.1011E-01  0.4289E+00
      7.042  0.1366E-01  0.4298E+00
      7.108  0.1572E-01  0.4308E+00
      7.175  0.1381E-01  0.4317E+00
      7.241  0.1116E-01  0.4325E+00
      7.307  0.9046E-02  0.4331E+00
      7.373  0.8180E-02  0.4336E+00
      7.439  0.1007E-01  0.4343E+00
      7.505  0.1491E-01  0.4353E+00
      7.572  0.1748E-01  0.4364E+00
      7.638  0.1470E-01  0.4374E+00
      7.704  0.1143E-01  0.4382E+00
      7.770  0.9667E-02  0.4388E+00
      7.836  0.8606E-02  0.4394E+00
      7.902  0.9067E-02  0.4400E+00
      7.969  0.1130E-01  0.4407E+00
      8.035  0.1355E-01  0.4416E+00
      8.101  0.1478E-01  0.4426E+00
      8.167  0.1513E-01  0.4436E+00
      8.233  0.1453E-01  0.4446E+00
      8.299  0.1196E-01  0.4453E+00
      8.366  0.9024E-02  0.4459E+00
      8.432  0.8915E-02  0.4465E+00
      8.498  0.1033E-01  0.4472E+00
      8.564  0.1145E-01  0.4480E+00
      8.630  0.1263E-01  0.4488E+00
      8.697  0.1330E-01  0.4497E+00
      8.763  0.1292E-01  0.4505E+00
      8.829  0.1224E-01  0.4514E+00
      8.895  0.1150E-01  0.4521E+00
      8.961  0.1074E-01  0.4528E+00
      9.027  0.1108E-01  0.4536E+00
      9.094  0.1291E-01  0.4544E+00
      9.160  0.1316E-01  0.4553E+00
      9.226  0.1143E-01  0.4560E+00
      9.292  0.1088E-01  0.4568E+00
      9.358  0.1081E-01  0.4575E+00
      9.424  0.1085E-01  0.4582E+00
      9.491  0.1153E-01  0.4590E+00
      9.557  0.1192E-01  0.4597E+00
      9.623  0.1155E-01  0.4605E+00
      9.689  0.1141E-01  0.4613E+00
      9.755  0.1248E-01  0.4621E+00
      9.821  0.1241E-01  0.4629E+00
      9.888  0.1042E-01  0.4636E+00
      9.954  0.9274E-02  0.4642E+00
     10.020  0.1009E-01  0.4649E+00
     10.086  0.1182E-01  0.4657E+00
     10.152  0.1252E-01  0.4665E+00
     10.219  0.1184E-01  0.4673E+00
     10.285  0.1076E-01  0.4680E+00
     10.351  0.1031E-01  0.4687E+00
     10.417  0.1183E-01  0.4695E+00
     10.483  0.1705E-01  0.4706E+00
     10.549  0.2168E-01  0.4720E+00
     10.616  0.2088E-01  0.4734E+00
     10.682  0.1694E-01  0.4745E+00
     10.748  0.1369E-01  0.4754E+00
     10.814  0.1346E-01  0.4763E+00
     10.880  0.1573E-01  0.4774E+00
     10.946  0.1627E-01  0.4784E+00
     11.013  0.1386E-01  0.4794E+00
     11.079  0.1343E-01  0.4802E+00
     11.145  0.1477E-01  0.4812E+00
     11.211  0.1349E-01  0.4821E+00
     11.277  0.1031E-01  0.4828E+00
     11.343  0.8201E-02  0.4833E+00
     11.410  0.9370E-02  0.4840E+00
     11.476  0.1223E-01  0.4848E+00
     11.542  0.1337E-01  0.4856E+00
     11.608  0.1286E-01  0.4865E+00
     11.674  0.1125E-01  0.4872E+00
     11.741  0.9293E-02  0.4879E+00
     11.807  0.8423E-02  0.4884E+00
     11.873  0.8081E-02  0.4890E+00
     11.939  0.8870E-02  0.4895E+00
     12.005  0.1102E-01  0.4903E+00
     12.071  0.1264E-01  0.4911E+00
     12.138  0.1310E-01  0.4920E+00
     12.204  0.1318E-01  0.4928E+00
     12.270  0.1358E-01  0.4937E+00
     12.336  0.1356E-01  0.4946E+00
     12.402  0.1189E-01  0.4954E+00
     12.468  0.1068E-01  0.4961E+00
     12.535  0.1355E-01  0.4970E+00
     12.601  0.1714E-01  0.4982E+00
     12.667  0.1671E-01  0.4993E+00
     12.733  0.1436E-01  0.5002E+00
     12.799  0.1283E-01  0.5011E+00
     12.865  0.1273E-01  0.5019E+00
     12.932  0.1367E-01  0.5028E+00
     12.998  0.1606E-01  0.5039E+00
     13.064  0.1854E-01  0.5051E+00
     13.130  0.1740E-01  0.5063E+00
     13.196  0.1597E-01  0.5073E+00
     13.263  0.1726E-01  0.5085E+00
     13.329  0.1667E-01  0.5096E+00
     13.395  0.1277E-01  0.5104E+00
     13.461  0.9271E-02  0.5110E+00
     13.527  0.8097E-02  0.5116E+00
     13.593  0.8977E-02  0.5121E+00
     13.660  0.1088E-01  0.5129E+00
     13.726  0.1343E-01  0.5138E+00
     13.792  0.1467E-01  0.5147E+00
     13.858  0.1250E-01  0.5156E+00
     13.924  0.9996E-02  0.5162E+00
     13.990  0.9067E-02  0.5168E+00
     14.057  0.8277E-02  0.5174E+00
     14.123  0.9229E-02  0.5180E+00
     14.189  0.1307E-01  0.5188E+00
     14.255  0.1495E-01  0.5198E+00
     14.321  0.1326E-01  0.5207E+00
     14.387  0.1181E-01  0.5215E+00
     14.454  0.1123E-01  0.5222E+00
     14.520  0.1037E-01  0.5229E+00
     14.586  0.1080E-01  0.5236E+00
     14.652  0.1300E-01  0.5245E+00
     14.718  0.1349E-01  0.5254E+00
     14.785  0.1039E-01  0.5261E+00
     14.851  0.8129E-02  0.5266E+00
     14.917  0.9411E-02  0.5272E+00
     14.983  0.1062E-01  0.5279E+00
     15.049  0.9322E-02  0.5286E+00
     15.115  0.8431E-02  0.5291E+00
     15.182  0.1039E-01  0.5298E+00
     15.248  0.1509E-01  0.5308E+00
     15.314  0.1862E-01  0.5320E+00
     15.380  0.1569E-01  0.5331E+00
     15.446  0.1006E-01  0.5337E+00
     15.512  0.8291E-02  0.5343E+00
     15.579  0.8652E-02  0.5349E+00
     15.645  0.7619E-02  0.5354E+00
     15.711  0.6361E-02  0.5358E+00
     15.777  0.6838E-02  0.5362E+00
     15.843  0.9387E-02  0.5369E+00
     15.909  0.1014E-01  0.5375E+00
     15.976  0.6743E-02  0.5380E+00
     16.042  0.3186E-02  0.5382E+00
     16.108  0.1711E-02  0.5383E+00
     16.174  0.1951E-02  0.5384E+00
     16.240  0.2576E-02  0.5386E+00
     16.307  0.2962E-02  0.5388E+00
     16.373  0.3409E-02  0.5390E+00
     16.439  0.3428E-02  0.5392E+00
     16.505  0.2890E-02  0.5394E+00
     16.571  0.2275E-02  0.5396E+00
     16.637  0.1624E-02  0.5397E+00
     16.704  0.1360E-02  0.5398E+00
     16.770  0.1556E-02  0.5399E+00
     16.836  0.1152E-02  0.5400E+00
     16.902  0.4403E-03  0.5400E+00
     16.968  0.1127E-03  0.5400E+00
     17.034  0.2621E-04  0.5400E+00
     17.101  0.4100E-05  0.5400E+00
     17.167  0.3123E-06  0.5400E+00
     17.233  0.1052E-07  0.5400E+00
     17.299  0.1532E-09  0.5400E+00
     17.365  0.9539E-12  0.5400E+00
     17.431  0.2527E-14  0.5400E+00
     17.498  0.2824E-17  0.5400E+00
     17.564  0.0000E+00  0.5400E+00
     17.630  0.0000E+00  0.5400E+00
     17.696  0.0000E+00  0.5400E+00
     17.762  0.0000E+00  0.5400E+00
     17.829  0.0000E+00  0.5400E+00
     17.895  0.0000E+00  0.5400E+00
