       N       E                     dE             d eps       ncg     rms          rms(c)
DAV:   1     0.270087314847E+03    0.27009E+03   -0.22449E+04 91971   0.151E+03
DAV:   2    -0.879922453446E+01   -0.27889E+03   -0.27077E+03105696   0.322E+02
DAV:   3    -0.138096252852E+02   -0.50104E+01   -0.49726E+01101826   0.450E+01
DAV:   4    -0.138401619971E+02   -0.30537E-01   -0.30522E-01104679   0.365E+00
DAV:   5    -0.138404552582E+02   -0.29326E-03   -0.29325E-03106506   0.374E-01    0.137E+01
RMM:   6    -0.128705033760E+02    0.96995E+00   -0.26677E+00 91160   0.106E+01    0.918E+00
RMM:   7    -0.128222091453E+02    0.48294E-01   -0.26212E-01 91244   0.315E+00    0.469E+00
RMM:   8    -0.128157469196E+02    0.64622E-02   -0.10786E-02 91201   0.670E-01    0.511E-01
RMM:   9    -0.128155931730E+02    0.15375E-03   -0.39427E-04 91200   0.116E-01    0.416E-02
RMM:  10    -0.128156126189E+02   -0.19446E-04   -0.25395E-05 91191   0.375E-02    0.224E-02
RMM:  11    -0.128156138515E+02   -0.12327E-05   -0.11779E-06 50869   0.620E-03    0.530E-04
RMM:  12    -0.128156137323E+02    0.11928E-06   -0.14825E-07 45035   0.244E-03
   1 F= -.12815614E+02 E0= -.12813083E+02  d E =-.128156E+02
