 vasp.5.4.4.18Apr17-6-g9f103f2a35 (build Jan 14 2019 14:48:31) complex          
  
 executed on             LinuxIFC date 2019.11.19  22:32:35
 running on   24 total cores
 distrk:  each k-point on   24 cores,    1 groups
 distr:  one band on NCORES_PER_BAND=   8 cores,    3 groups


--------------------------------------------------------------------------------------------------------


 INCAR:
 POTCAR:    PAW_PBE Au 04Oct2007                  
 POTCAR:    PAW_PBE Au 04Oct2007                  
   VRHFIN =Au: s1d10                                                            
   LEXCH  = PE                                                                  
   EATOM  =   926.0867 eV,   68.0654 Ry                                         
                                                                                
   TITEL  = PAW_PBE Au 04Oct2007                                                
   LULTRA =        F    use ultrasoft PP ?                                      
   IUNSCR =        1    unscreen: 0-lin 1-nonlin 2-no                           
   RPACOR =    2.330    partial core radius                                     
   POMASS =  196.966; ZVAL   =   11.000    mass and valenz                      
   RCORE  =    2.500    outmost cutoff radius                                   
   RWIGS  =    2.840; RWIGS  =    1.503    wigner-seitz radius (au A)           
   ENMAX  =  229.943; ENMIN  =  172.457 eV                                      
   ICORE  =        3    local potential                                         
   LCOR   =        T    correct aug charges                                     
   LPAW   =        T    paw PP                                                  
   EAUG   =  356.670                                                            
   DEXC   =    0.000                                                            
   RMAX   =    2.562    core radius for proj-oper                               
   RAUG   =    1.300    factor for augmentation sphere                          
   RDEP   =    2.598    radius for radial grids                                 
   RDEPT  =    2.193    core radius for aug-charge                              
                                                                                
   Atomic configuration                                                         
   16 entries                                                                   
     n  l   j            E        occ.                                          
     1  0  0.50    -80748.5001   2.0000                                         
     2  0  0.50    -14244.7466   2.0000                                         
     2  1  1.50    -12310.9591   6.0000                                         
     3  0  0.50     -3362.1768   2.0000                                         
     3  1  1.50     -2801.5463   6.0000                                         
     3  2  2.50     -2203.8206  10.0000                                         
     4  0  0.50      -729.8168   2.0000                                         
     4  1  1.50      -546.0527   6.0000                                         
     4  2  2.50      -325.7302  10.0000                                         
     4  3  3.50       -81.1472  14.0000                                         
     5  0  0.50      -108.3201   2.0000                                         
     5  1  1.50       -59.7479   6.0000                                         
     5  2  2.50        -6.8783  10.0000                                         
     6  0  0.50        -5.7602   1.0000                                         
     6  1  1.50        -6.8029   0.0000                                         
     5  3  2.50        -1.3606   0.0000                                         
   Description                                                                  
     l       E           TYP  RCUT    TYP  RCUT                                 
     2     -6.8782861     23  2.500                                             
     2     -8.2388687     23  2.500                                             
     0     -5.7601759     23  2.500                                             
     0     -0.8493231     23  2.500                                             
     1     -2.7211652     23  2.500                                             
     1     27.2116520     23  2.500                                             
     3     -1.3605826     23  2.500                                             
  local pseudopotential read in
  partial core-charges read in
  partial kinetic energy density read in
  atomic valenz-charges read in
  non local Contribution for L=           2  read in
    real space projection operators read in
  non local Contribution for L=           2  read in
    real space projection operators read in
  non local Contribution for L=           0  read in
    real space projection operators read in
  non local Contribution for L=           0  read in
    real space projection operators read in
  non local Contribution for L=           1  read in
    real space projection operators read in
  non local Contribution for L=           1  read in
    real space projection operators read in
    PAW grid and wavefunctions read in
 
   number of l-projection  operators is LMAX  =           6
   number of lm-projection operators is LMMAX =          18
 
  PAW_PBE Au 04Oct2007                  :
 energy of atom  1       EATOM= -926.0867
 kinetic energy error for atom=    0.0042 (will be added to EATOM!!)
 
 
 POSCAR: Au4                                     
  positions in direct lattice
  velocities in cartesian coordinates
 exchange correlation table for  LEXCH =        8
   RHO(1)=    0.500       N(1)  =     2000
   RHO(2)=  100.500       N(2)  =     4000

 VTST: version 3.1, (03/28/14)

 CHAIN: initializing optimizer
 
 OPT: Using VASP Conjugate-Gradient optimizer
 CHAIN: Read ICHAIN            0
 
 POSCAR: Au4                                     
  positions in direct lattice
  velocities in cartesian coordinates
 


--------------------------------------------------------------------------------------------------------


 ion  position               nearest neighbor table
   1  1.000  0.000  0.000-   2 2.99   2 2.99   3 2.99   2 2.99   4 2.99   4 2.99   2 2.99   3 2.99
                             4 2.99   4 2.99   3 2.99   3 2.99
   2  0.000  0.500  0.500-   1 2.99   1 2.99   4 2.99   1 2.99   3 2.99   3 2.99   1 2.99   4 2.99
                             3 2.99   3 2.99   4 2.99   4 2.99
   3  0.500  1.000  0.500-   4 2.99   4 2.99   1 2.99   4 2.99   2 2.99   2 2.99   4 2.99   1 2.99
                             2 2.99   2 2.99   1 2.99   1 2.99
   4  0.500  0.500  1.000-   3 2.99   3 2.99   2 2.99   3 2.99   1 2.99   1 2.99   3 2.99   2 2.99
                             1 2.99   1 2.99   2 2.99   2 2.99
 

IMPORTANT INFORMATION: All symmetrisations will be switched off!
NOSYMM: (Re-)initialisation of all symmetry stuff for point group C_1.

 
 
 KPOINTS: automatic-generation                    

Automatic generation of k-mesh.
Space group operators:
 irot       det(A)        alpha          n_x          n_y          n_z        tau_x        tau_y        tau_z
    1     1.000000     0.000000     1.000000     0.000000     0.000000     0.000000     0.000000     0.000000
 
 Subroutine IBZKPT returns following result:
 ===========================================
 
 Found   1688 irreducible k-points:
 
 Following reciprocal coordinates:
            Coordinates               Weight
  0.000000  0.000000  0.000000      1.000000
  0.066667 -0.000000 -0.000000      2.000000
  0.133333  0.000000 -0.000000      2.000000
  0.200000 -0.000000 -0.000000      2.000000
  0.266667 -0.000000  0.000000      2.000000
  0.333333 -0.000000  0.000000      2.000000
  0.400000 -0.000000 -0.000000      2.000000
  0.466667  0.000000 -0.000000      2.000000
 -0.000000  0.066667 -0.000000      2.000000
  0.066667  0.066667  0.000000      2.000000
  0.133333  0.066667 -0.000000      2.000000
  0.200000  0.066667 -0.000000      2.000000
  0.266667  0.066667  0.000000      2.000000
  0.333333  0.066667  0.000000      2.000000
  0.400000  0.066667  0.000000      2.000000
  0.466667  0.066667  0.000000      2.000000
 -0.466667  0.066667  0.000000      2.000000
 -0.400000  0.066667  0.000000      2.000000
 -0.333333  0.066667  0.000000      2.000000
 -0.266667  0.066667  0.000000      2.000000
 -0.200000  0.066667  0.000000      2.000000
 -0.133333  0.066667  0.000000      2.000000
 -0.066667  0.066667  0.000000      2.000000
  0.000000  0.133333 -0.000000      2.000000
  0.066667  0.133333  0.000000      2.000000
  0.133333  0.133333  0.000000      2.000000
  0.200000  0.133333 -0.000000      2.000000
  0.266667  0.133333 -0.000000      2.000000
  0.333333  0.133333 -0.000000      2.000000
  0.400000  0.133333 -0.000000      2.000000
  0.466667  0.133333 -0.000000      2.000000
 -0.466667  0.133333 -0.000000      2.000000
 -0.400000  0.133333  0.000000      2.000000
 -0.333333  0.133333 -0.000000      2.000000
 -0.266667  0.133333 -0.000000      2.000000
 -0.200000  0.133333  0.000000      2.000000
 -0.133333  0.133333  0.000000      2.000000
 -0.066667  0.133333 -0.000000      2.000000
  0.000000  0.200000  0.000000      2.000000
  0.066667  0.200000  0.000000      2.000000
  0.133333  0.200000  0.000000      2.000000
  0.200000  0.200000  0.000000      2.000000
  0.266667  0.200000  0.000000      2.000000
  0.333333  0.200000  0.000000      2.000000
  0.400000  0.200000  0.000000      2.000000
  0.466667  0.200000  0.000000      2.000000
 -0.466667  0.200000  0.000000      2.000000
 -0.400000  0.200000  0.000000      2.000000
 -0.333333  0.200000  0.000000      2.000000
 -0.266667  0.200000  0.000000      2.000000
 -0.200000  0.200000 -0.000000      2.000000
 -0.133333  0.200000  0.000000      2.000000
 -0.066667  0.200000  0.000000      2.000000
 -0.000000  0.266667  0.000000      2.000000
  0.066667  0.266667 -0.000000      2.000000
  0.133333  0.266667 -0.000000      2.000000
  0.200000  0.266667 -0.000000      2.000000
  0.266667  0.266667 -0.000000      2.000000
  0.333333  0.266667 -0.000000      2.000000
  0.400000  0.266667  0.000000      2.000000
  0.466667  0.266667  0.000000      2.000000
 -0.466667  0.266667  0.000000      2.000000
 -0.400000  0.266667 -0.000000      2.000000
 -0.333333  0.266667  0.000000      2.000000
 -0.266667  0.266667  0.000000      2.000000
 -0.200000  0.266667  0.000000      2.000000
 -0.133333  0.266667 -0.000000      2.000000
 -0.066667  0.266667  0.000000      2.000000
  0.000000  0.333333 -0.000000      2.000000
  0.066667  0.333333 -0.000000      2.000000
  0.133333  0.333333 -0.000000      2.000000
  0.200000  0.333333  0.000000      2.000000
  0.266667  0.333333 -0.000000      2.000000
  0.333333  0.333333 -0.000000      2.000000
  0.400000  0.333333  0.000000      2.000000
  0.466667  0.333333  0.000000      2.000000
 -0.466667  0.333333  0.000000      2.000000
 -0.400000  0.333333 -0.000000      2.000000
 -0.333333  0.333333  0.000000      2.000000
 -0.266667  0.333333 -0.000000      2.000000
 -0.200000  0.333333 -0.000000      2.000000
 -0.133333  0.333333  0.000000      2.000000
 -0.066667  0.333333  0.000000      2.000000
  0.000000  0.400000  0.000000      2.000000
  0.066667  0.400000 -0.000000      2.000000
  0.133333  0.400000  0.000000      2.000000
  0.200000  0.400000  0.000000      2.000000
  0.266667  0.400000  0.000000      2.000000
  0.333333  0.400000  0.000000      2.000000
  0.400000  0.400000  0.000000      2.000000
  0.466667  0.400000  0.000000      2.000000
 -0.466667  0.400000  0.000000      2.000000
 -0.400000  0.400000 -0.000000      2.000000
 -0.333333  0.400000  0.000000      2.000000
 -0.266667  0.400000  0.000000      2.000000
 -0.200000  0.400000  0.000000      2.000000
 -0.133333  0.400000  0.000000      2.000000
 -0.066667  0.400000  0.000000      2.000000
 -0.000000  0.466667  0.000000      2.000000
  0.066667  0.466667 -0.000000      2.000000
  0.133333  0.466667  0.000000      2.000000
  0.200000  0.466667  0.000000      2.000000
  0.266667  0.466667  0.000000      2.000000
  0.333333  0.466667  0.000000      2.000000
  0.400000  0.466667  0.000000      2.000000
  0.466667  0.466667  0.000000      2.000000
 -0.466667  0.466667  0.000000      2.000000
 -0.400000  0.466667  0.000000      2.000000
 -0.333333  0.466667  0.000000      2.000000
 -0.266667  0.466667  0.000000      2.000000
 -0.200000  0.466667  0.000000      2.000000
 -0.133333  0.466667 -0.000000      2.000000
 -0.066667  0.466667  0.000000      2.000000
  0.000000  0.000000  0.066667      2.000000
  0.066667  0.000000  0.066667      2.000000
  0.133333  0.000000  0.066667      2.000000
  0.200000  0.000000  0.066667      2.000000
  0.266667 -0.000000  0.066667      2.000000
  0.333333 -0.000000  0.066667      2.000000
  0.400000 -0.000000  0.066667      2.000000
  0.466667  0.000000  0.066667      2.000000
 -0.466667  0.000000  0.066667      2.000000
 -0.400000  0.000000  0.066667      2.000000
 -0.333333  0.000000  0.066667      2.000000
 -0.266667 -0.000000  0.066667      2.000000
 -0.200000 -0.000000  0.066667      2.000000
 -0.133333  0.000000  0.066667      2.000000
 -0.066667 -0.000000  0.066667      2.000000
  0.000000  0.066667  0.066667      2.000000
  0.066667  0.066667  0.066667      2.000000
  0.133333  0.066667  0.066667      2.000000
  0.200000  0.066667  0.066667      2.000000
  0.266667  0.066667  0.066667      2.000000
  0.333333  0.066667  0.066667      2.000000
  0.400000  0.066667  0.066667      2.000000
  0.466667  0.066667  0.066667      2.000000
 -0.466667  0.066667  0.066667      2.000000
 -0.400000  0.066667  0.066667      2.000000
 -0.333333  0.066667  0.066667      2.000000
 -0.266667  0.066667  0.066667      2.000000
 -0.200000  0.066667  0.066667      2.000000
 -0.133333  0.066667  0.066667      2.000000
 -0.066667  0.066667  0.066667      2.000000
  0.000000  0.133333  0.066667      2.000000
  0.066667  0.133333  0.066667      2.000000
  0.133333  0.133333  0.066667      2.000000
  0.200000  0.133333  0.066667      2.000000
  0.266667  0.133333  0.066667      2.000000
  0.333333  0.133333  0.066667      2.000000
  0.400000  0.133333  0.066667      2.000000
  0.466667  0.133333  0.066667      2.000000
 -0.466667  0.133333  0.066667      2.000000
 -0.400000  0.133333  0.066667      2.000000
 -0.333333  0.133333  0.066667      2.000000
 -0.266667  0.133333  0.066667      2.000000
 -0.200000  0.133333  0.066667      2.000000
 -0.133333  0.133333  0.066667      2.000000
 -0.066667  0.133333  0.066667      2.000000
  0.000000  0.200000  0.066667      2.000000
  0.066667  0.200000  0.066667      2.000000
  0.133333  0.200000  0.066667      2.000000
  0.200000  0.200000  0.066667      2.000000
  0.266667  0.200000  0.066667      2.000000
  0.333333  0.200000  0.066667      2.000000
  0.400000  0.200000  0.066667      2.000000
  0.466667  0.200000  0.066667      2.000000
 -0.466667  0.200000  0.066667      2.000000
 -0.400000  0.200000  0.066667      2.000000
 -0.333333  0.200000  0.066667      2.000000
 -0.266667  0.200000  0.066667      2.000000
 -0.200000  0.200000  0.066667      2.000000
 -0.133333  0.200000  0.066667      2.000000
 -0.066667  0.200000  0.066667      2.000000
 -0.000000  0.266667  0.066667      2.000000
  0.066667  0.266667  0.066667      2.000000
  0.133333  0.266667  0.066667      2.000000
  0.200000  0.266667  0.066667      2.000000
  0.266667  0.266667  0.066667      2.000000
  0.333333  0.266667  0.066667      2.000000
  0.400000  0.266667  0.066667      2.000000
  0.466667  0.266667  0.066667      2.000000
 -0.466667  0.266667  0.066667      2.000000
 -0.400000  0.266667  0.066667      2.000000
 -0.333333  0.266667  0.066667      2.000000
 -0.266667  0.266667  0.066667      2.000000
 -0.200000  0.266667  0.066667      2.000000
 -0.133333  0.266667  0.066667      2.000000
 -0.066667  0.266667  0.066667      2.000000
  0.000000  0.333333  0.066667      2.000000
  0.066667  0.333333  0.066667      2.000000
  0.133333  0.333333  0.066667      2.000000
  0.200000  0.333333  0.066667      2.000000
  0.266667  0.333333  0.066667      2.000000
  0.333333  0.333333  0.066667      2.000000
  0.400000  0.333333  0.066667      2.000000
  0.466667  0.333333  0.066667      2.000000
 -0.466667  0.333333  0.066667      2.000000
 -0.400000  0.333333  0.066667      2.000000
 -0.333333  0.333333  0.066667      2.000000
 -0.266667  0.333333  0.066667      2.000000
 -0.200000  0.333333  0.066667      2.000000
 -0.133333  0.333333  0.066667      2.000000
 -0.066667  0.333333  0.066667      2.000000
 -0.000000  0.400000  0.066667      2.000000
  0.066667  0.400000  0.066667      2.000000
  0.133333  0.400000  0.066667      2.000000
  0.200000  0.400000  0.066667      2.000000
  0.266667  0.400000  0.066667      2.000000
  0.333333  0.400000  0.066667      2.000000
  0.400000  0.400000  0.066667      2.000000
  0.466667  0.400000  0.066667      2.000000
 -0.466667  0.400000  0.066667      2.000000
 -0.400000  0.400000  0.066667      2.000000
 -0.333333  0.400000  0.066667      2.000000
 -0.266667  0.400000  0.066667      2.000000
 -0.200000  0.400000  0.066667      2.000000
 -0.133333  0.400000  0.066667      2.000000
 -0.066667  0.400000  0.066667      2.000000
 -0.000000  0.466667  0.066667      2.000000
  0.066667  0.466667  0.066667      2.000000
  0.133333  0.466667  0.066667      2.000000
  0.200000  0.466667  0.066667      2.000000
  0.266667  0.466667  0.066667      2.000000
  0.333333  0.466667  0.066667      2.000000
  0.400000  0.466667  0.066667      2.000000
  0.466667  0.466667  0.066667      2.000000
 -0.466667  0.466667  0.066667      2.000000
 -0.400000  0.466667  0.066667      2.000000
 -0.333333  0.466667  0.066667      2.000000
 -0.266667  0.466667  0.066667      2.000000
 -0.200000  0.466667  0.066667      2.000000
 -0.133333  0.466667  0.066667      2.000000
 -0.066667  0.466667  0.066667      2.000000
  0.000000 -0.466667  0.066667      2.000000
  0.066667 -0.466667  0.066667      2.000000
  0.133333 -0.466667  0.066667      2.000000
  0.200000 -0.466667  0.066667      2.000000
  0.266667 -0.466667  0.066667      2.000000
  0.333333 -0.466667  0.066667      2.000000
  0.400000 -0.466667  0.066667      2.000000
  0.466667 -0.466667  0.066667      2.000000
 -0.466667 -0.466667  0.066667      2.000000
 -0.400000 -0.466667  0.066667      2.000000
 -0.333333 -0.466667  0.066667      2.000000
 -0.266667 -0.466667  0.066667      2.000000
 -0.200000 -0.466667  0.066667      2.000000
 -0.133333 -0.466667  0.066667      2.000000
 -0.066667 -0.466667  0.066667      2.000000
 -0.000000 -0.400000  0.066667      2.000000
  0.066667 -0.400000  0.066667      2.000000
  0.133333 -0.400000  0.066667      2.000000
  0.200000 -0.400000  0.066667      2.000000
  0.266667 -0.400000  0.066667      2.000000
  0.333333 -0.400000  0.066667      2.000000
  0.400000 -0.400000  0.066667      2.000000
  0.466667 -0.400000  0.066667      2.000000
 -0.466667 -0.400000  0.066667      2.000000
 -0.400000 -0.400000  0.066667      2.000000
 -0.333333 -0.400000  0.066667      2.000000
 -0.266667 -0.400000  0.066667      2.000000
 -0.200000 -0.400000  0.066667      2.000000
 -0.133333 -0.400000  0.066667      2.000000
 -0.066667 -0.400000  0.066667      2.000000
 -0.000000 -0.333333  0.066667      2.000000
  0.066667 -0.333333  0.066667      2.000000
  0.133333 -0.333333  0.066667      2.000000
  0.200000 -0.333333  0.066667      2.000000
  0.266667 -0.333333  0.066667      2.000000
  0.333333 -0.333333  0.066667      2.000000
  0.400000 -0.333333  0.066667      2.000000
  0.466667 -0.333333  0.066667      2.000000
 -0.466667 -0.333333  0.066667      2.000000
 -0.400000 -0.333333  0.066667      2.000000
 -0.333333 -0.333333  0.066667      2.000000
 -0.266667 -0.333333  0.066667      2.000000
 -0.200000 -0.333333  0.066667      2.000000
 -0.133333 -0.333333  0.066667      2.000000
 -0.066667 -0.333333  0.066667      2.000000
  0.000000 -0.266667  0.066667      2.000000
  0.066667 -0.266667  0.066667      2.000000
  0.133333 -0.266667  0.066667      2.000000
  0.200000 -0.266667  0.066667      2.000000
  0.266667 -0.266667  0.066667      2.000000
  0.333333 -0.266667  0.066667      2.000000
  0.400000 -0.266667  0.066667      2.000000
  0.466667 -0.266667  0.066667      2.000000
 -0.466667 -0.266667  0.066667      2.000000
 -0.400000 -0.266667  0.066667      2.000000
 -0.333333 -0.266667  0.066667      2.000000
 -0.266667 -0.266667  0.066667      2.000000
 -0.200000 -0.266667  0.066667      2.000000
 -0.133333 -0.266667  0.066667      2.000000
 -0.066667 -0.266667  0.066667      2.000000
 -0.000000 -0.200000  0.066667      2.000000
  0.066667 -0.200000  0.066667      2.000000
  0.133333 -0.200000  0.066667      2.000000
  0.200000 -0.200000  0.066667      2.000000
  0.266667 -0.200000  0.066667      2.000000
  0.333333 -0.200000  0.066667      2.000000
  0.400000 -0.200000  0.066667      2.000000
  0.466667 -0.200000  0.066667      2.000000
 -0.466667 -0.200000  0.066667      2.000000
 -0.400000 -0.200000  0.066667      2.000000
 -0.333333 -0.200000  0.066667      2.000000
 -0.266667 -0.200000  0.066667      2.000000
 -0.200000 -0.200000  0.066667      2.000000
 -0.133333 -0.200000  0.066667      2.000000
 -0.066667 -0.200000  0.066667      2.000000
 -0.000000 -0.133333  0.066667      2.000000
  0.066667 -0.133333  0.066667      2.000000
  0.133333 -0.133333  0.066667      2.000000
  0.200000 -0.133333  0.066667      2.000000
  0.266667 -0.133333  0.066667      2.000000
  0.333333 -0.133333  0.066667      2.000000
  0.400000 -0.133333  0.066667      2.000000
  0.466667 -0.133333  0.066667      2.000000
 -0.466667 -0.133333  0.066667      2.000000
 -0.400000 -0.133333  0.066667      2.000000
 -0.333333 -0.133333  0.066667      2.000000
 -0.266667 -0.133333  0.066667      2.000000
 -0.200000 -0.133333  0.066667      2.000000
 -0.133333 -0.133333  0.066667      2.000000
 -0.066667 -0.133333  0.066667      2.000000
  0.000000 -0.066667  0.066667      2.000000
  0.066667 -0.066667  0.066667      2.000000
  0.133333 -0.066667  0.066667      2.000000
  0.200000 -0.066667  0.066667      2.000000
  0.266667 -0.066667  0.066667      2.000000
  0.333333 -0.066667  0.066667      2.000000
  0.400000 -0.066667  0.066667      2.000000
  0.466667 -0.066667  0.066667      2.000000
 -0.466667 -0.066667  0.066667      2.000000
 -0.400000 -0.066667  0.066667      2.000000
 -0.333333 -0.066667  0.066667      2.000000
 -0.266667 -0.066667  0.066667      2.000000
 -0.200000 -0.066667  0.066667      2.000000
 -0.133333 -0.066667  0.066667      2.000000
 -0.066667 -0.066667  0.066667      2.000000
  0.000000  0.000000  0.133333      2.000000
  0.066667 -0.000000  0.133333      2.000000
  0.133333  0.000000  0.133333      2.000000
  0.200000  0.000000  0.133333      2.000000
  0.266667  0.000000  0.133333      2.000000
  0.333333 -0.000000  0.133333      2.000000
  0.400000  0.000000  0.133333      2.000000
  0.466667  0.000000  0.133333      2.000000
 -0.466667  0.000000  0.133333      2.000000
 -0.400000 -0.000000  0.133333      2.000000
 -0.333333  0.000000  0.133333      2.000000
 -0.266667  0.000000  0.133333      2.000000
 -0.200000 -0.000000  0.133333      2.000000
 -0.133333 -0.000000  0.133333      2.000000
 -0.066667  0.000000  0.133333      2.000000
  0.000000  0.066667  0.133333      2.000000
  0.066667  0.066667  0.133333      2.000000
  0.133333  0.066667  0.133333      2.000000
  0.200000  0.066667  0.133333      2.000000
  0.266667  0.066667  0.133333      2.000000
  0.333333  0.066667  0.133333      2.000000
  0.400000  0.066667  0.133333      2.000000
  0.466667  0.066667  0.133333      2.000000
 -0.466667  0.066667  0.133333      2.000000
 -0.400000  0.066667  0.133333      2.000000
 -0.333333  0.066667  0.133333      2.000000
 -0.266667  0.066667  0.133333      2.000000
 -0.200000  0.066667  0.133333      2.000000
 -0.133333  0.066667  0.133333      2.000000
 -0.066667  0.066667  0.133333      2.000000
  0.000000  0.133333  0.133333      2.000000
  0.066667  0.133333  0.133333      2.000000
  0.133333  0.133333  0.133333      2.000000
  0.200000  0.133333  0.133333      2.000000
  0.266667  0.133333  0.133333      2.000000
  0.333333  0.133333  0.133333      2.000000
  0.400000  0.133333  0.133333      2.000000
  0.466667  0.133333  0.133333      2.000000
 -0.466667  0.133333  0.133333      2.000000
 -0.400000  0.133333  0.133333      2.000000
 -0.333333  0.133333  0.133333      2.000000
 -0.266667  0.133333  0.133333      2.000000
 -0.200000  0.133333  0.133333      2.000000
 -0.133333  0.133333  0.133333      2.000000
 -0.066667  0.133333  0.133333      2.000000
  0.000000  0.200000  0.133333      2.000000
  0.066667  0.200000  0.133333      2.000000
  0.133333  0.200000  0.133333      2.000000
  0.200000  0.200000  0.133333      2.000000
  0.266667  0.200000  0.133333      2.000000
  0.333333  0.200000  0.133333      2.000000
  0.400000  0.200000  0.133333      2.000000
  0.466667  0.200000  0.133333      2.000000
 -0.466667  0.200000  0.133333      2.000000
 -0.400000  0.200000  0.133333      2.000000
 -0.333333  0.200000  0.133333      2.000000
 -0.266667  0.200000  0.133333      2.000000
 -0.200000  0.200000  0.133333      2.000000
 -0.133333  0.200000  0.133333      2.000000
 -0.066667  0.200000  0.133333      2.000000
  0.000000  0.266667  0.133333      2.000000
  0.066667  0.266667  0.133333      2.000000
  0.133333  0.266667  0.133333      2.000000
  0.200000  0.266667  0.133333      2.000000
  0.266667  0.266667  0.133333      2.000000
  0.333333  0.266667  0.133333      2.000000
  0.400000  0.266667  0.133333      2.000000
  0.466667  0.266667  0.133333      2.000000
 -0.466667  0.266667  0.133333      2.000000
 -0.400000  0.266667  0.133333      2.000000
 -0.333333  0.266667  0.133333      2.000000
 -0.266667  0.266667  0.133333      2.000000
 -0.200000  0.266667  0.133333      2.000000
 -0.133333  0.266667  0.133333      2.000000
 -0.066667  0.266667  0.133333      2.000000
 -0.000000  0.333333  0.133333      2.000000
  0.066667  0.333333  0.133333      2.000000
  0.133333  0.333333  0.133333      2.000000
  0.200000  0.333333  0.133333      2.000000
  0.266667  0.333333  0.133333      2.000000
  0.333333  0.333333  0.133333      2.000000
  0.400000  0.333333  0.133333      2.000000
  0.466667  0.333333  0.133333      2.000000
 -0.466667  0.333333  0.133333      2.000000
 -0.400000  0.333333  0.133333      2.000000
 -0.333333  0.333333  0.133333      2.000000
 -0.266667  0.333333  0.133333      2.000000
 -0.200000  0.333333  0.133333      2.000000
 -0.133333  0.333333  0.133333      2.000000
 -0.066667  0.333333  0.133333      2.000000
  0.000000  0.400000  0.133333      2.000000
  0.066667  0.400000  0.133333      2.000000
  0.133333  0.400000  0.133333      2.000000
  0.200000  0.400000  0.133333      2.000000
  0.266667  0.400000  0.133333      2.000000
  0.333333  0.400000  0.133333      2.000000
  0.400000  0.400000  0.133333      2.000000
  0.466667  0.400000  0.133333      2.000000
 -0.466667  0.400000  0.133333      2.000000
 -0.400000  0.400000  0.133333      2.000000
 -0.333333  0.400000  0.133333      2.000000
 -0.266667  0.400000  0.133333      2.000000
 -0.200000  0.400000  0.133333      2.000000
 -0.133333  0.400000  0.133333      2.000000
 -0.066667  0.400000  0.133333      2.000000
 -0.000000  0.466667  0.133333      2.000000
  0.066667  0.466667  0.133333      2.000000
  0.133333  0.466667  0.133333      2.000000
  0.200000  0.466667  0.133333      2.000000
  0.266667  0.466667  0.133333      2.000000
  0.333333  0.466667  0.133333      2.000000
  0.400000  0.466667  0.133333      2.000000
  0.466667  0.466667  0.133333      2.000000
 -0.466667  0.466667  0.133333      2.000000
 -0.400000  0.466667  0.133333      2.000000
 -0.333333  0.466667  0.133333      2.000000
 -0.266667  0.466667  0.133333      2.000000
 -0.200000  0.466667  0.133333      2.000000
 -0.133333  0.466667  0.133333      2.000000
 -0.066667  0.466667  0.133333      2.000000
  0.000000 -0.466667  0.133333      2.000000
  0.066667 -0.466667  0.133333      2.000000
  0.133333 -0.466667  0.133333      2.000000
  0.200000 -0.466667  0.133333      2.000000
  0.266667 -0.466667  0.133333      2.000000
  0.333333 -0.466667  0.133333      2.000000
  0.400000 -0.466667  0.133333      2.000000
  0.466667 -0.466667  0.133333      2.000000
 -0.466667 -0.466667  0.133333      2.000000
 -0.400000 -0.466667  0.133333      2.000000
 -0.333333 -0.466667  0.133333      2.000000
 -0.266667 -0.466667  0.133333      2.000000
 -0.200000 -0.466667  0.133333      2.000000
 -0.133333 -0.466667  0.133333      2.000000
 -0.066667 -0.466667  0.133333      2.000000
 -0.000000 -0.400000  0.133333      2.000000
  0.066667 -0.400000  0.133333      2.000000
  0.133333 -0.400000  0.133333      2.000000
  0.200000 -0.400000  0.133333      2.000000
  0.266667 -0.400000  0.133333      2.000000
  0.333333 -0.400000  0.133333      2.000000
  0.400000 -0.400000  0.133333      2.000000
  0.466667 -0.400000  0.133333      2.000000
 -0.466667 -0.400000  0.133333      2.000000
 -0.400000 -0.400000  0.133333      2.000000
 -0.333333 -0.400000  0.133333      2.000000
 -0.266667 -0.400000  0.133333      2.000000
 -0.200000 -0.400000  0.133333      2.000000
 -0.133333 -0.400000  0.133333      2.000000
 -0.066667 -0.400000  0.133333      2.000000
  0.000000 -0.333333  0.133333      2.000000
  0.066667 -0.333333  0.133333      2.000000
  0.133333 -0.333333  0.133333      2.000000
  0.200000 -0.333333  0.133333      2.000000
  0.266667 -0.333333  0.133333      2.000000
  0.333333 -0.333333  0.133333      2.000000
  0.400000 -0.333333  0.133333      2.000000
  0.466667 -0.333333  0.133333      2.000000
 -0.466667 -0.333333  0.133333      2.000000
 -0.400000 -0.333333  0.133333      2.000000
 -0.333333 -0.333333  0.133333      2.000000
 -0.266667 -0.333333  0.133333      2.000000
 -0.200000 -0.333333  0.133333      2.000000
 -0.133333 -0.333333  0.133333      2.000000
 -0.066667 -0.333333  0.133333      2.000000
  0.000000 -0.266667  0.133333      2.000000
  0.066667 -0.266667  0.133333      2.000000
  0.133333 -0.266667  0.133333      2.000000
  0.200000 -0.266667  0.133333      2.000000
  0.266667 -0.266667  0.133333      2.000000
  0.333333 -0.266667  0.133333      2.000000
  0.400000 -0.266667  0.133333      2.000000
  0.466667 -0.266667  0.133333      2.000000
 -0.466667 -0.266667  0.133333      2.000000
 -0.400000 -0.266667  0.133333      2.000000
 -0.333333 -0.266667  0.133333      2.000000
 -0.266667 -0.266667  0.133333      2.000000
 -0.200000 -0.266667  0.133333      2.000000
 -0.133333 -0.266667  0.133333      2.000000
 -0.066667 -0.266667  0.133333      2.000000
  0.000000 -0.200000  0.133333      2.000000
  0.066667 -0.200000  0.133333      2.000000
  0.133333 -0.200000  0.133333      2.000000
  0.200000 -0.200000  0.133333      2.000000
  0.266667 -0.200000  0.133333      2.000000
  0.333333 -0.200000  0.133333      2.000000
  0.400000 -0.200000  0.133333      2.000000
  0.466667 -0.200000  0.133333      2.000000
 -0.466667 -0.200000  0.133333      2.000000
 -0.400000 -0.200000  0.133333      2.000000
 -0.333333 -0.200000  0.133333      2.000000
 -0.266667 -0.200000  0.133333      2.000000
 -0.200000 -0.200000  0.133333      2.000000
 -0.133333 -0.200000  0.133333      2.000000
 -0.066667 -0.200000  0.133333      2.000000
  0.000000 -0.133333  0.133333      2.000000
  0.066667 -0.133333  0.133333      2.000000
  0.133333 -0.133333  0.133333      2.000000
  0.200000 -0.133333  0.133333      2.000000
  0.266667 -0.133333  0.133333      2.000000
  0.333333 -0.133333  0.133333      2.000000
  0.400000 -0.133333  0.133333      2.000000
  0.466667 -0.133333  0.133333      2.000000
 -0.466667 -0.133333  0.133333      2.000000
 -0.400000 -0.133333  0.133333      2.000000
 -0.333333 -0.133333  0.133333      2.000000
 -0.266667 -0.133333  0.133333      2.000000
 -0.200000 -0.133333  0.133333      2.000000
 -0.133333 -0.133333  0.133333      2.000000
 -0.066667 -0.133333  0.133333      2.000000
  0.000000 -0.066667  0.133333      2.000000
  0.066667 -0.066667  0.133333      2.000000
  0.133333 -0.066667  0.133333      2.000000
  0.200000 -0.066667  0.133333      2.000000
  0.266667 -0.066667  0.133333      2.000000
  0.333333 -0.066667  0.133333      2.000000
  0.400000 -0.066667  0.133333      2.000000
  0.466667 -0.066667  0.133333      2.000000
 -0.466667 -0.066667  0.133333      2.000000
 -0.400000 -0.066667  0.133333      2.000000
 -0.333333 -0.066667  0.133333      2.000000
 -0.266667 -0.066667  0.133333      2.000000
 -0.200000 -0.066667  0.133333      2.000000
 -0.133333 -0.066667  0.133333      2.000000
 -0.066667 -0.066667  0.133333      2.000000
  0.000000  0.000000  0.200000      2.000000
  0.066667 -0.000000  0.200000      2.000000
  0.133333  0.000000  0.200000      2.000000
  0.200000  0.000000  0.200000      2.000000
  0.266667  0.000000  0.200000      2.000000
  0.333333  0.000000  0.200000      2.000000
  0.400000  0.000000  0.200000      2.000000
  0.466667  0.000000  0.200000      2.000000
 -0.466667  0.000000  0.200000      2.000000
 -0.400000 -0.000000  0.200000      2.000000
 -0.333333  0.000000  0.200000      2.000000
 -0.266667  0.000000  0.200000      2.000000
 -0.200000  0.000000  0.200000      2.000000
 -0.133333 -0.000000  0.200000      2.000000
 -0.066667  0.000000  0.200000      2.000000
  0.000000  0.066667  0.200000      2.000000
  0.066667  0.066667  0.200000      2.000000
  0.133333  0.066667  0.200000      2.000000
  0.200000  0.066667  0.200000      2.000000
  0.266667  0.066667  0.200000      2.000000
  0.333333  0.066667  0.200000      2.000000
  0.400000  0.066667  0.200000      2.000000
  0.466667  0.066667  0.200000      2.000000
 -0.466667  0.066667  0.200000      2.000000
 -0.400000  0.066667  0.200000      2.000000
 -0.333333  0.066667  0.200000      2.000000
 -0.266667  0.066667  0.200000      2.000000
 -0.200000  0.066667  0.200000      2.000000
 -0.133333  0.066667  0.200000      2.000000
 -0.066667  0.066667  0.200000      2.000000
 -0.000000  0.133333  0.200000      2.000000
  0.066667  0.133333  0.200000      2.000000
  0.133333  0.133333  0.200000      2.000000
  0.200000  0.133333  0.200000      2.000000
  0.266667  0.133333  0.200000      2.000000
  0.333333  0.133333  0.200000      2.000000
  0.400000  0.133333  0.200000      2.000000
  0.466667  0.133333  0.200000      2.000000
 -0.466667  0.133333  0.200000      2.000000
 -0.400000  0.133333  0.200000      2.000000
 -0.333333  0.133333  0.200000      2.000000
 -0.266667  0.133333  0.200000      2.000000
 -0.200000  0.133333  0.200000      2.000000
 -0.133333  0.133333  0.200000      2.000000
 -0.066667  0.133333  0.200000      2.000000
  0.000000  0.200000  0.200000      2.000000
  0.066667  0.200000  0.200000      2.000000
  0.133333  0.200000  0.200000      2.000000
  0.200000  0.200000  0.200000      2.000000
  0.266667  0.200000  0.200000      2.000000
  0.333333  0.200000  0.200000      2.000000
  0.400000  0.200000  0.200000      2.000000
  0.466667  0.200000  0.200000      2.000000
 -0.466667  0.200000  0.200000      2.000000
 -0.400000  0.200000  0.200000      2.000000
 -0.333333  0.200000  0.200000      2.000000
 -0.266667  0.200000  0.200000      2.000000
 -0.200000  0.200000  0.200000      2.000000
 -0.133333  0.200000  0.200000      2.000000
 -0.066667  0.200000  0.200000      2.000000
  0.000000  0.266667  0.200000      2.000000
  0.066667  0.266667  0.200000      2.000000
  0.133333  0.266667  0.200000      2.000000
  0.200000  0.266667  0.200000      2.000000
  0.266667  0.266667  0.200000      2.000000
  0.333333  0.266667  0.200000      2.000000
  0.400000  0.266667  0.200000      2.000000
  0.466667  0.266667  0.200000      2.000000
 -0.466667  0.266667  0.200000      2.000000
 -0.400000  0.266667  0.200000      2.000000
 -0.333333  0.266667  0.200000      2.000000
 -0.266667  0.266667  0.200000      2.000000
 -0.200000  0.266667  0.200000      2.000000
 -0.133333  0.266667  0.200000      2.000000
 -0.066667  0.266667  0.200000      2.000000
  0.000000  0.333333  0.200000      2.000000
  0.066667  0.333333  0.200000      2.000000
  0.133333  0.333333  0.200000      2.000000
  0.200000  0.333333  0.200000      2.000000
  0.266667  0.333333  0.200000      2.000000
  0.333333  0.333333  0.200000      2.000000
  0.400000  0.333333  0.200000      2.000000
  0.466667  0.333333  0.200000      2.000000
 -0.466667  0.333333  0.200000      2.000000
 -0.400000  0.333333  0.200000      2.000000
 -0.333333  0.333333  0.200000      2.000000
 -0.266667  0.333333  0.200000      2.000000
 -0.200000  0.333333  0.200000      2.000000
 -0.133333  0.333333  0.200000      2.000000
 -0.066667  0.333333  0.200000      2.000000
  0.000000  0.400000  0.200000      2.000000
  0.066667  0.400000  0.200000      2.000000
  0.133333  0.400000  0.200000      2.000000
  0.200000  0.400000  0.200000      2.000000
  0.266667  0.400000  0.200000      2.000000
  0.333333  0.400000  0.200000      2.000000
  0.400000  0.400000  0.200000      2.000000
  0.466667  0.400000  0.200000      2.000000
 -0.466667  0.400000  0.200000      2.000000
 -0.400000  0.400000  0.200000      2.000000
 -0.333333  0.400000  0.200000      2.000000
 -0.266667  0.400000  0.200000      2.000000
 -0.200000  0.400000  0.200000      2.000000
 -0.133333  0.400000  0.200000      2.000000
 -0.066667  0.400000  0.200000      2.000000
 -0.000000  0.466667  0.200000      2.000000
  0.066667  0.466667  0.200000      2.000000
  0.133333  0.466667  0.200000      2.000000
  0.200000  0.466667  0.200000      2.000000
  0.266667  0.466667  0.200000      2.000000
  0.333333  0.466667  0.200000      2.000000
  0.400000  0.466667  0.200000      2.000000
  0.466667  0.466667  0.200000      2.000000
 -0.466667  0.466667  0.200000      2.000000
 -0.400000  0.466667  0.200000      2.000000
 -0.333333  0.466667  0.200000      2.000000
 -0.266667  0.466667  0.200000      2.000000
 -0.200000  0.466667  0.200000      2.000000
 -0.133333  0.466667  0.200000      2.000000
 -0.066667  0.466667  0.200000      2.000000
  0.000000 -0.466667  0.200000      2.000000
  0.066667 -0.466667  0.200000      2.000000
  0.133333 -0.466667  0.200000      2.000000
  0.200000 -0.466667  0.200000      2.000000
  0.266667 -0.466667  0.200000      2.000000
  0.333333 -0.466667  0.200000      2.000000
  0.400000 -0.466667  0.200000      2.000000
  0.466667 -0.466667  0.200000      2.000000
 -0.466667 -0.466667  0.200000      2.000000
 -0.400000 -0.466667  0.200000      2.000000
 -0.333333 -0.466667  0.200000      2.000000
 -0.266667 -0.466667  0.200000      2.000000
 -0.200000 -0.466667  0.200000      2.000000
 -0.133333 -0.466667  0.200000      2.000000
 -0.066667 -0.466667  0.200000      2.000000
 -0.000000 -0.400000  0.200000      2.000000
  0.066667 -0.400000  0.200000      2.000000
  0.133333 -0.400000  0.200000      2.000000
  0.200000 -0.400000  0.200000      2.000000
  0.266667 -0.400000  0.200000      2.000000
  0.333333 -0.400000  0.200000      2.000000
  0.400000 -0.400000  0.200000      2.000000
  0.466667 -0.400000  0.200000      2.000000
 -0.466667 -0.400000  0.200000      2.000000
 -0.400000 -0.400000  0.200000      2.000000
 -0.333333 -0.400000  0.200000      2.000000
 -0.266667 -0.400000  0.200000      2.000000
 -0.200000 -0.400000  0.200000      2.000000
 -0.133333 -0.400000  0.200000      2.000000
 -0.066667 -0.400000  0.200000      2.000000
  0.000000 -0.333333  0.200000      2.000000
  0.066667 -0.333333  0.200000      2.000000
  0.133333 -0.333333  0.200000      2.000000
  0.200000 -0.333333  0.200000      2.000000
  0.266667 -0.333333  0.200000      2.000000
  0.333333 -0.333333  0.200000      2.000000
  0.400000 -0.333333  0.200000      2.000000
  0.466667 -0.333333  0.200000      2.000000
 -0.466667 -0.333333  0.200000      2.000000
 -0.400000 -0.333333  0.200000      2.000000
 -0.333333 -0.333333  0.200000      2.000000
 -0.266667 -0.333333  0.200000      2.000000
 -0.200000 -0.333333  0.200000      2.000000
 -0.133333 -0.333333  0.200000      2.000000
 -0.066667 -0.333333  0.200000      2.000000
 -0.000000 -0.266667  0.200000      2.000000
  0.066667 -0.266667  0.200000      2.000000
  0.133333 -0.266667  0.200000      2.000000
  0.200000 -0.266667  0.200000      2.000000
  0.266667 -0.266667  0.200000      2.000000
  0.333333 -0.266667  0.200000      2.000000
  0.400000 -0.266667  0.200000      2.000000
  0.466667 -0.266667  0.200000      2.000000
 -0.466667 -0.266667  0.200000      2.000000
 -0.400000 -0.266667  0.200000      2.000000
 -0.333333 -0.266667  0.200000      2.000000
 -0.266667 -0.266667  0.200000      2.000000
 -0.200000 -0.266667  0.200000      2.000000
 -0.133333 -0.266667  0.200000      2.000000
 -0.066667 -0.266667  0.200000      2.000000
  0.000000 -0.200000  0.200000      2.000000
  0.066667 -0.200000  0.200000      2.000000
  0.133333 -0.200000  0.200000      2.000000
  0.200000 -0.200000  0.200000      2.000000
  0.266667 -0.200000  0.200000      2.000000
  0.333333 -0.200000  0.200000      2.000000
  0.400000 -0.200000  0.200000      2.000000
  0.466667 -0.200000  0.200000      2.000000
 -0.466667 -0.200000  0.200000      2.000000
 -0.400000 -0.200000  0.200000      2.000000
 -0.333333 -0.200000  0.200000      2.000000
 -0.266667 -0.200000  0.200000      2.000000
 -0.200000 -0.200000  0.200000      2.000000
 -0.133333 -0.200000  0.200000      2.000000
 -0.066667 -0.200000  0.200000      2.000000
  0.000000 -0.133333  0.200000      2.000000
  0.066667 -0.133333  0.200000      2.000000
  0.133333 -0.133333  0.200000      2.000000
  0.200000 -0.133333  0.200000      2.000000
  0.266667 -0.133333  0.200000      2.000000
  0.333333 -0.133333  0.200000      2.000000
  0.400000 -0.133333  0.200000      2.000000
  0.466667 -0.133333  0.200000      2.000000
 -0.466667 -0.133333  0.200000      2.000000
 -0.400000 -0.133333  0.200000      2.000000
 -0.333333 -0.133333  0.200000      2.000000
 -0.266667 -0.133333  0.200000      2.000000
 -0.200000 -0.133333  0.200000      2.000000
 -0.133333 -0.133333  0.200000      2.000000
 -0.066667 -0.133333  0.200000      2.000000
  0.000000 -0.066667  0.200000      2.000000
  0.066667 -0.066667  0.200000      2.000000
  0.133333 -0.066667  0.200000      2.000000
  0.200000 -0.066667  0.200000      2.000000
  0.266667 -0.066667  0.200000      2.000000
  0.333333 -0.066667  0.200000      2.000000
  0.400000 -0.066667  0.200000      2.000000
  0.466667 -0.066667  0.200000      2.000000
 -0.466667 -0.066667  0.200000      2.000000
 -0.400000 -0.066667  0.200000      2.000000
 -0.333333 -0.066667  0.200000      2.000000
 -0.266667 -0.066667  0.200000      2.000000
 -0.200000 -0.066667  0.200000      2.000000
 -0.133333 -0.066667  0.200000      2.000000
 -0.066667 -0.066667  0.200000      2.000000
  0.000000  0.000000  0.266667      2.000000
  0.066667  0.000000  0.266667      2.000000
  0.133333 -0.000000  0.266667      2.000000
  0.200000  0.000000  0.266667      2.000000
  0.266667  0.000000  0.266667      2.000000
  0.333333  0.000000  0.266667      2.000000
  0.400000  0.000000  0.266667      2.000000
  0.466667  0.000000  0.266667      2.000000
 -0.466667  0.000000  0.266667      2.000000
 -0.400000 -0.000000  0.266667      2.000000
 -0.333333  0.000000  0.266667      2.000000
 -0.266667 -0.000000  0.266667      2.000000
 -0.200000  0.000000  0.266667      2.000000
 -0.133333  0.000000  0.266667      2.000000
 -0.066667 -0.000000  0.266667      2.000000
  0.000000  0.066667  0.266667      2.000000
  0.066667  0.066667  0.266667      2.000000
  0.133333  0.066667  0.266667      2.000000
  0.200000  0.066667  0.266667      2.000000
  0.266667  0.066667  0.266667      2.000000
  0.333333  0.066667  0.266667      2.000000
  0.400000  0.066667  0.266667      2.000000
  0.466667  0.066667  0.266667      2.000000
 -0.466667  0.066667  0.266667      2.000000
 -0.400000  0.066667  0.266667      2.000000
 -0.333333  0.066667  0.266667      2.000000
 -0.266667  0.066667  0.266667      2.000000
 -0.200000  0.066667  0.266667      2.000000
 -0.133333  0.066667  0.266667      2.000000
 -0.066667  0.066667  0.266667      2.000000
  0.000000  0.133333  0.266667      2.000000
  0.066667  0.133333  0.266667      2.000000
  0.133333  0.133333  0.266667      2.000000
  0.200000  0.133333  0.266667      2.000000
  0.266667  0.133333  0.266667      2.000000
  0.333333  0.133333  0.266667      2.000000
  0.400000  0.133333  0.266667      2.000000
  0.466667  0.133333  0.266667      2.000000
 -0.466667  0.133333  0.266667      2.000000
 -0.400000  0.133333  0.266667      2.000000
 -0.333333  0.133333  0.266667      2.000000
 -0.266667  0.133333  0.266667      2.000000
 -0.200000  0.133333  0.266667      2.000000
 -0.133333  0.133333  0.266667      2.000000
 -0.066667  0.133333  0.266667      2.000000
  0.000000  0.200000  0.266667      2.000000
  0.066667  0.200000  0.266667      2.000000
  0.133333  0.200000  0.266667      2.000000
  0.200000  0.200000  0.266667      2.000000
  0.266667  0.200000  0.266667      2.000000
  0.333333  0.200000  0.266667      2.000000
  0.400000  0.200000  0.266667      2.000000
  0.466667  0.200000  0.266667      2.000000
 -0.466667  0.200000  0.266667      2.000000
 -0.400000  0.200000  0.266667      2.000000
 -0.333333  0.200000  0.266667      2.000000
 -0.266667  0.200000  0.266667      2.000000
 -0.200000  0.200000  0.266667      2.000000
 -0.133333  0.200000  0.266667      2.000000
 -0.066667  0.200000  0.266667      2.000000
  0.000000  0.266667  0.266667      2.000000
  0.066667  0.266667  0.266667      2.000000
  0.133333  0.266667  0.266667      2.000000
  0.200000  0.266667  0.266667      2.000000
  0.266667  0.266667  0.266667      2.000000
  0.333333  0.266667  0.266667      2.000000
  0.400000  0.266667  0.266667      2.000000
  0.466667  0.266667  0.266667      2.000000
 -0.466667  0.266667  0.266667      2.000000
 -0.400000  0.266667  0.266667      2.000000
 -0.333333  0.266667  0.266667      2.000000
 -0.266667  0.266667  0.266667      2.000000
 -0.200000  0.266667  0.266667      2.000000
 -0.133333  0.266667  0.266667      2.000000
 -0.066667  0.266667  0.266667      2.000000
  0.000000  0.333333  0.266667      2.000000
  0.066667  0.333333  0.266667      2.000000
  0.133333  0.333333  0.266667      2.000000
  0.200000  0.333333  0.266667      2.000000
  0.266667  0.333333  0.266667      2.000000
  0.333333  0.333333  0.266667      2.000000
  0.400000  0.333333  0.266667      2.000000
  0.466667  0.333333  0.266667      2.000000
 -0.466667  0.333333  0.266667      2.000000
 -0.400000  0.333333  0.266667      2.000000
 -0.333333  0.333333  0.266667      2.000000
 -0.266667  0.333333  0.266667      2.000000
 -0.200000  0.333333  0.266667      2.000000
 -0.133333  0.333333  0.266667      2.000000
 -0.066667  0.333333  0.266667      2.000000
  0.000000  0.400000  0.266667      2.000000
  0.066667  0.400000  0.266667      2.000000
  0.133333  0.400000  0.266667      2.000000
  0.200000  0.400000  0.266667      2.000000
  0.266667  0.400000  0.266667      2.000000
  0.333333  0.400000  0.266667      2.000000
  0.400000  0.400000  0.266667      2.000000
  0.466667  0.400000  0.266667      2.000000
 -0.466667  0.400000  0.266667      2.000000
 -0.400000  0.400000  0.266667      2.000000
 -0.333333  0.400000  0.266667      2.000000
 -0.266667  0.400000  0.266667      2.000000
 -0.200000  0.400000  0.266667      2.000000
 -0.133333  0.400000  0.266667      2.000000
 -0.066667  0.400000  0.266667      2.000000
 -0.000000  0.466667  0.266667      2.000000
  0.066667  0.466667  0.266667      2.000000
  0.133333  0.466667  0.266667      2.000000
  0.200000  0.466667  0.266667      2.000000
  0.266667  0.466667  0.266667      2.000000
  0.333333  0.466667  0.266667      2.000000
  0.400000  0.466667  0.266667      2.000000
  0.466667  0.466667  0.266667      2.000000
 -0.466667  0.466667  0.266667      2.000000
 -0.400000  0.466667  0.266667      2.000000
 -0.333333  0.466667  0.266667      2.000000
 -0.266667  0.466667  0.266667      2.000000
 -0.200000  0.466667  0.266667      2.000000
 -0.133333  0.466667  0.266667      2.000000
 -0.066667  0.466667  0.266667      2.000000
  0.000000 -0.466667  0.266667      2.000000
  0.066667 -0.466667  0.266667      2.000000
  0.133333 -0.466667  0.266667      2.000000
  0.200000 -0.466667  0.266667      2.000000
  0.266667 -0.466667  0.266667      2.000000
  0.333333 -0.466667  0.266667      2.000000
  0.400000 -0.466667  0.266667      2.000000
  0.466667 -0.466667  0.266667      2.000000
 -0.466667 -0.466667  0.266667      2.000000
 -0.400000 -0.466667  0.266667      2.000000
 -0.333333 -0.466667  0.266667      2.000000
 -0.266667 -0.466667  0.266667      2.000000
 -0.200000 -0.466667  0.266667      2.000000
 -0.133333 -0.466667  0.266667      2.000000
 -0.066667 -0.466667  0.266667      2.000000
  0.000000 -0.400000  0.266667      2.000000
  0.066667 -0.400000  0.266667      2.000000
  0.133333 -0.400000  0.266667      2.000000
  0.200000 -0.400000  0.266667      2.000000
  0.266667 -0.400000  0.266667      2.000000
  0.333333 -0.400000  0.266667      2.000000
  0.400000 -0.400000  0.266667      2.000000
  0.466667 -0.400000  0.266667      2.000000
 -0.466667 -0.400000  0.266667      2.000000
 -0.400000 -0.400000  0.266667      2.000000
 -0.333333 -0.400000  0.266667      2.000000
 -0.266667 -0.400000  0.266667      2.000000
 -0.200000 -0.400000  0.266667      2.000000
 -0.133333 -0.400000  0.266667      2.000000
 -0.066667 -0.400000  0.266667      2.000000
 -0.000000 -0.333333  0.266667      2.000000
  0.066667 -0.333333  0.266667      2.000000
  0.133333 -0.333333  0.266667      2.000000
  0.200000 -0.333333  0.266667      2.000000
  0.266667 -0.333333  0.266667      2.000000
  0.333333 -0.333333  0.266667      2.000000
  0.400000 -0.333333  0.266667      2.000000
  0.466667 -0.333333  0.266667      2.000000
 -0.466667 -0.333333  0.266667      2.000000
 -0.400000 -0.333333  0.266667      2.000000
 -0.333333 -0.333333  0.266667      2.000000
 -0.266667 -0.333333  0.266667      2.000000
 -0.200000 -0.333333  0.266667      2.000000
 -0.133333 -0.333333  0.266667      2.000000
 -0.066667 -0.333333  0.266667      2.000000
  0.000000 -0.266667  0.266667      2.000000
  0.066667 -0.266667  0.266667      2.000000
  0.133333 -0.266667  0.266667      2.000000
  0.200000 -0.266667  0.266667      2.000000
  0.266667 -0.266667  0.266667      2.000000
  0.333333 -0.266667  0.266667      2.000000
  0.400000 -0.266667  0.266667      2.000000
  0.466667 -0.266667  0.266667      2.000000
 -0.466667 -0.266667  0.266667      2.000000
 -0.400000 -0.266667  0.266667      2.000000
 -0.333333 -0.266667  0.266667      2.000000
 -0.266667 -0.266667  0.266667      2.000000
 -0.200000 -0.266667  0.266667      2.000000
 -0.133333 -0.266667  0.266667      2.000000
 -0.066667 -0.266667  0.266667      2.000000
  0.000000 -0.200000  0.266667      2.000000
  0.066667 -0.200000  0.266667      2.000000
  0.133333 -0.200000  0.266667      2.000000
  0.200000 -0.200000  0.266667      2.000000
  0.266667 -0.200000  0.266667      2.000000
  0.333333 -0.200000  0.266667      2.000000
  0.400000 -0.200000  0.266667      2.000000
  0.466667 -0.200000  0.266667      2.000000
 -0.466667 -0.200000  0.266667      2.000000
 -0.400000 -0.200000  0.266667      2.000000
 -0.333333 -0.200000  0.266667      2.000000
 -0.266667 -0.200000  0.266667      2.000000
 -0.200000 -0.200000  0.266667      2.000000
 -0.133333 -0.200000  0.266667      2.000000
 -0.066667 -0.200000  0.266667      2.000000
  0.000000 -0.133333  0.266667      2.000000
  0.066667 -0.133333  0.266667      2.000000
  0.133333 -0.133333  0.266667      2.000000
  0.200000 -0.133333  0.266667      2.000000
  0.266667 -0.133333  0.266667      2.000000
  0.333333 -0.133333  0.266667      2.000000
  0.400000 -0.133333  0.266667      2.000000
  0.466667 -0.133333  0.266667      2.000000
 -0.466667 -0.133333  0.266667      2.000000
 -0.400000 -0.133333  0.266667      2.000000
 -0.333333 -0.133333  0.266667      2.000000
 -0.266667 -0.133333  0.266667      2.000000
 -0.200000 -0.133333  0.266667      2.000000
 -0.133333 -0.133333  0.266667      2.000000
 -0.066667 -0.133333  0.266667      2.000000
  0.000000 -0.066667  0.266667      2.000000
  0.066667 -0.066667  0.266667      2.000000
  0.133333 -0.066667  0.266667      2.000000
  0.200000 -0.066667  0.266667      2.000000
  0.266667 -0.066667  0.266667      2.000000
  0.333333 -0.066667  0.266667      2.000000
  0.400000 -0.066667  0.266667      2.000000
  0.466667 -0.066667  0.266667      2.000000
 -0.466667 -0.066667  0.266667      2.000000
 -0.400000 -0.066667  0.266667      2.000000
 -0.333333 -0.066667  0.266667      2.000000
 -0.266667 -0.066667  0.266667      2.000000
 -0.200000 -0.066667  0.266667      2.000000
 -0.133333 -0.066667  0.266667      2.000000
 -0.066667 -0.066667  0.266667      2.000000
  0.000000  0.000000  0.333333      2.000000
  0.066667  0.000000  0.333333      2.000000
  0.133333  0.000000  0.333333      2.000000
  0.200000  0.000000  0.333333      2.000000
  0.266667  0.000000  0.333333      2.000000
  0.333333  0.000000  0.333333      2.000000
  0.400000  0.000000  0.333333      2.000000
  0.466667  0.000000  0.333333      2.000000
 -0.466667  0.000000  0.333333      2.000000
 -0.400000 -0.000000  0.333333      2.000000
 -0.333333  0.000000  0.333333      2.000000
 -0.266667  0.000000  0.333333      2.000000
 -0.200000  0.000000  0.333333      2.000000
 -0.133333  0.000000  0.333333      2.000000
 -0.066667 -0.000000  0.333333      2.000000
  0.000000  0.066667  0.333333      2.000000
  0.066667  0.066667  0.333333      2.000000
  0.133333  0.066667  0.333333      2.000000
  0.200000  0.066667  0.333333      2.000000
  0.266667  0.066667  0.333333      2.000000
  0.333333  0.066667  0.333333      2.000000
  0.400000  0.066667  0.333333      2.000000
  0.466667  0.066667  0.333333      2.000000
 -0.466667  0.066667  0.333333      2.000000
 -0.400000  0.066667  0.333333      2.000000
 -0.333333  0.066667  0.333333      2.000000
 -0.266667  0.066667  0.333333      2.000000
 -0.200000  0.066667  0.333333      2.000000
 -0.133333  0.066667  0.333333      2.000000
 -0.066667  0.066667  0.333333      2.000000
  0.000000  0.133333  0.333333      2.000000
  0.066667  0.133333  0.333333      2.000000
  0.133333  0.133333  0.333333      2.000000
  0.200000  0.133333  0.333333      2.000000
  0.266667  0.133333  0.333333      2.000000
  0.333333  0.133333  0.333333      2.000000
  0.400000  0.133333  0.333333      2.000000
  0.466667  0.133333  0.333333      2.000000
 -0.466667  0.133333  0.333333      2.000000
 -0.400000  0.133333  0.333333      2.000000
 -0.333333  0.133333  0.333333      2.000000
 -0.266667  0.133333  0.333333      2.000000
 -0.200000  0.133333  0.333333      2.000000
 -0.133333  0.133333  0.333333      2.000000
 -0.066667  0.133333  0.333333      2.000000
  0.000000  0.200000  0.333333      2.000000
  0.066667  0.200000  0.333333      2.000000
  0.133333  0.200000  0.333333      2.000000
  0.200000  0.200000  0.333333      2.000000
  0.266667  0.200000  0.333333      2.000000
  0.333333  0.200000  0.333333      2.000000
  0.400000  0.200000  0.333333      2.000000
  0.466667  0.200000  0.333333      2.000000
 -0.466667  0.200000  0.333333      2.000000
 -0.400000  0.200000  0.333333      2.000000
 -0.333333  0.200000  0.333333      2.000000
 -0.266667  0.200000  0.333333      2.000000
 -0.200000  0.200000  0.333333      2.000000
 -0.133333  0.200000  0.333333      2.000000
 -0.066667  0.200000  0.333333      2.000000
 -0.000000  0.266667  0.333333      2.000000
  0.066667  0.266667  0.333333      2.000000
  0.133333  0.266667  0.333333      2.000000
  0.200000  0.266667  0.333333      2.000000
  0.266667  0.266667  0.333333      2.000000
  0.333333  0.266667  0.333333      2.000000
  0.400000  0.266667  0.333333      2.000000
  0.466667  0.266667  0.333333      2.000000
 -0.466667  0.266667  0.333333      2.000000
 -0.400000  0.266667  0.333333      2.000000
 -0.333333  0.266667  0.333333      2.000000
 -0.266667  0.266667  0.333333      2.000000
 -0.200000  0.266667  0.333333      2.000000
 -0.133333  0.266667  0.333333      2.000000
 -0.066667  0.266667  0.333333      2.000000
  0.000000  0.333333  0.333333      2.000000
  0.066667  0.333333  0.333333      2.000000
  0.133333  0.333333  0.333333      2.000000
  0.200000  0.333333  0.333333      2.000000
  0.266667  0.333333  0.333333      2.000000
  0.333333  0.333333  0.333333      2.000000
  0.400000  0.333333  0.333333      2.000000
  0.466667  0.333333  0.333333      2.000000
 -0.466667  0.333333  0.333333      2.000000
 -0.400000  0.333333  0.333333      2.000000
 -0.333333  0.333333  0.333333      2.000000
 -0.266667  0.333333  0.333333      2.000000
 -0.200000  0.333333  0.333333      2.000000
 -0.133333  0.333333  0.333333      2.000000
 -0.066667  0.333333  0.333333      2.000000
  0.000000  0.400000  0.333333      2.000000
  0.066667  0.400000  0.333333      2.000000
  0.133333  0.400000  0.333333      2.000000
  0.200000  0.400000  0.333333      2.000000
  0.266667  0.400000  0.333333      2.000000
  0.333333  0.400000  0.333333      2.000000
  0.400000  0.400000  0.333333      2.000000
  0.466667  0.400000  0.333333      2.000000
 -0.466667  0.400000  0.333333      2.000000
 -0.400000  0.400000  0.333333      2.000000
 -0.333333  0.400000  0.333333      2.000000
 -0.266667  0.400000  0.333333      2.000000
 -0.200000  0.400000  0.333333      2.000000
 -0.133333  0.400000  0.333333      2.000000
 -0.066667  0.400000  0.333333      2.000000
 -0.000000  0.466667  0.333333      2.000000
  0.066667  0.466667  0.333333      2.000000
  0.133333  0.466667  0.333333      2.000000
  0.200000  0.466667  0.333333      2.000000
  0.266667  0.466667  0.333333      2.000000
  0.333333  0.466667  0.333333      2.000000
  0.400000  0.466667  0.333333      2.000000
  0.466667  0.466667  0.333333      2.000000
 -0.466667  0.466667  0.333333      2.000000
 -0.400000  0.466667  0.333333      2.000000
 -0.333333  0.466667  0.333333      2.000000
 -0.266667  0.466667  0.333333      2.000000
 -0.200000  0.466667  0.333333      2.000000
 -0.133333  0.466667  0.333333      2.000000
 -0.066667  0.466667  0.333333      2.000000
  0.000000 -0.466667  0.333333      2.000000
  0.066667 -0.466667  0.333333      2.000000
  0.133333 -0.466667  0.333333      2.000000
  0.200000 -0.466667  0.333333      2.000000
  0.266667 -0.466667  0.333333      2.000000
  0.333333 -0.466667  0.333333      2.000000
  0.400000 -0.466667  0.333333      2.000000
  0.466667 -0.466667  0.333333      2.000000
 -0.466667 -0.466667  0.333333      2.000000
 -0.400000 -0.466667  0.333333      2.000000
 -0.333333 -0.466667  0.333333      2.000000
 -0.266667 -0.466667  0.333333      2.000000
 -0.200000 -0.466667  0.333333      2.000000
 -0.133333 -0.466667  0.333333      2.000000
 -0.066667 -0.466667  0.333333      2.000000
  0.000000 -0.400000  0.333333      2.000000
  0.066667 -0.400000  0.333333      2.000000
  0.133333 -0.400000  0.333333      2.000000
  0.200000 -0.400000  0.333333      2.000000
  0.266667 -0.400000  0.333333      2.000000
  0.333333 -0.400000  0.333333      2.000000
  0.400000 -0.400000  0.333333      2.000000
  0.466667 -0.400000  0.333333      2.000000
 -0.466667 -0.400000  0.333333      2.000000
 -0.400000 -0.400000  0.333333      2.000000
 -0.333333 -0.400000  0.333333      2.000000
 -0.266667 -0.400000  0.333333      2.000000
 -0.200000 -0.400000  0.333333      2.000000
 -0.133333 -0.400000  0.333333      2.000000
 -0.066667 -0.400000  0.333333      2.000000
 -0.000000 -0.333333  0.333333      2.000000
  0.066667 -0.333333  0.333333      2.000000
  0.133333 -0.333333  0.333333      2.000000
  0.200000 -0.333333  0.333333      2.000000
  0.266667 -0.333333  0.333333      2.000000
  0.333333 -0.333333  0.333333      2.000000
  0.400000 -0.333333  0.333333      2.000000
  0.466667 -0.333333  0.333333      2.000000
 -0.466667 -0.333333  0.333333      2.000000
 -0.400000 -0.333333  0.333333      2.000000
 -0.333333 -0.333333  0.333333      2.000000
 -0.266667 -0.333333  0.333333      2.000000
 -0.200000 -0.333333  0.333333      2.000000
 -0.133333 -0.333333  0.333333      2.000000
 -0.066667 -0.333333  0.333333      2.000000
  0.000000 -0.266667  0.333333      2.000000
  0.066667 -0.266667  0.333333      2.000000
  0.133333 -0.266667  0.333333      2.000000
  0.200000 -0.266667  0.333333      2.000000
  0.266667 -0.266667  0.333333      2.000000
  0.333333 -0.266667  0.333333      2.000000
  0.400000 -0.266667  0.333333      2.000000
  0.466667 -0.266667  0.333333      2.000000
 -0.466667 -0.266667  0.333333      2.000000
 -0.400000 -0.266667  0.333333      2.000000
 -0.333333 -0.266667  0.333333      2.000000
 -0.266667 -0.266667  0.333333      2.000000
 -0.200000 -0.266667  0.333333      2.000000
 -0.133333 -0.266667  0.333333      2.000000
 -0.066667 -0.266667  0.333333      2.000000
  0.000000 -0.200000  0.333333      2.000000
  0.066667 -0.200000  0.333333      2.000000
  0.133333 -0.200000  0.333333      2.000000
  0.200000 -0.200000  0.333333      2.000000
  0.266667 -0.200000  0.333333      2.000000
  0.333333 -0.200000  0.333333      2.000000
  0.400000 -0.200000  0.333333      2.000000
  0.466667 -0.200000  0.333333      2.000000
 -0.466667 -0.200000  0.333333      2.000000
 -0.400000 -0.200000  0.333333      2.000000
 -0.333333 -0.200000  0.333333      2.000000
 -0.266667 -0.200000  0.333333      2.000000
 -0.200000 -0.200000  0.333333      2.000000
 -0.133333 -0.200000  0.333333      2.000000
 -0.066667 -0.200000  0.333333      2.000000
 -0.000000 -0.133333  0.333333      2.000000
  0.066667 -0.133333  0.333333      2.000000
  0.133333 -0.133333  0.333333      2.000000
  0.200000 -0.133333  0.333333      2.000000
  0.266667 -0.133333  0.333333      2.000000
  0.333333 -0.133333  0.333333      2.000000
  0.400000 -0.133333  0.333333      2.000000
  0.466667 -0.133333  0.333333      2.000000
 -0.466667 -0.133333  0.333333      2.000000
 -0.400000 -0.133333  0.333333      2.000000
 -0.333333 -0.133333  0.333333      2.000000
 -0.266667 -0.133333  0.333333      2.000000
 -0.200000 -0.133333  0.333333      2.000000
 -0.133333 -0.133333  0.333333      2.000000
 -0.066667 -0.133333  0.333333      2.000000
  0.000000 -0.066667  0.333333      2.000000
  0.066667 -0.066667  0.333333      2.000000
  0.133333 -0.066667  0.333333      2.000000
  0.200000 -0.066667  0.333333      2.000000
  0.266667 -0.066667  0.333333      2.000000
  0.333333 -0.066667  0.333333      2.000000
  0.400000 -0.066667  0.333333      2.000000
  0.466667 -0.066667  0.333333      2.000000
 -0.466667 -0.066667  0.333333      2.000000
 -0.400000 -0.066667  0.333333      2.000000
 -0.333333 -0.066667  0.333333      2.000000
 -0.266667 -0.066667  0.333333      2.000000
 -0.200000 -0.066667  0.333333      2.000000
 -0.133333 -0.066667  0.333333      2.000000
 -0.066667 -0.066667  0.333333      2.000000
  0.000000  0.000000  0.400000      2.000000
  0.066667  0.000000  0.400000      2.000000
  0.133333 -0.000000  0.400000      2.000000
  0.200000  0.000000  0.400000      2.000000
  0.266667  0.000000  0.400000      2.000000
  0.333333  0.000000  0.400000      2.000000
  0.400000  0.000000  0.400000      2.000000
  0.466667  0.000000  0.400000      2.000000
 -0.466667  0.000000  0.400000      2.000000
 -0.400000  0.000000  0.400000      2.000000
 -0.333333  0.000000  0.400000      2.000000
 -0.266667  0.000000  0.400000      2.000000
 -0.200000  0.000000  0.400000      2.000000
 -0.133333  0.000000  0.400000      2.000000
 -0.066667  0.000000  0.400000      2.000000
 -0.000000  0.066667  0.400000      2.000000
  0.066667  0.066667  0.400000      2.000000
  0.133333  0.066667  0.400000      2.000000
  0.200000  0.066667  0.400000      2.000000
  0.266667  0.066667  0.400000      2.000000
  0.333333  0.066667  0.400000      2.000000
  0.400000  0.066667  0.400000      2.000000
  0.466667  0.066667  0.400000      2.000000
 -0.466667  0.066667  0.400000      2.000000
 -0.400000  0.066667  0.400000      2.000000
 -0.333333  0.066667  0.400000      2.000000
 -0.266667  0.066667  0.400000      2.000000
 -0.200000  0.066667  0.400000      2.000000
 -0.133333  0.066667  0.400000      2.000000
 -0.066667  0.066667  0.400000      2.000000
  0.000000  0.133333  0.400000      2.000000
  0.066667  0.133333  0.400000      2.000000
  0.133333  0.133333  0.400000      2.000000
  0.200000  0.133333  0.400000      2.000000
  0.266667  0.133333  0.400000      2.000000
  0.333333  0.133333  0.400000      2.000000
  0.400000  0.133333  0.400000      2.000000
  0.466667  0.133333  0.400000      2.000000
 -0.466667  0.133333  0.400000      2.000000
 -0.400000  0.133333  0.400000      2.000000
 -0.333333  0.133333  0.400000      2.000000
 -0.266667  0.133333  0.400000      2.000000
 -0.200000  0.133333  0.400000      2.000000
 -0.133333  0.133333  0.400000      2.000000
 -0.066667  0.133333  0.400000      2.000000
  0.000000  0.200000  0.400000      2.000000
  0.066667  0.200000  0.400000      2.000000
  0.133333  0.200000  0.400000      2.000000
  0.200000  0.200000  0.400000      2.000000
  0.266667  0.200000  0.400000      2.000000
  0.333333  0.200000  0.400000      2.000000
  0.400000  0.200000  0.400000      2.000000
  0.466667  0.200000  0.400000      2.000000
 -0.466667  0.200000  0.400000      2.000000
 -0.400000  0.200000  0.400000      2.000000
 -0.333333  0.200000  0.400000      2.000000
 -0.266667  0.200000  0.400000      2.000000
 -0.200000  0.200000  0.400000      2.000000
 -0.133333  0.200000  0.400000      2.000000
 -0.066667  0.200000  0.400000      2.000000
 -0.000000  0.266667  0.400000      2.000000
  0.066667  0.266667  0.400000      2.000000
  0.133333  0.266667  0.400000      2.000000
  0.200000  0.266667  0.400000      2.000000
  0.266667  0.266667  0.400000      2.000000
  0.333333  0.266667  0.400000      2.000000
  0.400000  0.266667  0.400000      2.000000
  0.466667  0.266667  0.400000      2.000000
 -0.466667  0.266667  0.400000      2.000000
 -0.400000  0.266667  0.400000      2.000000
 -0.333333  0.266667  0.400000      2.000000
 -0.266667  0.266667  0.400000      2.000000
 -0.200000  0.266667  0.400000      2.000000
 -0.133333  0.266667  0.400000      2.000000
 -0.066667  0.266667  0.400000      2.000000
  0.000000  0.333333  0.400000      2.000000
  0.066667  0.333333  0.400000      2.000000
  0.133333  0.333333  0.400000      2.000000
  0.200000  0.333333  0.400000      2.000000
  0.266667  0.333333  0.400000      2.000000
  0.333333  0.333333  0.400000      2.000000
  0.400000  0.333333  0.400000      2.000000
  0.466667  0.333333  0.400000      2.000000
 -0.466667  0.333333  0.400000      2.000000
 -0.400000  0.333333  0.400000      2.000000
 -0.333333  0.333333  0.400000      2.000000
 -0.266667  0.333333  0.400000      2.000000
 -0.200000  0.333333  0.400000      2.000000
 -0.133333  0.333333  0.400000      2.000000
 -0.066667  0.333333  0.400000      2.000000
  0.000000  0.400000  0.400000      2.000000
  0.066667  0.400000  0.400000      2.000000
  0.133333  0.400000  0.400000      2.000000
  0.200000  0.400000  0.400000      2.000000
  0.266667  0.400000  0.400000      2.000000
  0.333333  0.400000  0.400000      2.000000
  0.400000  0.400000  0.400000      2.000000
  0.466667  0.400000  0.400000      2.000000
 -0.466667  0.400000  0.400000      2.000000
 -0.400000  0.400000  0.400000      2.000000
 -0.333333  0.400000  0.400000      2.000000
 -0.266667  0.400000  0.400000      2.000000
 -0.200000  0.400000  0.400000      2.000000
 -0.133333  0.400000  0.400000      2.000000
 -0.066667  0.400000  0.400000      2.000000
  0.000000  0.466667  0.400000      2.000000
  0.066667  0.466667  0.400000      2.000000
  0.133333  0.466667  0.400000      2.000000
  0.200000  0.466667  0.400000      2.000000
  0.266667  0.466667  0.400000      2.000000
  0.333333  0.466667  0.400000      2.000000
  0.400000  0.466667  0.400000      2.000000
  0.466667  0.466667  0.400000      2.000000
 -0.466667  0.466667  0.400000      2.000000
 -0.400000  0.466667  0.400000      2.000000
 -0.333333  0.466667  0.400000      2.000000
 -0.266667  0.466667  0.400000      2.000000
 -0.200000  0.466667  0.400000      2.000000
 -0.133333  0.466667  0.400000      2.000000
 -0.066667  0.466667  0.400000      2.000000
  0.000000 -0.466667  0.400000      2.000000
  0.066667 -0.466667  0.400000      2.000000
  0.133333 -0.466667  0.400000      2.000000
  0.200000 -0.466667  0.400000      2.000000
  0.266667 -0.466667  0.400000      2.000000
  0.333333 -0.466667  0.400000      2.000000
  0.400000 -0.466667  0.400000      2.000000
  0.466667 -0.466667  0.400000      2.000000
 -0.466667 -0.466667  0.400000      2.000000
 -0.400000 -0.466667  0.400000      2.000000
 -0.333333 -0.466667  0.400000      2.000000
 -0.266667 -0.466667  0.400000      2.000000
 -0.200000 -0.466667  0.400000      2.000000
 -0.133333 -0.466667  0.400000      2.000000
 -0.066667 -0.466667  0.400000      2.000000
  0.000000 -0.400000  0.400000      2.000000
  0.066667 -0.400000  0.400000      2.000000
  0.133333 -0.400000  0.400000      2.000000
  0.200000 -0.400000  0.400000      2.000000
  0.266667 -0.400000  0.400000      2.000000
  0.333333 -0.400000  0.400000      2.000000
  0.400000 -0.400000  0.400000      2.000000
  0.466667 -0.400000  0.400000      2.000000
 -0.466667 -0.400000  0.400000      2.000000
 -0.400000 -0.400000  0.400000      2.000000
 -0.333333 -0.400000  0.400000      2.000000
 -0.266667 -0.400000  0.400000      2.000000
 -0.200000 -0.400000  0.400000      2.000000
 -0.133333 -0.400000  0.400000      2.000000
 -0.066667 -0.400000  0.400000      2.000000
  0.000000 -0.333333  0.400000      2.000000
  0.066667 -0.333333  0.400000      2.000000
  0.133333 -0.333333  0.400000      2.000000
  0.200000 -0.333333  0.400000      2.000000
  0.266667 -0.333333  0.400000      2.000000
  0.333333 -0.333333  0.400000      2.000000
  0.400000 -0.333333  0.400000      2.000000
  0.466667 -0.333333  0.400000      2.000000
 -0.466667 -0.333333  0.400000      2.000000
 -0.400000 -0.333333  0.400000      2.000000
 -0.333333 -0.333333  0.400000      2.000000
 -0.266667 -0.333333  0.400000      2.000000
 -0.200000 -0.333333  0.400000      2.000000
 -0.133333 -0.333333  0.400000      2.000000
 -0.066667 -0.333333  0.400000      2.000000
  0.000000 -0.266667  0.400000      2.000000
  0.066667 -0.266667  0.400000      2.000000
  0.133333 -0.266667  0.400000      2.000000
  0.200000 -0.266667  0.400000      2.000000
  0.266667 -0.266667  0.400000      2.000000
  0.333333 -0.266667  0.400000      2.000000
  0.400000 -0.266667  0.400000      2.000000
  0.466667 -0.266667  0.400000      2.000000
 -0.466667 -0.266667  0.400000      2.000000
 -0.400000 -0.266667  0.400000      2.000000
 -0.333333 -0.266667  0.400000      2.000000
 -0.266667 -0.266667  0.400000      2.000000
 -0.200000 -0.266667  0.400000      2.000000
 -0.133333 -0.266667  0.400000      2.000000
 -0.066667 -0.266667  0.400000      2.000000
  0.000000 -0.200000  0.400000      2.000000
  0.066667 -0.200000  0.400000      2.000000
  0.133333 -0.200000  0.400000      2.000000
  0.200000 -0.200000  0.400000      2.000000
  0.266667 -0.200000  0.400000      2.000000
  0.333333 -0.200000  0.400000      2.000000
  0.400000 -0.200000  0.400000      2.000000
  0.466667 -0.200000  0.400000      2.000000
 -0.466667 -0.200000  0.400000      2.000000
 -0.400000 -0.200000  0.400000      2.000000
 -0.333333 -0.200000  0.400000      2.000000
 -0.266667 -0.200000  0.400000      2.000000
 -0.200000 -0.200000  0.400000      2.000000
 -0.133333 -0.200000  0.400000      2.000000
 -0.066667 -0.200000  0.400000      2.000000
  0.000000 -0.133333  0.400000      2.000000
  0.066667 -0.133333  0.400000      2.000000
  0.133333 -0.133333  0.400000      2.000000
  0.200000 -0.133333  0.400000      2.000000
  0.266667 -0.133333  0.400000      2.000000
  0.333333 -0.133333  0.400000      2.000000
  0.400000 -0.133333  0.400000      2.000000
  0.466667 -0.133333  0.400000      2.000000
 -0.466667 -0.133333  0.400000      2.000000
 -0.400000 -0.133333  0.400000      2.000000
 -0.333333 -0.133333  0.400000      2.000000
 -0.266667 -0.133333  0.400000      2.000000
 -0.200000 -0.133333  0.400000      2.000000
 -0.133333 -0.133333  0.400000      2.000000
 -0.066667 -0.133333  0.400000      2.000000
  0.000000 -0.066667  0.400000      2.000000
  0.066667 -0.066667  0.400000      2.000000
  0.133333 -0.066667  0.400000      2.000000
  0.200000 -0.066667  0.400000      2.000000
  0.266667 -0.066667  0.400000      2.000000
  0.333333 -0.066667  0.400000      2.000000
  0.400000 -0.066667  0.400000      2.000000
  0.466667 -0.066667  0.400000      2.000000
 -0.466667 -0.066667  0.400000      2.000000
 -0.400000 -0.066667  0.400000      2.000000
 -0.333333 -0.066667  0.400000      2.000000
 -0.266667 -0.066667  0.400000      2.000000
 -0.200000 -0.066667  0.400000      2.000000
 -0.133333 -0.066667  0.400000      2.000000
 -0.066667 -0.066667  0.400000      2.000000
 -0.000000  0.000000  0.466667      2.000000
  0.066667  0.000000  0.466667      2.000000
  0.133333  0.000000  0.466667      2.000000
  0.200000  0.000000  0.466667      2.000000
  0.266667  0.000000  0.466667      2.000000
  0.333333  0.000000  0.466667      2.000000
  0.400000  0.000000  0.466667      2.000000
  0.466667  0.000000  0.466667      2.000000
 -0.466667  0.000000  0.466667      2.000000
 -0.400000  0.000000  0.466667      2.000000
 -0.333333  0.000000  0.466667      2.000000
 -0.266667  0.000000  0.466667      2.000000
 -0.200000  0.000000  0.466667      2.000000
 -0.133333  0.000000  0.466667      2.000000
 -0.066667  0.000000  0.466667      2.000000
 -0.000000  0.066667  0.466667      2.000000
  0.066667  0.066667  0.466667      2.000000
  0.133333  0.066667  0.466667      2.000000
  0.200000  0.066667  0.466667      2.000000
  0.266667  0.066667  0.466667      2.000000
  0.333333  0.066667  0.466667      2.000000
  0.400000  0.066667  0.466667      2.000000
  0.466667  0.066667  0.466667      2.000000
 -0.466667  0.066667  0.466667      2.000000
 -0.400000  0.066667  0.466667      2.000000
 -0.333333  0.066667  0.466667      2.000000
 -0.266667  0.066667  0.466667      2.000000
 -0.200000  0.066667  0.466667      2.000000
 -0.133333  0.066667  0.466667      2.000000
 -0.066667  0.066667  0.466667      2.000000
  0.000000  0.133333  0.466667      2.000000
  0.066667  0.133333  0.466667      2.000000
  0.133333  0.133333  0.466667      2.000000
  0.200000  0.133333  0.466667      2.000000
  0.266667  0.133333  0.466667      2.000000
  0.333333  0.133333  0.466667      2.000000
  0.400000  0.133333  0.466667      2.000000
  0.466667  0.133333  0.466667      2.000000
 -0.466667  0.133333  0.466667      2.000000
 -0.400000  0.133333  0.466667      2.000000
 -0.333333  0.133333  0.466667      2.000000
 -0.266667  0.133333  0.466667      2.000000
 -0.200000  0.133333  0.466667      2.000000
 -0.133333  0.133333  0.466667      2.000000
 -0.066667  0.133333  0.466667      2.000000
 -0.000000  0.200000  0.466667      2.000000
  0.066667  0.200000  0.466667      2.000000
  0.133333  0.200000  0.466667      2.000000
  0.200000  0.200000  0.466667      2.000000
  0.266667  0.200000  0.466667      2.000000
  0.333333  0.200000  0.466667      2.000000
  0.400000  0.200000  0.466667      2.000000
  0.466667  0.200000  0.466667      2.000000
 -0.466667  0.200000  0.466667      2.000000
 -0.400000  0.200000  0.466667      2.000000
 -0.333333  0.200000  0.466667      2.000000
 -0.266667  0.200000  0.466667      2.000000
 -0.200000  0.200000  0.466667      2.000000
 -0.133333  0.200000  0.466667      2.000000
 -0.066667  0.200000  0.466667      2.000000
 -0.000000  0.266667  0.466667      2.000000
  0.066667  0.266667  0.466667      2.000000
  0.133333  0.266667  0.466667      2.000000
  0.200000  0.266667  0.466667      2.000000
  0.266667  0.266667  0.466667      2.000000
  0.333333  0.266667  0.466667      2.000000
  0.400000  0.266667  0.466667      2.000000
  0.466667  0.266667  0.466667      2.000000
 -0.466667  0.266667  0.466667      2.000000
 -0.400000  0.266667  0.466667      2.000000
 -0.333333  0.266667  0.466667      2.000000
 -0.266667  0.266667  0.466667      2.000000
 -0.200000  0.266667  0.466667      2.000000
 -0.133333  0.266667  0.466667      2.000000
 -0.066667  0.266667  0.466667      2.000000
  0.000000  0.333333  0.466667      2.000000
  0.066667  0.333333  0.466667      2.000000
  0.133333  0.333333  0.466667      2.000000
  0.200000  0.333333  0.466667      2.000000
  0.266667  0.333333  0.466667      2.000000
  0.333333  0.333333  0.466667      2.000000
  0.400000  0.333333  0.466667      2.000000
  0.466667  0.333333  0.466667      2.000000
 -0.466667  0.333333  0.466667      2.000000
 -0.400000  0.333333  0.466667      2.000000
 -0.333333  0.333333  0.466667      2.000000
 -0.266667  0.333333  0.466667      2.000000
 -0.200000  0.333333  0.466667      2.000000
 -0.133333  0.333333  0.466667      2.000000
 -0.066667  0.333333  0.466667      2.000000
  0.000000  0.400000  0.466667      2.000000
  0.066667  0.400000  0.466667      2.000000
  0.133333  0.400000  0.466667      2.000000
  0.200000  0.400000  0.466667      2.000000
  0.266667  0.400000  0.466667      2.000000
  0.333333  0.400000  0.466667      2.000000
  0.400000  0.400000  0.466667      2.000000
  0.466667  0.400000  0.466667      2.000000
 -0.466667  0.400000  0.466667      2.000000
 -0.400000  0.400000  0.466667      2.000000
 -0.333333  0.400000  0.466667      2.000000
 -0.266667  0.400000  0.466667      2.000000
 -0.200000  0.400000  0.466667      2.000000
 -0.133333  0.400000  0.466667      2.000000
 -0.066667  0.400000  0.466667      2.000000
  0.000000  0.466667  0.466667      2.000000
  0.066667  0.466667  0.466667      2.000000
  0.133333  0.466667  0.466667      2.000000
  0.200000  0.466667  0.466667      2.000000
  0.266667  0.466667  0.466667      2.000000
  0.333333  0.466667  0.466667      2.000000
  0.400000  0.466667  0.466667      2.000000
  0.466667  0.466667  0.466667      2.000000
 -0.466667  0.466667  0.466667      2.000000
 -0.400000  0.466667  0.466667      2.000000
 -0.333333  0.466667  0.466667      2.000000
 -0.266667  0.466667  0.466667      2.000000
 -0.200000  0.466667  0.466667      2.000000
 -0.133333  0.466667  0.466667      2.000000
 -0.066667  0.466667  0.466667      2.000000
  0.000000 -0.466667  0.466667      2.000000
  0.066667 -0.466667  0.466667      2.000000
  0.133333 -0.466667  0.466667      2.000000
  0.200000 -0.466667  0.466667      2.000000
  0.266667 -0.466667  0.466667      2.000000
  0.333333 -0.466667  0.466667      2.000000
  0.400000 -0.466667  0.466667      2.000000
  0.466667 -0.466667  0.466667      2.000000
 -0.466667 -0.466667  0.466667      2.000000
 -0.400000 -0.466667  0.466667      2.000000
 -0.333333 -0.466667  0.466667      2.000000
 -0.266667 -0.466667  0.466667      2.000000
 -0.200000 -0.466667  0.466667      2.000000
 -0.133333 -0.466667  0.466667      2.000000
 -0.066667 -0.466667  0.466667      2.000000
  0.000000 -0.400000  0.466667      2.000000
  0.066667 -0.400000  0.466667      2.000000
  0.133333 -0.400000  0.466667      2.000000
  0.200000 -0.400000  0.466667      2.000000
  0.266667 -0.400000  0.466667      2.000000
  0.333333 -0.400000  0.466667      2.000000
  0.400000 -0.400000  0.466667      2.000000
  0.466667 -0.400000  0.466667      2.000000
 -0.466667 -0.400000  0.466667      2.000000
 -0.400000 -0.400000  0.466667      2.000000
[...]
      7       3.1838      2.00000
      8       3.2120      2.00000
      9       3.4455      2.00000
     10       3.5592      2.00000
     11       3.6277      2.00000
     12       3.7168      2.00000
     13       4.4004      2.00000
     14       4.5645      2.00000
     15       4.6702      2.00000
     16       4.7244      2.00000
     17       4.8587      2.00000
     18       5.0810      2.00000
     19       5.4758      2.00000
     20       5.4961      2.00000
     21       6.3068      2.00000
     22       6.6801      2.00000
     23       8.6368      0.00000
     24       9.1080      0.00000
     25      13.7338      0.00000
     26      14.1893      0.00000
     27      16.3357      0.00000

 k-point  1680 :       0.4000   -0.0667    0.4667
  band No.  band energies     occupation 
      1       2.0065      2.00000
      2       2.2726      2.00000
      3       2.5709      2.00000
      4       2.5770      2.00000
      5       3.2624      2.00000
      6       3.2748      2.00000
      7       3.2755      2.00000
      8       3.3023      2.00000
      9       3.5042      2.00000
     10       3.5355      2.00000
     11       3.6545      2.00000
     12       3.7010      2.00000
     13       4.3523      2.00000
     14       4.4887      2.00000
     15       4.5396      2.00000
     16       4.5733      2.00000
     17       4.8575      2.00000
     18       5.0510      2.00000
     19       5.2708      2.00000
     20       5.3195      2.00000
     21       6.6657      2.00000
     22       7.0790      2.00000
     23       8.0227      0.09744
     24       8.4989      0.00000
     25      14.1656      0.00000
     26      14.6719      0.00000
     27      15.8583      0.00000

 k-point  1681 :       0.4667   -0.0667    0.4667
  band No.  band energies     occupation 
      1       2.2126      2.00000
      2       2.3998      2.00000
      3       2.3998      2.00000
      4       2.4968      2.00000
      5       3.3289      2.00000
      6       3.3341      2.00000
      7       3.3341      2.00000
      8       3.3433      2.00000
      9       3.6021      2.00000
     10       3.6021      2.00000
     11       3.6604      2.00000
     12       3.6796      2.00000
     13       4.3433      2.00000
     14       4.4266      2.00000
     15       4.4266      2.00000
     16       4.4390      2.00000
     17       4.9338      2.00000
     18       5.0804      2.00000
     19       5.0804      2.00000
     20       5.1736      2.00000
     21       7.0590      2.00000
     22       7.5035      2.00000
     23       7.5035      2.00000
     24       7.9696      0.36451
     25      14.6587      0.00000
     26      15.2201      0.00000
     27      15.2202      0.00000

 k-point  1682 :      -0.4667   -0.0667    0.4667
  band No.  band energies     occupation 
      1       2.2126      2.00000
      2       2.3998      2.00000
      3       2.3998      2.00000
      4       2.4968      2.00000
      5       3.3289      2.00000
      6       3.3341      2.00000
      7       3.3341      2.00000
      8       3.3433      2.00000
      9       3.6021      2.00000
     10       3.6021      2.00000
     11       3.6604      2.00000
     12       3.6796      2.00000
     13       4.3433      2.00000
     14       4.4266      2.00000
     15       4.4266      2.00000
     16       4.4390      2.00000
     17       4.9338      2.00000
     18       5.0804      2.00000
     19       5.0804      2.00000
     20       5.1736      2.00000
     21       7.0590      2.00000
     22       7.5035      2.00000
     23       7.5035      2.00000
     24       7.9696      0.36452
     25      14.6587      0.00000
     26      15.2201      0.00000
     27      15.2212      0.00000

 k-point  1683 :      -0.4000   -0.0667    0.4667
  band No.  band energies     occupation 
      1       2.0065      2.00000
      2       2.2726      2.00000
      3       2.5709      2.00000
      4       2.5770      2.00000
      5       3.2624      2.00000
      6       3.2748      2.00000
      7       3.2755      2.00000
      8       3.3023      2.00000
      9       3.5042      2.00000
     10       3.5355      2.00000
     11       3.6545      2.00000
     12       3.7010      2.00000
     13       4.3523      2.00000
     14       4.4887      2.00000
     15       4.5396      2.00000
     16       4.5733      2.00000
     17       4.8575      2.00000
     18       5.0510      2.00000
     19       5.2708      2.00000
     20       5.3195      2.00000
     21       6.6657      2.00000
     22       7.0790      2.00000
     23       8.0227      0.09743
     24       8.4989      0.00000
     25      14.1656      0.00000
     26      14.6719      0.00000
     27      15.8583      0.00000

 k-point  1684 :      -0.3333   -0.0667    0.4667
  band No.  band energies     occupation 
      1       1.7878      2.00000
      2       2.1126      2.00000
      3       2.6507      2.00000
      4       2.7308      2.00000
      5       3.1192      2.00000
      6       3.1464      2.00000
      7       3.1838      2.00000
      8       3.2120      2.00000
      9       3.4455      2.00000
     10       3.5592      2.00000
     11       3.6277      2.00000
     12       3.7168      2.00000
     13       4.4004      2.00000
     14       4.5645      2.00000
     15       4.6702      2.00000
     16       4.7244      2.00000
     17       4.8587      2.00000
     18       5.0810      2.00000
     19       5.4758      2.00000
     20       5.4961      2.00000
     21       6.3068      2.00000
     22       6.6801      2.00000
     23       8.6368      0.00000
     24       9.1080      0.00000
     25      13.7338      0.00000
     26      14.1893      0.00000
     27      16.3405      0.00000

 k-point  1685 :      -0.2667   -0.0667    0.4667
  band No.  band energies     occupation 
      1       1.5726      2.00000
      2       1.9351      2.00000
      3       2.7147      2.00000
      4       2.8783      2.00000
      5       2.9678      2.00000
      6       2.9938      2.00000
      7       3.0806      2.00000
      8       3.1102      2.00000
      9       3.4190      2.00000
     10       3.5986      2.00000
     11       3.6598      2.00000
     12       3.7695      2.00000
     13       4.4407      2.00000
     14       4.6241      2.00000
     15       4.7807      2.00000
     16       4.8381      2.00000
     17       4.9105      2.00000
     18       5.1478      2.00000
     19       5.6778      2.00000
     20       5.6837      2.00000
     21       5.9779      2.00000
     22       6.3007      2.00000
     23       9.3489      0.00000
     24       9.7959      0.00000
     25      13.3666      0.00000
     26      13.7760      0.00000
     27      15.8857      0.00000

 k-point  1686 :      -0.2000   -0.0667    0.4667
  band No.  band energies     occupation 
      1       1.3815      2.00000
      2       1.7656      2.00000
      3       2.7423      2.00000
      4       2.8424      2.00000
      5       2.8533      2.00000
      6       2.9870      2.00000
      7       3.0042      2.00000
      8       3.0547      2.00000
      9       3.4173      2.00000
     10       3.5644      2.00000
     11       3.8125      2.00000
     12       3.8651      2.00000
     13       4.4709      2.00000
     14       4.6687      2.00000
     15       4.8498      2.00000
     16       4.8952      2.00000
     17       4.9582      2.00000
     18       5.2147      2.00000
     19       5.6920      2.00000
     20       5.8673      2.00000
     21       5.8673      2.00000
     22       5.9478      2.00000
     23      10.1368      0.00000
     24      10.5267      0.00000
     25      13.0959      0.00000
     26      13.4486      0.00000
     27      15.5216      0.00000

 k-point  1687 :      -0.1333   -0.0667    0.4667
  band No.  band energies     occupation 
      1       1.2323      2.00000
      2       1.6281      2.00000
      3       2.7156      2.00000
      4       2.7451      2.00000
      5       2.7514      2.00000
      6       2.9150      2.00000
      7       3.0762      2.00000
      8       3.0881      2.00000
      9       3.4446      2.00000
     10       3.5245      2.00000
     11       3.9928      2.00000
     12       3.9951      2.00000
     13       4.5005      2.00000
     14       4.7100      2.00000
     15       4.8798      2.00000
     16       4.9026      2.00000
     17       4.9363      2.00000
     18       5.2281      2.00000
     19       5.4906      2.00000
     20       5.6594      2.00000
     21       6.0280      2.00000
     22       6.0290      2.00000
     23      10.9350      0.00000
     24      11.1897      0.00000
     25      13.0212      0.00000
     26      13.2548      0.00000
     27      15.1500      0.00000

 k-point  1688 :      -0.0667   -0.0667    0.4667
  band No.  band energies     occupation 
      1       1.1379      2.00000
      2       1.5394      2.00000
      3       2.6770      2.00000
      4       2.6770      2.00000
      5       2.6966      2.00000
      6       2.8702      2.00000
      7       3.1276      2.00000
      8       3.1276      2.00000
      9       3.4860      2.00000
     10       3.4860      2.00000
     11       4.1219      2.00000
     12       4.1668      2.00000
     13       4.5438      2.00000
     14       4.7696      2.00000
     15       4.8124      2.00000
     16       4.8865      2.00000
     17       4.8865      2.00000
     18       5.1025      2.00000
     19       5.4076      2.00000
     20       5.5272      2.00000
     21       6.1401      2.00000
     22       6.1401      2.00000
     23      11.5772      0.00000
     24      11.5772      0.00000
     25      13.3084      0.00000
     26      13.3084      0.00000
     27      14.7154      0.00000


--------------------------------------------------------------------------------------------------------


 soft charge-density along one line, spin component           1
         0         1         2         3         4         5         6         7         8         9
 total charge-density along one line
 
 pseudopotential strength for first ion, spin component:           1
 -4.299  -0.000  -0.000  -0.000   0.000  -4.529  -0.000  -0.000
 -0.000  -4.299   0.000  -0.000  -0.000  -0.000  -4.529   0.000
 -0.000   0.000  -4.285  -0.000   0.000  -0.000   0.000  -4.516
 -0.000  -0.000  -0.000  -4.299  -0.000  -0.000  -0.000  -0.000
  0.000  -0.000   0.000  -0.000  -4.285   0.000  -0.000   0.000
 -4.529  -0.000  -0.000  -0.000   0.000  -4.741  -0.000  -0.000
 -0.000  -4.529   0.000  -0.000  -0.000  -0.000  -4.741   0.000
 -0.000   0.000  -4.516  -0.000   0.000  -0.000   0.000  -4.728
 -0.000  -0.000  -0.000  -4.529  -0.000  -0.000  -0.000  -0.000
  0.000  -0.000   0.000  -0.000  -4.516   0.000  -0.000   0.000
  0.000  -0.000   0.000   0.000   0.000   0.000  -0.000   0.000
  0.000  -0.000   0.000   0.000   0.000   0.000  -0.000   0.000
  0.000   0.000  -0.000   0.000  -0.000   0.000   0.000  -0.000
  0.000   0.000   0.000   0.000   0.000  -0.000   0.000   0.000
  0.000   0.000  -0.000   0.000   0.000   0.000  -0.000  -0.000
  0.000   0.000  -0.000  -0.000  -0.000   0.000   0.000  -0.000
 -0.000   0.000   0.000   0.000   0.000  -0.000   0.000   0.000
  0.000  -0.000  -0.000   0.000   0.000   0.000  -0.000  -0.000
 total augmentation occupancy for first ion, spin component:           1
  4.321  -0.000  -0.000  -0.000   0.000  -2.255   0.000  -0.000   0.000   0.000   0.000  -0.000   0.000   0.000  -0.000   0.000
 -0.000   4.321   0.000  -0.000   0.000   0.000  -2.255   0.000   0.000  -0.000   0.000   0.000   0.000   0.000   0.000  -0.000
 -0.000   0.000   4.173   0.000   0.000   0.000  -0.000  -1.925  -0.000  -0.000   0.000  -0.000  -0.000   0.000  -0.000  -0.000
 -0.000  -0.000   0.000   4.321  -0.000   0.000   0.000  -0.000  -2.255  -0.000   0.000  -0.000  -0.000   0.000  -0.000   0.000
  0.000   0.000   0.000  -0.000   4.173  -0.000  -0.000   0.000   0.000  -1.925  -0.000   0.000  -0.000  -0.000   0.000   0.000
 -2.255   0.000   0.000   0.000  -0.000   2.106  -0.000  -0.000  -0.000   0.000  -0.000   0.000   0.000  -0.000   0.000  -0.000
  0.000  -2.255  -0.000   0.000  -0.000  -0.000   2.106  -0.000  -0.000   0.000   0.000  -0.000  -0.000  -0.000  -0.000  -0.000
 -0.000   0.000  -1.925  -0.000   0.000  -0.000  -0.000   1.644   0.000  -0.000  -0.000   0.000   0.000   0.000   0.000  -0.000
  0.000   0.000  -0.000  -2.255   0.000  -0.000  -0.000   0.000   2.106   0.000  -0.000   0.000   0.000  -0.000   0.000  -0.000
  0.000  -0.000  -0.000  -0.000  -1.925   0.000   0.000  -0.000   0.000   1.644  -0.000   0.000  -0.000   0.000  -0.000   0.000
  0.000   0.000   0.000   0.000  -0.000  -0.000   0.000  -0.000  -0.000  -0.000   2.302  -0.559  -0.000  -0.000   0.000   0.000
 -0.000   0.000  -0.000  -0.000   0.000   0.000  -0.000   0.000   0.000   0.000  -0.559   0.178   0.000   0.000  -0.000  -0.000
  0.000   0.000  -0.000  -0.000  -0.000   0.000  -0.000   0.000   0.000  -0.000  -0.000   0.000   0.149  -0.000   0.000  -0.005
  0.000   0.000   0.000   0.000  -0.000  -0.000  -0.000   0.000  -0.000   0.000  -0.000   0.000  -0.000   0.149   0.000   0.000
 -0.000   0.000  -0.000  -0.000   0.000   0.000  -0.000   0.000   0.000  -0.000   0.000  -0.000   0.000   0.000   0.149  -0.000
  0.000  -0.000  -0.000   0.000   0.000  -0.000  -0.000  -0.000  -0.000   0.000   0.000  -0.000  -0.005   0.000  -0.000   0.000
 -0.000   0.000   0.000  -0.000  -0.000   0.000  -0.000  -0.000   0.000   0.000   0.000  -0.000  -0.000  -0.005  -0.000  -0.000
 -0.000  -0.000   0.000  -0.000  -0.000   0.000  -0.000  -0.000   0.000   0.000  -0.000   0.000  -0.000  -0.000  -0.005   0.000


------------------------ aborting loop because EDIFF is reached ----------------------------------------


    CHARGE:  cpu time    0.9339: real time    0.9362
    FORLOC:  cpu time    0.0010: real time    0.0032
    FORNL :  cpu time    2.7996: real time    2.8086
    STRESS:  cpu time    5.2142: real time    5.2334
    FORCOR:  cpu time    0.0090: real time    0.0150
    FORHAR:  cpu time    0.0020: real time    0.0045
    MIXING:  cpu time    0.0000: real time    0.0005
    OFIELD:  cpu time    0.0020: real time    0.0028

  FORCE on cell =-STRESS in cart. coord.  units (eV):
  Direction    XX          YY          ZZ          XY          YZ          ZX
  --------------------------------------------------------------------------------------
  Alpha Z   247.00436   247.00436   247.00436
  Ewald   -1260.34151 -1260.34149 -1260.34149     0.00001    -0.00005     0.00002
  Hartree   168.49626   168.49626   168.49626     0.00000    -0.00002     0.00001
  E(xc)    -197.62639  -197.62639  -197.62639     0.00000    -0.00000     0.00000
  Local     163.23773   163.23770   163.23771    -0.00001     0.00007    -0.00003
  n-local    -7.57894    -7.57894    -7.57894    -0.00000     0.00000    -0.00000
  augment   271.67569   271.67569   271.67569    -0.00000     0.00000     0.00000
  Kinetic   612.29044   612.29044   612.29044    -0.00000     0.00000    -0.00000
  Fock        0.00000     0.00000     0.00000     0.00000     0.00000     0.00000
  -------------------------------------------------------------------------------------
  Total      -2.84237    -2.84236    -2.84236    -0.00000     0.00000     0.00000
  in kB     -60.35673   -60.35664   -60.35664    -0.00002     0.00000     0.00003
  external pressure =      -60.36 kB  Pullay stress =        0.00 kB


 VOLUME and BASIS-vectors are now :
 -----------------------------------------------------------------------------
  energy-cutoff  :      500.00
  volume of cell :       75.45
      direct lattice vectors                 reciprocal lattice vectors
     4.225600602 -0.000000030 -0.000000063     0.236652749  0.000000002  0.000000004
    -0.000000030  4.225600192  0.000000141     0.000000002  0.236652772 -0.000000008
    -0.000000063  0.000000140  4.225600257     0.000000004 -0.000000008  0.236652769

  length of vectors
     4.225600602  4.225600192  4.225600257     0.236652749  0.236652772  0.236652769


 FORCES acting on ions
    electron-ion (+dipol)            ewald-force                    non-local-force                 convergence-correction
 -----------------------------------------------------------------------------------------------
   0.127E-05 -.163E-06 0.226E-05   -.148E-05 0.264E-06 -.231E-05   0.843E-06 0.474E-07 0.331E-06   -.664E-06 0.116E-06 -.143E-06
   0.371E-05 0.316E-06 0.121E-05   -.302E-05 0.147E-06 -.631E-06   0.983E-07 -.527E-06 -.474E-06   -.559E-06 -.128E-06 0.200E-06
   -.208E-05 -.169E-05 -.281E-05   0.167E-05 0.186E-05 0.195E-05   -.178E-06 -.522E-06 0.818E-06   0.655E-06 0.417E-06 -.280E-06
   -.299E-05 0.236E-05 -.838E-06   0.283E-05 -.228E-05 0.993E-06   -.644E-06 0.177E-06 -.431E-06   0.566E-06 -.429E-06 0.168E-06
 -----------------------------------------------------------------------------------------------
   -.915E-07 0.827E-06 -.172E-06   0.260E-14 0.280E-14 -.335E-14   0.119E-06 -.825E-06 0.244E-06   -.204E-08 -.241E-07 -.543E-07
 
 
 POSITION                                       TOTAL-FORCE (eV/Angst)
 -----------------------------------------------------------------------------------
      4.22560     -0.00000     -0.00000        -0.000000      0.000000      0.000000
     -0.00000      2.11280      2.11280         0.000000     -0.000000      0.000000
      2.11280      4.22560      2.11280         0.000000      0.000000     -0.000000
      2.11280      2.11280      4.22560        -0.000000     -0.000000     -0.000000
 -----------------------------------------------------------------------------------
    total drift:                                0.000000     -0.000000      0.000000


--------------------------------------------------------------------------------------------------------



  FREE ENERGIE OF THE ION-ELECTRON SYSTEM (eV)
  ---------------------------------------------------
  free  energy   TOTEN  =       -12.81561373 eV

  energy  without entropy=      -12.81055146  energy(sigma->0) =      -12.81308260
 


--------------------------------------------------------------------------------------------------------


    POTLOK:  cpu time    0.0140: real time    0.0186


--------------------------------------------------------------------------------------------------------


 stress matrix after NEB project (eV)
     -2.84237     -0.00000      0.00000
     -0.00000     -2.84236      0.00000
      0.00000      0.00000     -2.84236
  FORCES: max atom, RMS     0.000000    0.000000
  FORCE total and by dimension    0.000001    0.000000
  Stress total and by dimension    4.923122    2.842368


--------------------------------------------------------------------------------------------------------


  
 reached required accuracy - stopping structural energy minimisation
     LOOP+:  cpu time  236.8630: real time  238.0647
    4ORBIT:  cpu time    0.0000: real time    0.0000

 total amount of memory used by VASP MPI-rank0   159681. kBytes
=======================================================================

   base      :      30000. kBytes
   nonl-proj :      61999. kBytes
   fftplans  :        541. kBytes
   grid      :        768. kBytes
   one-center:         15. kBytes
   wavefun   :      66358. kBytes
 
  
  
 General timing and accounting informations for this job:
 ========================================================
  
                  Total CPU time used (sec):      250.936
                            User time (sec):      245.598
                          System time (sec):        5.338
                         Elapsed time (sec):      254.756
  
                   Maximum memory used (kb):      240104.
                   Average memory used (kb):           0.
  
                          Minor page faults:        66202
                          Major page faults:          359
                 Voluntary context switches:         8995
