   4   4   0   0
  0.1508939E+02  0.3811646E-09  0.3811646E-09  0.4154382E-09  0.2000000E-15
  1.000000000000000E-004
  CAR 
 unknown system                          
     23.87186771     -0.68500511  301     11.72090140      1.00000000
     -0.685  0.0000E+00  0.0000E+00
     -0.603  0.0000E+00  0.0000E+00
     -0.521  0.0000E+00  0.0000E+00
     -0.439  0.0000E+00  0.0000E+00
     -0.358  0.0000E+00  0.0000E+00
     -0.276  0.0000E+00  0.0000E+00
     -0.194  0.0000E+00  0.0000E+00
     -0.112  0.5666E-18  0.4638E-19
     -0.030  0.2513E-14  0.2058E-15
      0.052  0.3034E-11  0.2485E-12
      0.134  0.1035E-08  0.8496E-10
      0.215  0.1061E-06  0.8767E-08
      0.297  0.3616E-05  0.3047E-06
      0.379  0.4663E-04  0.4122E-05
      0.461  0.2553E-03  0.2502E-04
      0.543  0.6520E-03  0.7839E-04
      0.625  0.9573E-03  0.1568E-03
      0.707  0.1323E-02  0.2650E-03
      0.788  0.1657E-02  0.4007E-03
      0.870  0.1562E-02  0.5286E-03
      0.952  0.1902E-02  0.6843E-03
      1.034  0.2252E-02  0.8686E-03
      1.116  0.2324E-02  0.1059E-02
      1.198  0.2571E-02  0.1269E-02
      1.280  0.2569E-02  0.1480E-02
      1.361  0.2452E-02  0.1680E-02
      1.443  0.3134E-02  0.1937E-02
      1.525  0.3551E-02  0.2228E-02
      1.607  0.3444E-02  0.2509E-02
      1.689  0.3368E-02  0.2785E-02
      1.771  0.3305E-02  0.3056E-02
      1.853  0.3919E-02  0.3376E-02
      1.934  0.4468E-02  0.3742E-02
      2.016  0.4138E-02  0.4081E-02
      2.098  0.4421E-02  0.4443E-02
      2.180  0.5286E-02  0.4875E-02
      2.262  0.5173E-02  0.5299E-02
      2.344  0.4934E-02  0.5703E-02
      2.426  0.4913E-02  0.6105E-02
      2.507  0.5536E-02  0.6558E-02
      2.589  0.7170E-02  0.7145E-02
      2.671  0.7783E-02  0.7782E-02
      2.753  0.6586E-02  0.8321E-02
      2.835  0.6974E-02  0.8892E-02
      2.917  0.8605E-02  0.9596E-02
      2.999  0.9749E-02  0.1039E-01
      3.080  0.1240E-01  0.1141E-01
      3.162  0.1636E-01  0.1275E-01
      3.244  0.2095E-01  0.1446E-01
      3.326  0.2554E-01  0.1655E-01
      3.408  0.2879E-01  0.1891E-01
      3.490  0.3119E-01  0.2146E-01
      3.572  0.3450E-01  0.2429E-01
      3.653  0.3709E-01  0.2732E-01
      3.735  0.4390E-01  0.3092E-01
      3.817  0.4973E-01  0.3499E-01
      3.899  0.5266E-01  0.3930E-01
      3.981  0.6094E-01  0.4429E-01
      4.063  0.6493E-01  0.4960E-01
      4.145  0.6544E-01  0.5496E-01
      4.226  0.6640E-01  0.6039E-01
      4.308  0.6418E-01  0.6565E-01
      4.390  0.6110E-01  0.7065E-01
      4.472  0.5943E-01  0.7551E-01
      4.554  0.5757E-01  0.8023E-01
      4.636  0.5455E-01  0.8469E-01
      4.718  0.5179E-01  0.8893E-01
      4.799  0.4990E-01  0.9302E-01
      4.881  0.4622E-01  0.9680E-01
      4.963  0.4079E-01  0.1001E+00
      5.045  0.4262E-01  0.1036E+00
      5.127  0.4954E-01  0.1077E+00
      5.209  0.5442E-01  0.1121E+00
      5.291  0.6081E-01  0.1171E+00
      5.372  0.6723E-01  0.1226E+00
      5.454  0.6671E-01  0.1281E+00
      5.536  0.6631E-01  0.1335E+00
      5.618  0.6709E-01  0.1390E+00
      5.700  0.6854E-01  0.1446E+00
      5.782  0.7426E-01  0.1507E+00
      5.863  0.7441E-01  0.1568E+00
      5.945  0.7086E-01  0.1626E+00
      6.027  0.6913E-01  0.1682E+00
      6.109  0.6737E-01  0.1738E+00
      6.191  0.6665E-01  0.1792E+00
      6.273  0.7025E-01  0.1850E+00
      6.355  0.7464E-01  0.1911E+00
      6.436  0.7596E-01  0.1973E+00
      6.518  0.7587E-01  0.2035E+00
      6.600  0.7409E-01  0.2096E+00
      6.682  0.7176E-01  0.2154E+00
      6.764  0.7177E-01  0.2213E+00
      6.846  0.6976E-01  0.2270E+00
      6.928  0.6814E-01  0.2326E+00
      7.009  0.6803E-01  0.2382E+00
      7.091  0.6440E-01  0.2434E+00
      7.173  0.5900E-01  0.2483E+00
      7.255  0.5838E-01  0.2530E+00
      7.337  0.6180E-01  0.2581E+00
      7.419  0.6467E-01  0.2634E+00
      7.501  0.6598E-01  0.2688E+00
      7.582  0.6728E-01  0.2743E+00
      7.664  0.6554E-01  0.2797E+00
      7.746  0.6124E-01  0.2847E+00
      7.828  0.6536E-01  0.2900E+00
      7.910  0.6976E-01  0.2957E+00
      7.992  0.6879E-01  0.3014E+00
      8.074  0.6110E-01  0.3064E+00
      8.155  0.5653E-01  0.3110E+00
      8.237  0.5641E-01  0.3156E+00
      8.319  0.5712E-01  0.3203E+00
      8.401  0.5784E-01  0.3250E+00
      8.483  0.5540E-01  0.3296E+00
      8.565  0.5196E-01  0.3338E+00
      8.647  0.5403E-01  0.3382E+00
      8.728  0.5924E-01  0.3431E+00
      8.810  0.5844E-01  0.3479E+00
      8.892  0.5308E-01  0.3522E+00
      8.974  0.5225E-01  0.3565E+00
      9.056  0.5692E-01  0.3612E+00
      9.138  0.6199E-01  0.3662E+00
      9.220  0.6730E-01  0.3717E+00
      9.301  0.7569E-01  0.3779E+00
      9.383  0.8480E-01  0.3849E+00
      9.465  0.8925E-01  0.3922E+00
      9.547  0.8779E-01  0.3994E+00
      9.629  0.8078E-01  0.4060E+00
      9.711  0.6521E-01  0.4113E+00
      9.793  0.4475E-01  0.4150E+00
      9.874  0.3007E-01  0.4174E+00
      9.956  0.2154E-01  0.4192E+00
     10.038  0.1657E-01  0.4206E+00
     10.120  0.1461E-01  0.4218E+00
     10.202  0.1661E-01  0.4231E+00
     10.284  0.1872E-01  0.4247E+00
     10.366  0.1737E-01  0.4261E+00
     10.447  0.1125E-01  0.4270E+00
     10.529  0.7748E-02  0.4276E+00
     10.611  0.7858E-02  0.4283E+00
     10.693  0.1007E-01  0.4291E+00
     10.775  0.1336E-01  0.4302E+00
     10.857  0.1433E-01  0.4314E+00
     10.939  0.1182E-01  0.4323E+00
     11.020  0.8375E-02  0.4330E+00
     11.102  0.7405E-02  0.4336E+00
     11.184  0.9041E-02  0.4344E+00
     11.266  0.9936E-02  0.4352E+00
     11.348  0.1086E-01  0.4361E+00
     11.430  0.1155E-01  0.4370E+00
     11.512  0.1067E-01  0.4379E+00
     11.593  0.1003E-01  0.4387E+00
     11.675  0.1000E-01  0.4395E+00
     11.757  0.1090E-01  0.4404E+00
     11.839  0.1224E-01  0.4414E+00
     11.921  0.1114E-01  0.4423E+00
     12.003  0.9471E-02  0.4431E+00
     12.085  0.8557E-02  0.4438E+00
     12.166  0.8481E-02  0.4445E+00
     12.248  0.9285E-02  0.4453E+00
     12.330  0.1020E-01  0.4461E+00
     12.412  0.1125E-01  0.4470E+00
     12.494  0.1135E-01  0.4479E+00
     12.576  0.1071E-01  0.4488E+00
     12.658  0.1055E-01  0.4497E+00
     12.739  0.9825E-02  0.4505E+00
     12.821  0.9303E-02  0.4512E+00
     12.903  0.1080E-01  0.4521E+00
     12.985  0.1069E-01  0.4530E+00
     13.067  0.8954E-02  0.4537E+00
     13.149  0.8489E-02  0.4544E+00
     13.231  0.9211E-02  0.4552E+00
     13.312  0.1002E-01  0.4560E+00
     13.394  0.1014E-01  0.4568E+00
     13.476  0.1066E-01  0.4577E+00
     13.558  0.1006E-01  0.4585E+00
     13.640  0.8867E-02  0.4593E+00
     13.722  0.9455E-02  0.4600E+00
     13.804  0.9395E-02  0.4608E+00
     13.885  0.8461E-02  0.4615E+00
     13.967  0.9835E-02  0.4623E+00
     14.049  0.1077E-01  0.4632E+00
     14.131  0.9501E-02  0.4640E+00
     14.213  0.7650E-02  0.4646E+00
     14.295  0.6565E-02  0.4651E+00
     14.377  0.7989E-02  0.4658E+00
     14.458  0.9845E-02  0.4666E+00
     14.540  0.9280E-02  0.4673E+00
     14.622  0.7753E-02  0.4680E+00
     14.704  0.8025E-02  0.4686E+00
     14.786  0.8710E-02  0.4693E+00
     14.868  0.8736E-02  0.4701E+00
     14.950  0.9311E-02  0.4708E+00
     15.031  0.8427E-02  0.4715E+00
     15.113  0.7376E-02  0.4721E+00
     15.195  0.7617E-02  0.4727E+00
     15.277  0.8586E-02  0.4734E+00
     15.359  0.1127E-01  0.4744E+00
     15.441  0.1558E-01  0.4756E+00
     15.523  0.1967E-01  0.4773E+00
     15.604  0.2010E-01  0.4789E+00
     15.686  0.1631E-01  0.4802E+00
     15.768  0.1275E-01  0.4813E+00
     15.850  0.1024E-01  0.4821E+00
     15.932  0.9736E-02  0.4829E+00
     16.014  0.1177E-01  0.4839E+00
     16.096  0.1330E-01  0.4850E+00
     16.177  0.1331E-01  0.4861E+00
     16.259  0.1211E-01  0.4870E+00
     16.341  0.1089E-01  0.4879E+00
     16.423  0.1035E-01  0.4888E+00
     16.505  0.1061E-01  0.4897E+00
     16.587  0.1092E-01  0.4905E+00
     16.669  0.1041E-01  0.4914E+00
     16.750  0.1068E-01  0.4923E+00
     16.832  0.1273E-01  0.4933E+00
     16.914  0.1382E-01  0.4944E+00
     16.996  0.1175E-01  0.4954E+00
     17.078  0.1235E-01  0.4964E+00
     17.160  0.1446E-01  0.4976E+00
     17.242  0.1344E-01  0.4987E+00
     17.323  0.1128E-01  0.4996E+00
     17.405  0.1115E-01  0.5005E+00
     17.487  0.1193E-01  0.5015E+00
     17.569  0.1189E-01  0.5025E+00
     17.651  0.1185E-01  0.5035E+00
     17.733  0.1172E-01  0.5044E+00
     17.815  0.1210E-01  0.5054E+00
     17.896  0.1108E-01  0.5063E+00
     17.978  0.1020E-01  0.5071E+00
     18.060  0.1096E-01  0.5080E+00
     18.142  0.1189E-01  0.5090E+00
     18.224  0.1346E-01  0.5101E+00
     18.306  0.1363E-01  0.5112E+00
     18.387  0.1244E-01  0.5123E+00
     18.469  0.1104E-01  0.5132E+00
     18.551  0.9890E-02  0.5140E+00
     18.633  0.9999E-02  0.5148E+00
     18.715  0.1104E-01  0.5157E+00
     18.797  0.1001E-01  0.5165E+00
     18.879  0.9391E-02  0.5173E+00
     18.960  0.1017E-01  0.5181E+00
     19.042  0.9678E-02  0.5189E+00
     19.124  0.8525E-02  0.5196E+00
     19.206  0.7910E-02  0.5202E+00
     19.288  0.8292E-02  0.5209E+00
     19.370  0.1016E-01  0.5218E+00
     19.452  0.1189E-01  0.5227E+00
     19.533  0.1202E-01  0.5237E+00
     19.615  0.1193E-01  0.5247E+00
     19.697  0.1070E-01  0.5256E+00
     19.779  0.8335E-02  0.5263E+00
     19.861  0.7472E-02  0.5269E+00
     19.943  0.7645E-02  0.5275E+00
     20.025  0.7580E-02  0.5281E+00
     20.106  0.8025E-02  0.5288E+00
     20.188  0.9466E-02  0.5295E+00
     20.270  0.1018E-01  0.5304E+00
     20.352  0.9520E-02  0.5312E+00
     20.434  0.8346E-02  0.5318E+00
     20.516  0.6701E-02  0.5324E+00
     20.598  0.7351E-02  0.5330E+00
     20.679  0.1055E-01  0.5338E+00
     20.761  0.1051E-01  0.5347E+00
     20.843  0.8105E-02  0.5354E+00
     20.925  0.7185E-02  0.5360E+00
     21.007  0.7354E-02  0.5366E+00
     21.089  0.6510E-02  0.5371E+00
     21.171  0.5189E-02  0.5375E+00
     21.252  0.4061E-02  0.5379E+00
     21.334  0.3653E-02  0.5382E+00
     21.416  0.3410E-02  0.5384E+00
     21.498  0.2933E-02  0.5387E+00
     21.580  0.2251E-02  0.5389E+00
     21.662  0.1790E-02  0.5390E+00
     21.744  0.1561E-02  0.5391E+00
     21.825  0.1339E-02  0.5392E+00
     21.907  0.1475E-02  0.5394E+00
     21.989  0.2148E-02  0.5395E+00
     22.071  0.2279E-02  0.5397E+00
     22.153  0.1569E-02  0.5399E+00
     22.235  0.5614E-03  0.5399E+00
     22.317  0.9157E-04  0.5399E+00
     22.398  0.6141E-05  0.5399E+00
     22.480  0.1650E-05  0.5399E+00
     22.562  0.3259E-04  0.5399E+00
     22.644  0.2175E-03  0.5399E+00
     22.726  0.4691E-03  0.5400E+00
     22.808  0.3423E-03  0.5400E+00
     22.890  0.8729E-04  0.5400E+00
     22.971  0.7813E-05  0.5400E+00
     23.053  0.2366E-06  0.5400E+00
     23.135  0.2271E-08  0.5400E+00
     23.217  0.6479E-11  0.5400E+00
     23.299  0.5245E-14  0.5400E+00
     23.381  0.1173E-17  0.5400E+00
     23.463  0.0000E+00  0.5400E+00
     23.544  0.0000E+00  0.5400E+00
     23.626  0.0000E+00  0.5400E+00
     23.708  0.0000E+00  0.5400E+00
     23.790  0.0000E+00  0.5400E+00
     23.872  0.0000E+00  0.5400E+00
