 vasp.5.4.4.18Apr17-6-g9f103f2a35 (build Jan 14 2019 14:48:31) complex          
  
 executed on             LinuxIFC date 2019.09.29  20:27:57
 running on   24 total cores
 distrk:  each k-point on   24 cores,    1 groups
 distr:  one band on NCORES_PER_BAND=   8 cores,    3 groups


--------------------------------------------------------------------------------------------------------


 INCAR:
 POTCAR:    PAW_PBE Au 04Oct2007                  
 POTCAR:    PAW_PBE Au 04Oct2007                  
   VRHFIN =Au: s1d10                                                            
   LEXCH  = PE                                                                  
   EATOM  =   926.0867 eV,   68.0654 Ry                                         
                                                                                
   TITEL  = PAW_PBE Au 04Oct2007                                                
   LULTRA =        F    use ultrasoft PP ?                                      
   IUNSCR =        1    unscreen: 0-lin 1-nonlin 2-no                           
   RPACOR =    2.330    partial core radius                                     
   POMASS =  196.966; ZVAL   =   11.000    mass and valenz                      
   RCORE  =    2.500    outmost cutoff radius                                   
   RWIGS  =    2.840; RWIGS  =    1.503    wigner-seitz radius (au A)           
   ENMAX  =  229.943; ENMIN  =  172.457 eV                                      
   ICORE  =        3    local potential                                         
   LCOR   =        T    correct aug charges                                     
   LPAW   =        T    paw PP                                                  
   EAUG   =  356.670                                                            
   DEXC   =    0.000                                                            
   RMAX   =    2.562    core radius for proj-oper                               
   RAUG   =    1.300    factor for augmentation sphere                          
   RDEP   =    2.598    radius for radial grids                                 
   RDEPT  =    2.193    core radius for aug-charge                              
                                                                                
   Atomic configuration                                                         
   16 entries                                                                   
     n  l   j            E        occ.                                          
     1  0  0.50    -80748.5001   2.0000                                         
     2  0  0.50    -14244.7466   2.0000                                         
     2  1  1.50    -12310.9591   6.0000                                         
     3  0  0.50     -3362.1768   2.0000                                         
     3  1  1.50     -2801.5463   6.0000                                         
     3  2  2.50     -2203.8206  10.0000                                         
     4  0  0.50      -729.8168   2.0000                                         
     4  1  1.50      -546.0527   6.0000                                         
     4  2  2.50      -325.7302  10.0000                                         
     4  3  3.50       -81.1472  14.0000                                         
     5  0  0.50      -108.3201   2.0000                                         
     5  1  1.50       -59.7479   6.0000                                         
     5  2  2.50        -6.8783  10.0000                                         
     6  0  0.50        -5.7602   1.0000                                         
     6  1  1.50        -6.8029   0.0000                                         
     5  3  2.50        -1.3606   0.0000                                         
   Description                                                                  
     l       E           TYP  RCUT    TYP  RCUT                                 
     2     -6.8782861     23  2.500                                             
     2     -8.2388687     23  2.500                                             
     0     -5.7601759     23  2.500                                             
     0     -0.8493231     23  2.500                                             
     1     -2.7211652     23  2.500                                             
     1     27.2116520     23  2.500                                             
     3     -1.3605826     23  2.500                                             
  local pseudopotential read in
  partial core-charges read in
  partial kinetic energy density read in
  atomic valenz-charges read in
  non local Contribution for L=           2  read in
    real space projection operators read in
  non local Contribution for L=           2  read in
    real space projection operators read in
  non local Contribution for L=           0  read in
    real space projection operators read in
  non local Contribution for L=           0  read in
    real space projection operators read in
  non local Contribution for L=           1  read in
    real space projection operators read in
  non local Contribution for L=           1  read in
    real space projection operators read in
    PAW grid and wavefunctions read in
 
   number of l-projection  operators is LMAX  =           6
   number of lm-projection operators is LMMAX =          18
 
  PAW_PBE Au 04Oct2007                  :
 energy of atom  1       EATOM= -926.0867
 kinetic energy error for atom=    0.0042 (will be added to EATOM!!)
 
 
 POSCAR: Au4                                     
  positions in direct lattice
  velocities in cartesian coordinates
 exchange correlation table for  LEXCH =        8
   RHO(1)=    0.500       N(1)  =     2000
   RHO(2)=  100.500       N(2)  =     4000

 VTST: version 3.1, (03/28/14)

 CHAIN: initializing optimizer
 
 OPT: Using VASP Conjugate-Gradient optimizer
 CHAIN: Read ICHAIN            0
 
 POSCAR: Au4                                     
  positions in direct lattice
  velocities in cartesian coordinates
 


--------------------------------------------------------------------------------------------------------


 ion  position               nearest neighbor table
   1  1.000  0.000  0.000-   4 2.70   4 2.70   4 2.70   4 2.70   2 2.82   2 2.82   3 2.82   2 2.82
                             3 2.82   2 2.82   3 2.82   3 2.82
   2  0.000  0.500  0.500-   3 2.70   3 2.70   3 2.70   3 2.70   1 2.82   1 2.82   4 2.82   1 2.82
                             1 2.82   4 2.82   4 2.82   4 2.82
   3  0.500  1.000  0.500-   2 2.70   2 2.70   2 2.70   2 2.70   4 2.82   4 2.82   1 2.82   4 2.82
                             1 2.82   4 2.82   1 2.82   1 2.82
   4  0.500  0.500  1.000-   1 2.70   1 2.70   1 2.70   1 2.70   3 2.82   3 2.82   2 2.82   3 2.82
                             2 2.82   3 2.82   2 2.82   2 2.82
 

IMPORTANT INFORMATION: All symmetrisations will be switched off!
NOSYMM: (Re-)initialisation of all symmetry stuff for point group C_1.

 
 
 KPOINTS: automatic-generation                    

Automatic generation of k-mesh.
Space group operators:
 irot       det(A)        alpha          n_x          n_y          n_z        tau_x        tau_y        tau_z
    1     1.000000     0.000000     1.000000     0.000000     0.000000     0.000000     0.000000     0.000000
 
 Subroutine IBZKPT returns following result:
 ===========================================
 
 Found   1688 irreducible k-points:
 
 Following reciprocal coordinates:
            Coordinates               Weight
  0.000000  0.000000  0.000000      1.000000
  0.066667  0.000000  0.000000      2.000000
  0.133333  0.000000  0.000000      2.000000
  0.200000 -0.000000  0.000000      2.000000
  0.266667  0.000000  0.000000      2.000000
  0.333333  0.000000  0.000000      2.000000
  0.400000 -0.000000  0.000000      2.000000
  0.466667  0.000000  0.000000      2.000000
 -0.000000  0.066667 -0.000000      2.000000
  0.066667  0.066667 -0.000000      2.000000
  0.133333  0.066667 -0.000000      2.000000
  0.200000  0.066667  0.000000      2.000000
  0.266667  0.066667  0.000000      2.000000
  0.333333  0.066667  0.000000      2.000000
  0.400000  0.066667  0.000000      2.000000
  0.466667  0.066667  0.000000      2.000000
 -0.466667  0.066667 -0.000000      2.000000
 -0.400000  0.066667 -0.000000      2.000000
 -0.333333  0.066667 -0.000000      2.000000
 -0.266667  0.066667 -0.000000      2.000000
 -0.200000  0.066667 -0.000000      2.000000
 -0.133333  0.066667 -0.000000      2.000000
 -0.066667  0.066667  0.000000      2.000000
 -0.000000  0.133333 -0.000000      2.000000
  0.066667  0.133333  0.000000      2.000000
  0.133333  0.133333 -0.000000      2.000000
  0.200000  0.133333  0.000000      2.000000
  0.266667  0.133333 -0.000000      2.000000
  0.333333  0.133333 -0.000000      2.000000
  0.400000  0.133333  0.000000      2.000000
  0.466667  0.133333  0.000000      2.000000
 -0.466667  0.133333  0.000000      2.000000
 -0.400000  0.133333 -0.000000      2.000000
 -0.333333  0.133333 -0.000000      2.000000
 -0.266667  0.133333 -0.000000      2.000000
 -0.200000  0.133333 -0.000000      2.000000
 -0.133333  0.133333  0.000000      2.000000
 -0.066667  0.133333 -0.000000      2.000000
 -0.000000  0.200000 -0.000000      2.000000
  0.066667  0.200000 -0.000000      2.000000
  0.133333  0.200000 -0.000000      2.000000
  0.200000  0.200000 -0.000000      2.000000
  0.266667  0.200000 -0.000000      2.000000
  0.333333  0.200000  0.000000      2.000000
  0.400000  0.200000  0.000000      2.000000
  0.466667  0.200000  0.000000      2.000000
 -0.466667  0.200000 -0.000000      2.000000
 -0.400000  0.200000 -0.000000      2.000000
 -0.333333  0.200000 -0.000000      2.000000
 -0.266667  0.200000 -0.000000      2.000000
 -0.200000  0.200000 -0.000000      2.000000
 -0.133333  0.200000 -0.000000      2.000000
 -0.066667  0.200000 -0.000000      2.000000
 -0.000000  0.266667 -0.000000      2.000000
  0.066667  0.266667 -0.000000      2.000000
  0.133333  0.266667  0.000000      2.000000
  0.200000  0.266667 -0.000000      2.000000
  0.266667  0.266667 -0.000000      2.000000
  0.333333  0.266667 -0.000000      2.000000
  0.400000  0.266667 -0.000000      2.000000
  0.466667  0.266667 -0.000000      2.000000
 -0.466667  0.266667 -0.000000      2.000000
 -0.400000  0.266667 -0.000000      2.000000
 -0.333333  0.266667 -0.000000      2.000000
 -0.266667  0.266667 -0.000000      2.000000
 -0.200000  0.266667 -0.000000      2.000000
 -0.133333  0.266667 -0.000000      2.000000
 -0.066667  0.266667 -0.000000      2.000000
  0.000000  0.333333 -0.000000      2.000000
  0.066667  0.333333 -0.000000      2.000000
  0.133333  0.333333  0.000000      2.000000
  0.200000  0.333333 -0.000000      2.000000
  0.266667  0.333333 -0.000000      2.000000
  0.333333  0.333333 -0.000000      2.000000
  0.400000  0.333333 -0.000000      2.000000
  0.466667  0.333333 -0.000000      2.000000
 -0.466667  0.333333 -0.000000      2.000000
 -0.400000  0.333333 -0.000000      2.000000
 -0.333333  0.333333 -0.000000      2.000000
 -0.266667  0.333333 -0.000000      2.000000
 -0.200000  0.333333 -0.000000      2.000000
 -0.133333  0.333333 -0.000000      2.000000
 -0.066667  0.333333 -0.000000      2.000000
 -0.000000  0.400000 -0.000000      2.000000
  0.066667  0.400000 -0.000000      2.000000
  0.133333  0.400000 -0.000000      2.000000
  0.200000  0.400000 -0.000000      2.000000
  0.266667  0.400000 -0.000000      2.000000
  0.333333  0.400000 -0.000000      2.000000
  0.400000  0.400000 -0.000000      2.000000
  0.466667  0.400000 -0.000000      2.000000
 -0.466667  0.400000 -0.000000      2.000000
 -0.400000  0.400000 -0.000000      2.000000
 -0.333333  0.400000 -0.000000      2.000000
 -0.266667  0.400000 -0.000000      2.000000
 -0.200000  0.400000 -0.000000      2.000000
 -0.133333  0.400000 -0.000000      2.000000
 -0.066667  0.400000 -0.000000      2.000000
 -0.000000  0.466667  0.000000      2.000000
  0.066667  0.466667 -0.000000      2.000000
  0.133333  0.466667  0.000000      2.000000
  0.200000  0.466667  0.000000      2.000000
  0.266667  0.466667 -0.000000      2.000000
  0.333333  0.466667  0.000000      2.000000
  0.400000  0.466667  0.000000      2.000000
  0.466667  0.466667 -0.000000      2.000000
 -0.466667  0.466667  0.000000      2.000000
 -0.400000  0.466667 -0.000000      2.000000
 -0.333333  0.466667 -0.000000      2.000000
 -0.266667  0.466667  0.000000      2.000000
 -0.200000  0.466667  0.000000      2.000000
 -0.133333  0.466667 -0.000000      2.000000
 -0.066667  0.466667  0.000000      2.000000
 -0.000000  0.000000  0.066667      2.000000
  0.066667 -0.000000  0.066667      2.000000
  0.133333  0.000000  0.066667      2.000000
  0.200000  0.000000  0.066667      2.000000
  0.266667 -0.000000  0.066667      2.000000
  0.333333 -0.000000  0.066667      2.000000
  0.400000 -0.000000  0.066667      2.000000
  0.466667  0.000000  0.066667      2.000000
 -0.466667 -0.000000  0.066667      2.000000
 -0.400000 -0.000000  0.066667      2.000000
 -0.333333 -0.000000  0.066667      2.000000
 -0.266667 -0.000000  0.066667      2.000000
 -0.200000 -0.000000  0.066667      2.000000
 -0.133333 -0.000000  0.066667      2.000000
 -0.066667 -0.000000  0.066667      2.000000
 -0.000000  0.066667  0.066667      2.000000
  0.066667  0.066667  0.066667      2.000000
  0.133333  0.066667  0.066667      2.000000
  0.200000  0.066667  0.066667      2.000000
  0.266667  0.066667  0.066667      2.000000
  0.333333  0.066667  0.066667      2.000000
  0.400000  0.066667  0.066667      2.000000
  0.466667  0.066667  0.066667      2.000000
 -0.466667  0.066667  0.066667      2.000000
 -0.400000  0.066667  0.066667      2.000000
 -0.333333  0.066667  0.066667      2.000000
 -0.266667  0.066667  0.066667      2.000000
 -0.200000  0.066667  0.066667      2.000000
 -0.133333  0.066667  0.066667      2.000000
 -0.066667  0.066667  0.066667      2.000000
 -0.000000  0.133333  0.066667      2.000000
  0.066667  0.133333  0.066667      2.000000
  0.133333  0.133333  0.066667      2.000000
  0.200000  0.133333  0.066667      2.000000
  0.266667  0.133333  0.066667      2.000000
  0.333333  0.133333  0.066667      2.000000
  0.400000  0.133333  0.066667      2.000000
  0.466667  0.133333  0.066667      2.000000
 -0.466667  0.133333  0.066667      2.000000
 -0.400000  0.133333  0.066667      2.000000
 -0.333333  0.133333  0.066667      2.000000
 -0.266667  0.133333  0.066667      2.000000
 -0.200000  0.133333  0.066667      2.000000
 -0.133333  0.133333  0.066667      2.000000
 -0.066667  0.133333  0.066667      2.000000
 -0.000000  0.200000  0.066667      2.000000
  0.066667  0.200000  0.066667      2.000000
  0.133333  0.200000  0.066667      2.000000
  0.200000  0.200000  0.066667      2.000000
  0.266667  0.200000  0.066667      2.000000
  0.333333  0.200000  0.066667      2.000000
  0.400000  0.200000  0.066667      2.000000
  0.466667  0.200000  0.066667      2.000000
 -0.466667  0.200000  0.066667      2.000000
 -0.400000  0.200000  0.066667      2.000000
 -0.333333  0.200000  0.066667      2.000000
 -0.266667  0.200000  0.066667      2.000000
 -0.200000  0.200000  0.066667      2.000000
 -0.133333  0.200000  0.066667      2.000000
 -0.066667  0.200000  0.066667      2.000000
  0.000000  0.266667  0.066667      2.000000
  0.066667  0.266667  0.066667      2.000000
  0.133333  0.266667  0.066667      2.000000
  0.200000  0.266667  0.066667      2.000000
  0.266667  0.266667  0.066667      2.000000
  0.333333  0.266667  0.066667      2.000000
  0.400000  0.266667  0.066667      2.000000
  0.466667  0.266667  0.066667      2.000000
 -0.466667  0.266667  0.066667      2.000000
 -0.400000  0.266667  0.066667      2.000000
 -0.333333  0.266667  0.066667      2.000000
 -0.266667  0.266667  0.066667      2.000000
 -0.200000  0.266667  0.066667      2.000000
 -0.133333  0.266667  0.066667      2.000000
 -0.066667  0.266667  0.066667      2.000000
 -0.000000  0.333333  0.066667      2.000000
  0.066667  0.333333  0.066667      2.000000
  0.133333  0.333333  0.066667      2.000000
  0.200000  0.333333  0.066667      2.000000
  0.266667  0.333333  0.066667      2.000000
  0.333333  0.333333  0.066667      2.000000
  0.400000  0.333333  0.066667      2.000000
  0.466667  0.333333  0.066667      2.000000
 -0.466667  0.333333  0.066667      2.000000
 -0.400000  0.333333  0.066667      2.000000
 -0.333333  0.333333  0.066667      2.000000
 -0.266667  0.333333  0.066667      2.000000
 -0.200000  0.333333  0.066667      2.000000
 -0.133333  0.333333  0.066667      2.000000
 -0.066667  0.333333  0.066667      2.000000
  0.000000  0.400000  0.066667      2.000000
  0.066667  0.400000  0.066667      2.000000
  0.133333  0.400000  0.066667      2.000000
  0.200000  0.400000  0.066667      2.000000
  0.266667  0.400000  0.066667      2.000000
  0.333333  0.400000  0.066667      2.000000
  0.400000  0.400000  0.066667      2.000000
  0.466667  0.400000  0.066667      2.000000
 -0.466667  0.400000  0.066667      2.000000
 -0.400000  0.400000  0.066667      2.000000
 -0.333333  0.400000  0.066667      2.000000
 -0.266667  0.400000  0.066667      2.000000
 -0.200000  0.400000  0.066667      2.000000
 -0.133333  0.400000  0.066667      2.000000
 -0.066667  0.400000  0.066667      2.000000
 -0.000000  0.466667  0.066667      2.000000
  0.066667  0.466667  0.066667      2.000000
  0.133333  0.466667  0.066667      2.000000
  0.200000  0.466667  0.066667      2.000000
  0.266667  0.466667  0.066667      2.000000
  0.333333  0.466667  0.066667      2.000000
  0.400000  0.466667  0.066667      2.000000
  0.466667  0.466667  0.066667      2.000000
 -0.466667  0.466667  0.066667      2.000000
 -0.400000  0.466667  0.066667      2.000000
 -0.333333  0.466667  0.066667      2.000000
 -0.266667  0.466667  0.066667      2.000000
 -0.200000  0.466667  0.066667      2.000000
 -0.133333  0.466667  0.066667      2.000000
 -0.066667  0.466667  0.066667      2.000000
  0.000000 -0.466667  0.066667      2.000000
  0.066667 -0.466667  0.066667      2.000000
  0.133333 -0.466667  0.066667      2.000000
  0.200000 -0.466667  0.066667      2.000000
  0.266667 -0.466667  0.066667      2.000000
  0.333333 -0.466667  0.066667      2.000000
  0.400000 -0.466667  0.066667      2.000000
  0.466667 -0.466667  0.066667      2.000000
 -0.466667 -0.466667  0.066667      2.000000
 -0.400000 -0.466667  0.066667      2.000000
 -0.333333 -0.466667  0.066667      2.000000
 -0.266667 -0.466667  0.066667      2.000000
 -0.200000 -0.466667  0.066667      2.000000
 -0.133333 -0.466667  0.066667      2.000000
 -0.066667 -0.466667  0.066667      2.000000
  0.000000 -0.400000  0.066667      2.000000
  0.066667 -0.400000  0.066667      2.000000
  0.133333 -0.400000  0.066667      2.000000
  0.200000 -0.400000  0.066667      2.000000
  0.266667 -0.400000  0.066667      2.000000
  0.333333 -0.400000  0.066667      2.000000
  0.400000 -0.400000  0.066667      2.000000
  0.466667 -0.400000  0.066667      2.000000
 -0.466667 -0.400000  0.066667      2.000000
 -0.400000 -0.400000  0.066667      2.000000
 -0.333333 -0.400000  0.066667      2.000000
 -0.266667 -0.400000  0.066667      2.000000
 -0.200000 -0.400000  0.066667      2.000000
 -0.133333 -0.400000  0.066667      2.000000
 -0.066667 -0.400000  0.066667      2.000000
  0.000000 -0.333333  0.066667      2.000000
  0.066667 -0.333333  0.066667      2.000000
  0.133333 -0.333333  0.066667      2.000000
  0.200000 -0.333333  0.066667      2.000000
  0.266667 -0.333333  0.066667      2.000000
  0.333333 -0.333333  0.066667      2.000000
  0.400000 -0.333333  0.066667      2.000000
  0.466667 -0.333333  0.066667      2.000000
 -0.466667 -0.333333  0.066667      2.000000
 -0.400000 -0.333333  0.066667      2.000000
 -0.333333 -0.333333  0.066667      2.000000
 -0.266667 -0.333333  0.066667      2.000000
 -0.200000 -0.333333  0.066667      2.000000
 -0.133333 -0.333333  0.066667      2.000000
 -0.066667 -0.333333  0.066667      2.000000
  0.000000 -0.266667  0.066667      2.000000
  0.066667 -0.266667  0.066667      2.000000
  0.133333 -0.266667  0.066667      2.000000
  0.200000 -0.266667  0.066667      2.000000
  0.266667 -0.266667  0.066667      2.000000
  0.333333 -0.266667  0.066667      2.000000
  0.400000 -0.266667  0.066667      2.000000
  0.466667 -0.266667  0.066667      2.000000
 -0.466667 -0.266667  0.066667      2.000000
 -0.400000 -0.266667  0.066667      2.000000
 -0.333333 -0.266667  0.066667      2.000000
 -0.266667 -0.266667  0.066667      2.000000
 -0.200000 -0.266667  0.066667      2.000000
 -0.133333 -0.266667  0.066667      2.000000
 -0.066667 -0.266667  0.066667      2.000000
  0.000000 -0.200000  0.066667      2.000000
  0.066667 -0.200000  0.066667      2.000000
  0.133333 -0.200000  0.066667      2.000000
  0.200000 -0.200000  0.066667      2.000000
  0.266667 -0.200000  0.066667      2.000000
  0.333333 -0.200000  0.066667      2.000000
  0.400000 -0.200000  0.066667      2.000000
  0.466667 -0.200000  0.066667      2.000000
 -0.466667 -0.200000  0.066667      2.000000
 -0.400000 -0.200000  0.066667      2.000000
 -0.333333 -0.200000  0.066667      2.000000
 -0.266667 -0.200000  0.066667      2.000000
 -0.200000 -0.200000  0.066667      2.000000
 -0.133333 -0.200000  0.066667      2.000000
 -0.066667 -0.200000  0.066667      2.000000
 -0.000000 -0.133333  0.066667      2.000000
  0.066667 -0.133333  0.066667      2.000000
  0.133333 -0.133333  0.066667      2.000000
  0.200000 -0.133333  0.066667      2.000000
  0.266667 -0.133333  0.066667      2.000000
  0.333333 -0.133333  0.066667      2.000000
  0.400000 -0.133333  0.066667      2.000000
  0.466667 -0.133333  0.066667      2.000000
 -0.466667 -0.133333  0.066667      2.000000
 -0.400000 -0.133333  0.066667      2.000000
 -0.333333 -0.133333  0.066667      2.000000
 -0.266667 -0.133333  0.066667      2.000000
 -0.200000 -0.133333  0.066667      2.000000
 -0.133333 -0.133333  0.066667      2.000000
 -0.066667 -0.133333  0.066667      2.000000
  0.000000 -0.066667  0.066667      2.000000
  0.066667 -0.066667  0.066667      2.000000
  0.133333 -0.066667  0.066667      2.000000
  0.200000 -0.066667  0.066667      2.000000
  0.266667 -0.066667  0.066667      2.000000
  0.333333 -0.066667  0.066667      2.000000
  0.400000 -0.066667  0.066667      2.000000
  0.466667 -0.066667  0.066667      2.000000
 -0.466667 -0.066667  0.066667      2.000000
 -0.400000 -0.066667  0.066667      2.000000
 -0.333333 -0.066667  0.066667      2.000000
 -0.266667 -0.066667  0.066667      2.000000
 -0.200000 -0.066667  0.066667      2.000000
 -0.133333 -0.066667  0.066667      2.000000
 -0.066667 -0.066667  0.066667      2.000000
 -0.000000 -0.000000  0.133333      2.000000
  0.066667 -0.000000  0.133333      2.000000
  0.133333 -0.000000  0.133333      2.000000
  0.200000 -0.000000  0.133333      2.000000
  0.266667  0.000000  0.133333      2.000000
  0.333333 -0.000000  0.133333      2.000000
  0.400000  0.000000  0.133333      2.000000
  0.466667 -0.000000  0.133333      2.000000
 -0.466667  0.000000  0.133333      2.000000
 -0.400000 -0.000000  0.133333      2.000000
 -0.333333 -0.000000  0.133333      2.000000
 -0.266667  0.000000  0.133333      2.000000
 -0.200000 -0.000000  0.133333      2.000000
 -0.133333 -0.000000  0.133333      2.000000
 -0.066667  0.000000  0.133333      2.000000
  0.000000  0.066667  0.133333      2.000000
  0.066667  0.066667  0.133333      2.000000
  0.133333  0.066667  0.133333      2.000000
  0.200000  0.066667  0.133333      2.000000
  0.266667  0.066667  0.133333      2.000000
  0.333333  0.066667  0.133333      2.000000
  0.400000  0.066667  0.133333      2.000000
  0.466667  0.066667  0.133333      2.000000
 -0.466667  0.066667  0.133333      2.000000
 -0.400000  0.066667  0.133333      2.000000
 -0.333333  0.066667  0.133333      2.000000
 -0.266667  0.066667  0.133333      2.000000
 -0.200000  0.066667  0.133333      2.000000
 -0.133333  0.066667  0.133333      2.000000
 -0.066667  0.066667  0.133333      2.000000
  0.000000  0.133333  0.133333      2.000000
  0.066667  0.133333  0.133333      2.000000
  0.133333  0.133333  0.133333      2.000000
  0.200000  0.133333  0.133333      2.000000
  0.266667  0.133333  0.133333      2.000000
  0.333333  0.133333  0.133333      2.000000
  0.400000  0.133333  0.133333      2.000000
  0.466667  0.133333  0.133333      2.000000
 -0.466667  0.133333  0.133333      2.000000
 -0.400000  0.133333  0.133333      2.000000
 -0.333333  0.133333  0.133333      2.000000
 -0.266667  0.133333  0.133333      2.000000
 -0.200000  0.133333  0.133333      2.000000
 -0.133333  0.133333  0.133333      2.000000
 -0.066667  0.133333  0.133333      2.000000
  0.000000  0.200000  0.133333      2.000000
  0.066667  0.200000  0.133333      2.000000
  0.133333  0.200000  0.133333      2.000000
  0.200000  0.200000  0.133333      2.000000
  0.266667  0.200000  0.133333      2.000000
  0.333333  0.200000  0.133333      2.000000
  0.400000  0.200000  0.133333      2.000000
  0.466667  0.200000  0.133333      2.000000
 -0.466667  0.200000  0.133333      2.000000
 -0.400000  0.200000  0.133333      2.000000
 -0.333333  0.200000  0.133333      2.000000
 -0.266667  0.200000  0.133333      2.000000
 -0.200000  0.200000  0.133333      2.000000
 -0.133333  0.200000  0.133333      2.000000
 -0.066667  0.200000  0.133333      2.000000
  0.000000  0.266667  0.133333      2.000000
  0.066667  0.266667  0.133333      2.000000
  0.133333  0.266667  0.133333      2.000000
  0.200000  0.266667  0.133333      2.000000
  0.266667  0.266667  0.133333      2.000000
  0.333333  0.266667  0.133333      2.000000
  0.400000  0.266667  0.133333      2.000000
  0.466667  0.266667  0.133333      2.000000
 -0.466667  0.266667  0.133333      2.000000
 -0.400000  0.266667  0.133333      2.000000
 -0.333333  0.266667  0.133333      2.000000
 -0.266667  0.266667  0.133333      2.000000
 -0.200000  0.266667  0.133333      2.000000
 -0.133333  0.266667  0.133333      2.000000
 -0.066667  0.266667  0.133333      2.000000
 -0.000000  0.333333  0.133333      2.000000
  0.066667  0.333333  0.133333      2.000000
  0.133333  0.333333  0.133333      2.000000
  0.200000  0.333333  0.133333      2.000000
  0.266667  0.333333  0.133333      2.000000
  0.333333  0.333333  0.133333      2.000000
  0.400000  0.333333  0.133333      2.000000
  0.466667  0.333333  0.133333      2.000000
 -0.466667  0.333333  0.133333      2.000000
 -0.400000  0.333333  0.133333      2.000000
 -0.333333  0.333333  0.133333      2.000000
 -0.266667  0.333333  0.133333      2.000000
 -0.200000  0.333333  0.133333      2.000000
 -0.133333  0.333333  0.133333      2.000000
 -0.066667  0.333333  0.133333      2.000000
  0.000000  0.400000  0.133333      2.000000
  0.066667  0.400000  0.133333      2.000000
  0.133333  0.400000  0.133333      2.000000
  0.200000  0.400000  0.133333      2.000000
  0.266667  0.400000  0.133333      2.000000
  0.333333  0.400000  0.133333      2.000000
  0.400000  0.400000  0.133333      2.000000
  0.466667  0.400000  0.133333      2.000000
 -0.466667  0.400000  0.133333      2.000000
 -0.400000  0.400000  0.133333      2.000000
 -0.333333  0.400000  0.133333      2.000000
 -0.266667  0.400000  0.133333      2.000000
 -0.200000  0.400000  0.133333      2.000000
 -0.133333  0.400000  0.133333      2.000000
 -0.066667  0.400000  0.133333      2.000000
  0.000000  0.466667  0.133333      2.000000
  0.066667  0.466667  0.133333      2.000000
  0.133333  0.466667  0.133333      2.000000
  0.200000  0.466667  0.133333      2.000000
  0.266667  0.466667  0.133333      2.000000
  0.333333  0.466667  0.133333      2.000000
  0.400000  0.466667  0.133333      2.000000
  0.466667  0.466667  0.133333      2.000000
 -0.466667  0.466667  0.133333      2.000000
 -0.400000  0.466667  0.133333      2.000000
 -0.333333  0.466667  0.133333      2.000000
 -0.266667  0.466667  0.133333      2.000000
 -0.200000  0.466667  0.133333      2.000000
 -0.133333  0.466667  0.133333      2.000000
 -0.066667  0.466667  0.133333      2.000000
  0.000000 -0.466667  0.133333      2.000000
  0.066667 -0.466667  0.133333      2.000000
  0.133333 -0.466667  0.133333      2.000000
  0.200000 -0.466667  0.133333      2.000000
  0.266667 -0.466667  0.133333      2.000000
  0.333333 -0.466667  0.133333      2.000000
  0.400000 -0.466667  0.133333      2.000000
  0.466667 -0.466667  0.133333      2.000000
 -0.466667 -0.466667  0.133333      2.000000
 -0.400000 -0.466667  0.133333      2.000000
 -0.333333 -0.466667  0.133333      2.000000
 -0.266667 -0.466667  0.133333      2.000000
 -0.200000 -0.466667  0.133333      2.000000
 -0.133333 -0.466667  0.133333      2.000000
 -0.066667 -0.466667  0.133333      2.000000
  0.000000 -0.400000  0.133333      2.000000
  0.066667 -0.400000  0.133333      2.000000
  0.133333 -0.400000  0.133333      2.000000
  0.200000 -0.400000  0.133333      2.000000
  0.266667 -0.400000  0.133333      2.000000
  0.333333 -0.400000  0.133333      2.000000
  0.400000 -0.400000  0.133333      2.000000
  0.466667 -0.400000  0.133333      2.000000
 -0.466667 -0.400000  0.133333      2.000000
 -0.400000 -0.400000  0.133333      2.000000
 -0.333333 -0.400000  0.133333      2.000000
 -0.266667 -0.400000  0.133333      2.000000
 -0.200000 -0.400000  0.133333      2.000000
 -0.133333 -0.400000  0.133333      2.000000
 -0.066667 -0.400000  0.133333      2.000000
  0.000000 -0.333333  0.133333      2.000000
  0.066667 -0.333333  0.133333      2.000000
  0.133333 -0.333333  0.133333      2.000000
  0.200000 -0.333333  0.133333      2.000000
  0.266667 -0.333333  0.133333      2.000000
  0.333333 -0.333333  0.133333      2.000000
  0.400000 -0.333333  0.133333      2.000000
  0.466667 -0.333333  0.133333      2.000000
 -0.466667 -0.333333  0.133333      2.000000
 -0.400000 -0.333333  0.133333      2.000000
 -0.333333 -0.333333  0.133333      2.000000
 -0.266667 -0.333333  0.133333      2.000000
 -0.200000 -0.333333  0.133333      2.000000
 -0.133333 -0.333333  0.133333      2.000000
 -0.066667 -0.333333  0.133333      2.000000
 -0.000000 -0.266667  0.133333      2.000000
  0.066667 -0.266667  0.133333      2.000000
  0.133333 -0.266667  0.133333      2.000000
  0.200000 -0.266667  0.133333      2.000000
  0.266667 -0.266667  0.133333      2.000000
  0.333333 -0.266667  0.133333      2.000000
  0.400000 -0.266667  0.133333      2.000000
  0.466667 -0.266667  0.133333      2.000000
 -0.466667 -0.266667  0.133333      2.000000
 -0.400000 -0.266667  0.133333      2.000000
 -0.333333 -0.266667  0.133333      2.000000
 -0.266667 -0.266667  0.133333      2.000000
 -0.200000 -0.266667  0.133333      2.000000
 -0.133333 -0.266667  0.133333      2.000000
 -0.066667 -0.266667  0.133333      2.000000
  0.000000 -0.200000  0.133333      2.000000
  0.066667 -0.200000  0.133333      2.000000
  0.133333 -0.200000  0.133333      2.000000
  0.200000 -0.200000  0.133333      2.000000
  0.266667 -0.200000  0.133333      2.000000
  0.333333 -0.200000  0.133333      2.000000
  0.400000 -0.200000  0.133333      2.000000
  0.466667 -0.200000  0.133333      2.000000
 -0.466667 -0.200000  0.133333      2.000000
 -0.400000 -0.200000  0.133333      2.000000
 -0.333333 -0.200000  0.133333      2.000000
 -0.266667 -0.200000  0.133333      2.000000
 -0.200000 -0.200000  0.133333      2.000000
 -0.133333 -0.200000  0.133333      2.000000
 -0.066667 -0.200000  0.133333      2.000000
  0.000000 -0.133333  0.133333      2.000000
  0.066667 -0.133333  0.133333      2.000000
  0.133333 -0.133333  0.133333      2.000000
  0.200000 -0.133333  0.133333      2.000000
  0.266667 -0.133333  0.133333      2.000000
  0.333333 -0.133333  0.133333      2.000000
  0.400000 -0.133333  0.133333      2.000000
  0.466667 -0.133333  0.133333      2.000000
 -0.466667 -0.133333  0.133333      2.000000
 -0.400000 -0.133333  0.133333      2.000000
 -0.333333 -0.133333  0.133333      2.000000
 -0.266667 -0.133333  0.133333      2.000000
 -0.200000 -0.133333  0.133333      2.000000
 -0.133333 -0.133333  0.133333      2.000000
 -0.066667 -0.133333  0.133333      2.000000
  0.000000 -0.066667  0.133333      2.000000
  0.066667 -0.066667  0.133333      2.000000
  0.133333 -0.066667  0.133333      2.000000
  0.200000 -0.066667  0.133333      2.000000
  0.266667 -0.066667  0.133333      2.000000
  0.333333 -0.066667  0.133333      2.000000
  0.400000 -0.066667  0.133333      2.000000
  0.466667 -0.066667  0.133333      2.000000
 -0.466667 -0.066667  0.133333      2.000000
 -0.400000 -0.066667  0.133333      2.000000
 -0.333333 -0.066667  0.133333      2.000000
 -0.266667 -0.066667  0.133333      2.000000
 -0.200000 -0.066667  0.133333      2.000000
 -0.133333 -0.066667  0.133333      2.000000
 -0.066667 -0.066667  0.133333      2.000000
  0.000000 -0.000000  0.200000      2.000000
  0.066667 -0.000000  0.200000      2.000000
  0.133333  0.000000  0.200000      2.000000
  0.200000 -0.000000  0.200000      2.000000
  0.266667  0.000000  0.200000      2.000000
  0.333333  0.000000  0.200000      2.000000
  0.400000  0.000000  0.200000      2.000000
  0.466667 -0.000000  0.200000      2.000000
 -0.466667  0.000000  0.200000      2.000000
 -0.400000 -0.000000  0.200000      2.000000
 -0.333333 -0.000000  0.200000      2.000000
 -0.266667  0.000000  0.200000      2.000000
 -0.200000 -0.000000  0.200000      2.000000
 -0.133333 -0.000000  0.200000      2.000000
 -0.066667  0.000000  0.200000      2.000000
  0.000000  0.066667  0.200000      2.000000
  0.066667  0.066667  0.200000      2.000000
  0.133333  0.066667  0.200000      2.000000
  0.200000  0.066667  0.200000      2.000000
  0.266667  0.066667  0.200000      2.000000
  0.333333  0.066667  0.200000      2.000000
  0.400000  0.066667  0.200000      2.000000
  0.466667  0.066667  0.200000      2.000000
 -0.466667  0.066667  0.200000      2.000000
 -0.400000  0.066667  0.200000      2.000000
 -0.333333  0.066667  0.200000      2.000000
 -0.266667  0.066667  0.200000      2.000000
 -0.200000  0.066667  0.200000      2.000000
 -0.133333  0.066667  0.200000      2.000000
 -0.066667  0.066667  0.200000      2.000000
  0.000000  0.133333  0.200000      2.000000
  0.066667  0.133333  0.200000      2.000000
  0.133333  0.133333  0.200000      2.000000
  0.200000  0.133333  0.200000      2.000000
  0.266667  0.133333  0.200000      2.000000
  0.333333  0.133333  0.200000      2.000000
  0.400000  0.133333  0.200000      2.000000
  0.466667  0.133333  0.200000      2.000000
 -0.466667  0.133333  0.200000      2.000000
 -0.400000  0.133333  0.200000      2.000000
 -0.333333  0.133333  0.200000      2.000000
 -0.266667  0.133333  0.200000      2.000000
 -0.200000  0.133333  0.200000      2.000000
 -0.133333  0.133333  0.200000      2.000000
 -0.066667  0.133333  0.200000      2.000000
  0.000000  0.200000  0.200000      2.000000
  0.066667  0.200000  0.200000      2.000000
  0.133333  0.200000  0.200000      2.000000
  0.200000  0.200000  0.200000      2.000000
  0.266667  0.200000  0.200000      2.000000
  0.333333  0.200000  0.200000      2.000000
  0.400000  0.200000  0.200000      2.000000
  0.466667  0.200000  0.200000      2.000000
 -0.466667  0.200000  0.200000      2.000000
 -0.400000  0.200000  0.200000      2.000000
 -0.333333  0.200000  0.200000      2.000000
 -0.266667  0.200000  0.200000      2.000000
 -0.200000  0.200000  0.200000      2.000000
 -0.133333  0.200000  0.200000      2.000000
 -0.066667  0.200000  0.200000      2.000000
 -0.000000  0.266667  0.200000      2.000000
  0.066667  0.266667  0.200000      2.000000
  0.133333  0.266667  0.200000      2.000000
  0.200000  0.266667  0.200000      2.000000
  0.266667  0.266667  0.200000      2.000000
  0.333333  0.266667  0.200000      2.000000
  0.400000  0.266667  0.200000      2.000000
  0.466667  0.266667  0.200000      2.000000
 -0.466667  0.266667  0.200000      2.000000
 -0.400000  0.266667  0.200000      2.000000
 -0.333333  0.266667  0.200000      2.000000
 -0.266667  0.266667  0.200000      2.000000
 -0.200000  0.266667  0.200000      2.000000
 -0.133333  0.266667  0.200000      2.000000
 -0.066667  0.266667  0.200000      2.000000
 -0.000000  0.333333  0.200000      2.000000
  0.066667  0.333333  0.200000      2.000000
  0.133333  0.333333  0.200000      2.000000
  0.200000  0.333333  0.200000      2.000000
  0.266667  0.333333  0.200000      2.000000
  0.333333  0.333333  0.200000      2.000000
  0.400000  0.333333  0.200000      2.000000
  0.466667  0.333333  0.200000      2.000000
 -0.466667  0.333333  0.200000      2.000000
 -0.400000  0.333333  0.200000      2.000000
 -0.333333  0.333333  0.200000      2.000000
 -0.266667  0.333333  0.200000      2.000000
 -0.200000  0.333333  0.200000      2.000000
 -0.133333  0.333333  0.200000      2.000000
 -0.066667  0.333333  0.200000      2.000000
 -0.000000  0.400000  0.200000      2.000000
  0.066667  0.400000  0.200000      2.000000
  0.133333  0.400000  0.200000      2.000000
  0.200000  0.400000  0.200000      2.000000
  0.266667  0.400000  0.200000      2.000000
  0.333333  0.400000  0.200000      2.000000
  0.400000  0.400000  0.200000      2.000000
  0.466667  0.400000  0.200000      2.000000
 -0.466667  0.400000  0.200000      2.000000
 -0.400000  0.400000  0.200000      2.000000
 -0.333333  0.400000  0.200000      2.000000
 -0.266667  0.400000  0.200000      2.000000
 -0.200000  0.400000  0.200000      2.000000
 -0.133333  0.400000  0.200000      2.000000
 -0.066667  0.400000  0.200000      2.000000
 -0.000000  0.466667  0.200000      2.000000
  0.066667  0.466667  0.200000      2.000000
  0.133333  0.466667  0.200000      2.000000
  0.200000  0.466667  0.200000      2.000000
  0.266667  0.466667  0.200000      2.000000
  0.333333  0.466667  0.200000      2.000000
  0.400000  0.466667  0.200000      2.000000
  0.466667  0.466667  0.200000      2.000000
 -0.466667  0.466667  0.200000      2.000000
 -0.400000  0.466667  0.200000      2.000000
 -0.333333  0.466667  0.200000      2.000000
 -0.266667  0.466667  0.200000      2.000000
 -0.200000  0.466667  0.200000      2.000000
 -0.133333  0.466667  0.200000      2.000000
 -0.066667  0.466667  0.200000      2.000000
  0.000000 -0.466667  0.200000      2.000000
  0.066667 -0.466667  0.200000      2.000000
  0.133333 -0.466667  0.200000      2.000000
  0.200000 -0.466667  0.200000      2.000000
  0.266667 -0.466667  0.200000      2.000000
  0.333333 -0.466667  0.200000      2.000000
  0.400000 -0.466667  0.200000      2.000000
  0.466667 -0.466667  0.200000      2.000000
 -0.466667 -0.466667  0.200000      2.000000
 -0.400000 -0.466667  0.200000      2.000000
 -0.333333 -0.466667  0.200000      2.000000
 -0.266667 -0.466667  0.200000      2.000000
 -0.200000 -0.466667  0.200000      2.000000
 -0.133333 -0.466667  0.200000      2.000000
 -0.066667 -0.466667  0.200000      2.000000
  0.000000 -0.400000  0.200000      2.000000
  0.066667 -0.400000  0.200000      2.000000
  0.133333 -0.400000  0.200000      2.000000
  0.200000 -0.400000  0.200000      2.000000
  0.266667 -0.400000  0.200000      2.000000
  0.333333 -0.400000  0.200000      2.000000
  0.400000 -0.400000  0.200000      2.000000
  0.466667 -0.400000  0.200000      2.000000
 -0.466667 -0.400000  0.200000      2.000000
 -0.400000 -0.400000  0.200000      2.000000
 -0.333333 -0.400000  0.200000      2.000000
 -0.266667 -0.400000  0.200000      2.000000
 -0.200000 -0.400000  0.200000      2.000000
 -0.133333 -0.400000  0.200000      2.000000
 -0.066667 -0.400000  0.200000      2.000000
  0.000000 -0.333333  0.200000      2.000000
  0.066667 -0.333333  0.200000      2.000000
  0.133333 -0.333333  0.200000      2.000000
  0.200000 -0.333333  0.200000      2.000000
  0.266667 -0.333333  0.200000      2.000000
  0.333333 -0.333333  0.200000      2.000000
  0.400000 -0.333333  0.200000      2.000000
  0.466667 -0.333333  0.200000      2.000000
 -0.466667 -0.333333  0.200000      2.000000
 -0.400000 -0.333333  0.200000      2.000000
 -0.333333 -0.333333  0.200000      2.000000
 -0.266667 -0.333333  0.200000      2.000000
 -0.200000 -0.333333  0.200000      2.000000
 -0.133333 -0.333333  0.200000      2.000000
 -0.066667 -0.333333  0.200000      2.000000
 -0.000000 -0.266667  0.200000      2.000000
  0.066667 -0.266667  0.200000      2.000000
  0.133333 -0.266667  0.200000      2.000000
  0.200000 -0.266667  0.200000      2.000000
  0.266667 -0.266667  0.200000      2.000000
  0.333333 -0.266667  0.200000      2.000000
  0.400000 -0.266667  0.200000      2.000000
  0.466667 -0.266667  0.200000      2.000000
 -0.466667 -0.266667  0.200000      2.000000
 -0.400000 -0.266667  0.200000      2.000000
 -0.333333 -0.266667  0.200000      2.000000
 -0.266667 -0.266667  0.200000      2.000000
 -0.200000 -0.266667  0.200000      2.000000
 -0.133333 -0.266667  0.200000      2.000000
 -0.066667 -0.266667  0.200000      2.000000
 -0.000000 -0.200000  0.200000      2.000000
  0.066667 -0.200000  0.200000      2.000000
  0.133333 -0.200000  0.200000      2.000000
  0.200000 -0.200000  0.200000      2.000000
  0.266667 -0.200000  0.200000      2.000000
  0.333333 -0.200000  0.200000      2.000000
  0.400000 -0.200000  0.200000      2.000000
  0.466667 -0.200000  0.200000      2.000000
 -0.466667 -0.200000  0.200000      2.000000
 -0.400000 -0.200000  0.200000      2.000000
 -0.333333 -0.200000  0.200000      2.000000
 -0.266667 -0.200000  0.200000      2.000000
 -0.200000 -0.200000  0.200000      2.000000
 -0.133333 -0.200000  0.200000      2.000000
 -0.066667 -0.200000  0.200000      2.000000
  0.000000 -0.133333  0.200000      2.000000
  0.066667 -0.133333  0.200000      2.000000
  0.133333 -0.133333  0.200000      2.000000
  0.200000 -0.133333  0.200000      2.000000
  0.266667 -0.133333  0.200000      2.000000
  0.333333 -0.133333  0.200000      2.000000
  0.400000 -0.133333  0.200000      2.000000
  0.466667 -0.133333  0.200000      2.000000
 -0.466667 -0.133333  0.200000      2.000000
 -0.400000 -0.133333  0.200000      2.000000
 -0.333333 -0.133333  0.200000      2.000000
 -0.266667 -0.133333  0.200000      2.000000
 -0.200000 -0.133333  0.200000      2.000000
 -0.133333 -0.133333  0.200000      2.000000
 -0.066667 -0.133333  0.200000      2.000000
  0.000000 -0.066667  0.200000      2.000000
  0.066667 -0.066667  0.200000      2.000000
  0.133333 -0.066667  0.200000      2.000000
  0.200000 -0.066667  0.200000      2.000000
  0.266667 -0.066667  0.200000      2.000000
  0.333333 -0.066667  0.200000      2.000000
  0.400000 -0.066667  0.200000      2.000000
  0.466667 -0.066667  0.200000      2.000000
 -0.466667 -0.066667  0.200000      2.000000
 -0.400000 -0.066667  0.200000      2.000000
 -0.333333 -0.066667  0.200000      2.000000
 -0.266667 -0.066667  0.200000      2.000000
 -0.200000 -0.066667  0.200000      2.000000
 -0.133333 -0.066667  0.200000      2.000000
 -0.066667 -0.066667  0.200000      2.000000
  0.000000  0.000000  0.266667      2.000000
  0.066667  0.000000  0.266667      2.000000
  0.133333  0.000000  0.266667      2.000000
  0.200000  0.000000  0.266667      2.000000
  0.266667  0.000000  0.266667      2.000000
  0.333333  0.000000  0.266667      2.000000
  0.400000  0.000000  0.266667      2.000000
  0.466667  0.000000  0.266667      2.000000
 -0.466667 -0.000000  0.266667      2.000000
 -0.400000  0.000000  0.266667      2.000000
 -0.333333  0.000000  0.266667      2.000000
 -0.266667  0.000000  0.266667      2.000000
 -0.200000 -0.000000  0.266667      2.000000
 -0.133333  0.000000  0.266667      2.000000
 -0.066667 -0.000000  0.266667      2.000000
  0.000000  0.066667  0.266667      2.000000
  0.066667  0.066667  0.266667      2.000000
  0.133333  0.066667  0.266667      2.000000
  0.200000  0.066667  0.266667      2.000000
  0.266667  0.066667  0.266667      2.000000
  0.333333  0.066667  0.266667      2.000000
  0.400000  0.066667  0.266667      2.000000
  0.466667  0.066667  0.266667      2.000000
 -0.466667  0.066667  0.266667      2.000000
 -0.400000  0.066667  0.266667      2.000000
 -0.333333  0.066667  0.266667      2.000000
 -0.266667  0.066667  0.266667      2.000000
 -0.200000  0.066667  0.266667      2.000000
 -0.133333  0.066667  0.266667      2.000000
 -0.066667  0.066667  0.266667      2.000000
  0.000000  0.133333  0.266667      2.000000
  0.066667  0.133333  0.266667      2.000000
  0.133333  0.133333  0.266667      2.000000
  0.200000  0.133333  0.266667      2.000000
  0.266667  0.133333  0.266667      2.000000
  0.333333  0.133333  0.266667      2.000000
  0.400000  0.133333  0.266667      2.000000
  0.466667  0.133333  0.266667      2.000000
 -0.466667  0.133333  0.266667      2.000000
 -0.400000  0.133333  0.266667      2.000000
 -0.333333  0.133333  0.266667      2.000000
 -0.266667  0.133333  0.266667      2.000000
 -0.200000  0.133333  0.266667      2.000000
 -0.133333  0.133333  0.266667      2.000000
 -0.066667  0.133333  0.266667      2.000000
  0.000000  0.200000  0.266667      2.000000
  0.066667  0.200000  0.266667      2.000000
  0.133333  0.200000  0.266667      2.000000
  0.200000  0.200000  0.266667      2.000000
  0.266667  0.200000  0.266667      2.000000
  0.333333  0.200000  0.266667      2.000000
  0.400000  0.200000  0.266667      2.000000
  0.466667  0.200000  0.266667      2.000000
 -0.466667  0.200000  0.266667      2.000000
 -0.400000  0.200000  0.266667      2.000000
 -0.333333  0.200000  0.266667      2.000000
 -0.266667  0.200000  0.266667      2.000000
 -0.200000  0.200000  0.266667      2.000000
 -0.133333  0.200000  0.266667      2.000000
 -0.066667  0.200000  0.266667      2.000000
 -0.000000  0.266667  0.266667      2.000000
  0.066667  0.266667  0.266667      2.000000
  0.133333  0.266667  0.266667      2.000000
  0.200000  0.266667  0.266667      2.000000
  0.266667  0.266667  0.266667      2.000000
  0.333333  0.266667  0.266667      2.000000
  0.400000  0.266667  0.266667      2.000000
  0.466667  0.266667  0.266667      2.000000
 -0.466667  0.266667  0.266667      2.000000
 -0.400000  0.266667  0.266667      2.000000
 -0.333333  0.266667  0.266667      2.000000
 -0.266667  0.266667  0.266667      2.000000
 -0.200000  0.266667  0.266667      2.000000
 -0.133333  0.266667  0.266667      2.000000
 -0.066667  0.266667  0.266667      2.000000
  0.000000  0.333333  0.266667      2.000000
  0.066667  0.333333  0.266667      2.000000
  0.133333  0.333333  0.266667      2.000000
  0.200000  0.333333  0.266667      2.000000
  0.266667  0.333333  0.266667      2.000000
  0.333333  0.333333  0.266667      2.000000
  0.400000  0.333333  0.266667      2.000000
  0.466667  0.333333  0.266667      2.000000
 -0.466667  0.333333  0.266667      2.000000
 -0.400000  0.333333  0.266667      2.000000
 -0.333333  0.333333  0.266667      2.000000
 -0.266667  0.333333  0.266667      2.000000
 -0.200000  0.333333  0.266667      2.000000
 -0.133333  0.333333  0.266667      2.000000
 -0.066667  0.333333  0.266667      2.000000
  0.000000  0.400000  0.266667      2.000000
  0.066667  0.400000  0.266667      2.000000
  0.133333  0.400000  0.266667      2.000000
  0.200000  0.400000  0.266667      2.000000
  0.266667  0.400000  0.266667      2.000000
  0.333333  0.400000  0.266667      2.000000
  0.400000  0.400000  0.266667      2.000000
  0.466667  0.400000  0.266667      2.000000
 -0.466667  0.400000  0.266667      2.000000
 -0.400000  0.400000  0.266667      2.000000
 -0.333333  0.400000  0.266667      2.000000
 -0.266667  0.400000  0.266667      2.000000
 -0.200000  0.400000  0.266667      2.000000
 -0.133333  0.400000  0.266667      2.000000
 -0.066667  0.400000  0.266667      2.000000
 -0.000000  0.466667  0.266667      2.000000
  0.066667  0.466667  0.266667      2.000000
  0.133333  0.466667  0.266667      2.000000
  0.200000  0.466667  0.266667      2.000000
  0.266667  0.466667  0.266667      2.000000
  0.333333  0.466667  0.266667      2.000000
  0.400000  0.466667  0.266667      2.000000
  0.466667  0.466667  0.266667      2.000000
 -0.466667  0.466667  0.266667      2.000000
 -0.400000  0.466667  0.266667      2.000000
 -0.333333  0.466667  0.266667      2.000000
 -0.266667  0.466667  0.266667      2.000000
 -0.200000  0.466667  0.266667      2.000000
 -0.133333  0.466667  0.266667      2.000000
 -0.066667  0.466667  0.266667      2.000000
  0.000000 -0.466667  0.266667      2.000000
  0.066667 -0.466667  0.266667      2.000000
  0.133333 -0.466667  0.266667      2.000000
  0.200000 -0.466667  0.266667      2.000000
  0.266667 -0.466667  0.266667      2.000000
  0.333333 -0.466667  0.266667      2.000000
  0.400000 -0.466667  0.266667      2.000000
  0.466667 -0.466667  0.266667      2.000000
 -0.466667 -0.466667  0.266667      2.000000
 -0.400000 -0.466667  0.266667      2.000000
 -0.333333 -0.466667  0.266667      2.000000
 -0.266667 -0.466667  0.266667      2.000000
 -0.200000 -0.466667  0.266667      2.000000
 -0.133333 -0.466667  0.266667      2.000000
 -0.066667 -0.466667  0.266667      2.000000
 -0.000000 -0.400000  0.266667      2.000000
  0.066667 -0.400000  0.266667      2.000000
  0.133333 -0.400000  0.266667      2.000000
  0.200000 -0.400000  0.266667      2.000000
  0.266667 -0.400000  0.266667      2.000000
  0.333333 -0.400000  0.266667      2.000000
  0.400000 -0.400000  0.266667      2.000000
  0.466667 -0.400000  0.266667      2.000000
 -0.466667 -0.400000  0.266667      2.000000
 -0.400000 -0.400000  0.266667      2.000000
 -0.333333 -0.400000  0.266667      2.000000
 -0.266667 -0.400000  0.266667      2.000000
 -0.200000 -0.400000  0.266667      2.000000
 -0.133333 -0.400000  0.266667      2.000000
 -0.066667 -0.400000  0.266667      2.000000
  0.000000 -0.333333  0.266667      2.000000
  0.066667 -0.333333  0.266667      2.000000
  0.133333 -0.333333  0.266667      2.000000
  0.200000 -0.333333  0.266667      2.000000
  0.266667 -0.333333  0.266667      2.000000
  0.333333 -0.333333  0.266667      2.000000
  0.400000 -0.333333  0.266667      2.000000
  0.466667 -0.333333  0.266667      2.000000
 -0.466667 -0.333333  0.266667      2.000000
 -0.400000 -0.333333  0.266667      2.000000
 -0.333333 -0.333333  0.266667      2.000000
 -0.266667 -0.333333  0.266667      2.000000
 -0.200000 -0.333333  0.266667      2.000000
 -0.133333 -0.333333  0.266667      2.000000
 -0.066667 -0.333333  0.266667      2.000000
  0.000000 -0.266667  0.266667      2.000000
  0.066667 -0.266667  0.266667      2.000000
  0.133333 -0.266667  0.266667      2.000000
  0.200000 -0.266667  0.266667      2.000000
  0.266667 -0.266667  0.266667      2.000000
  0.333333 -0.266667  0.266667      2.000000
  0.400000 -0.266667  0.266667      2.000000
  0.466667 -0.266667  0.266667      2.000000
 -0.466667 -0.266667  0.266667      2.000000
 -0.400000 -0.266667  0.266667      2.000000
 -0.333333 -0.266667  0.266667      2.000000
 -0.266667 -0.266667  0.266667      2.000000
 -0.200000 -0.266667  0.266667      2.000000
 -0.133333 -0.266667  0.266667      2.000000
 -0.066667 -0.266667  0.266667      2.000000
  0.000000 -0.200000  0.266667      2.000000
  0.066667 -0.200000  0.266667      2.000000
  0.133333 -0.200000  0.266667      2.000000
  0.200000 -0.200000  0.266667      2.000000
  0.266667 -0.200000  0.266667      2.000000
  0.333333 -0.200000  0.266667      2.000000
  0.400000 -0.200000  0.266667      2.000000
  0.466667 -0.200000  0.266667      2.000000
 -0.466667 -0.200000  0.266667      2.000000
 -0.400000 -0.200000  0.266667      2.000000
 -0.333333 -0.200000  0.266667      2.000000
 -0.266667 -0.200000  0.266667      2.000000
 -0.200000 -0.200000  0.266667      2.000000
 -0.133333 -0.200000  0.266667      2.000000
 -0.066667 -0.200000  0.266667      2.000000
  0.000000 -0.133333  0.266667      2.000000
  0.066667 -0.133333  0.266667      2.000000
  0.133333 -0.133333  0.266667      2.000000
  0.200000 -0.133333  0.266667      2.000000
  0.266667 -0.133333  0.266667      2.000000
  0.333333 -0.133333  0.266667      2.000000
  0.400000 -0.133333  0.266667      2.000000
  0.466667 -0.133333  0.266667      2.000000
 -0.466667 -0.133333  0.266667      2.000000
 -0.400000 -0.133333  0.266667      2.000000
 -0.333333 -0.133333  0.266667      2.000000
 -0.266667 -0.133333  0.266667      2.000000
 -0.200000 -0.133333  0.266667      2.000000
 -0.133333 -0.133333  0.266667      2.000000
 -0.066667 -0.133333  0.266667      2.000000
 -0.000000 -0.066667  0.266667      2.000000
  0.066667 -0.066667  0.266667      2.000000
  0.133333 -0.066667  0.266667      2.000000
  0.200000 -0.066667  0.266667      2.000000
  0.266667 -0.066667  0.266667      2.000000
  0.333333 -0.066667  0.266667      2.000000
  0.400000 -0.066667  0.266667      2.000000
  0.466667 -0.066667  0.266667      2.000000
 -0.466667 -0.066667  0.266667      2.000000
 -0.400000 -0.066667  0.266667      2.000000
 -0.333333 -0.066667  0.266667      2.000000
 -0.266667 -0.066667  0.266667      2.000000
 -0.200000 -0.066667  0.266667      2.000000
 -0.133333 -0.066667  0.266667      2.000000
 -0.066667 -0.066667  0.266667      2.000000
  0.000000 -0.000000  0.333333      2.000000
  0.066667  0.000000  0.333333      2.000000
  0.133333  0.000000  0.333333      2.000000
  0.200000 -0.000000  0.333333      2.000000
  0.266667  0.000000  0.333333      2.000000
  0.333333  0.000000  0.333333      2.000000
  0.400000 -0.000000  0.333333      2.000000
  0.466667  0.000000  0.333333      2.000000
 -0.466667  0.000000  0.333333      2.000000
 -0.400000  0.000000  0.333333      2.000000
 -0.333333 -0.000000  0.333333      2.000000
 -0.266667  0.000000  0.333333      2.000000
 -0.200000 -0.000000  0.333333      2.000000
 -0.133333  0.000000  0.333333      2.000000
 -0.066667 -0.000000  0.333333      2.000000
  0.000000  0.066667  0.333333      2.000000
  0.066667  0.066667  0.333333      2.000000
  0.133333  0.066667  0.333333      2.000000
  0.200000  0.066667  0.333333      2.000000
  0.266667  0.066667  0.333333      2.000000
  0.333333  0.066667  0.333333      2.000000
  0.400000  0.066667  0.333333      2.000000
  0.466667  0.066667  0.333333      2.000000
 -0.466667  0.066667  0.333333      2.000000
 -0.400000  0.066667  0.333333      2.000000
 -0.333333  0.066667  0.333333      2.000000
 -0.266667  0.066667  0.333333      2.000000
 -0.200000  0.066667  0.333333      2.000000
 -0.133333  0.066667  0.333333      2.000000
 -0.066667  0.066667  0.333333      2.000000
 -0.000000  0.133333  0.333333      2.000000
  0.066667  0.133333  0.333333      2.000000
  0.133333  0.133333  0.333333      2.000000
  0.200000  0.133333  0.333333      2.000000
  0.266667  0.133333  0.333333      2.000000
  0.333333  0.133333  0.333333      2.000000
  0.400000  0.133333  0.333333      2.000000
  0.466667  0.133333  0.333333      2.000000
 -0.466667  0.133333  0.333333      2.000000
 -0.400000  0.133333  0.333333      2.000000
 -0.333333  0.133333  0.333333      2.000000
 -0.266667  0.133333  0.333333      2.000000
 -0.200000  0.133333  0.333333      2.000000
 -0.133333  0.133333  0.333333      2.000000
 -0.066667  0.133333  0.333333      2.000000
  0.000000  0.200000  0.333333      2.000000
  0.066667  0.200000  0.333333      2.000000
  0.133333  0.200000  0.333333      2.000000
  0.200000  0.200000  0.333333      2.000000
  0.266667  0.200000  0.333333      2.000000
  0.333333  0.200000  0.333333      2.000000
  0.400000  0.200000  0.333333      2.000000
  0.466667  0.200000  0.333333      2.000000
 -0.466667  0.200000  0.333333      2.000000
 -0.400000  0.200000  0.333333      2.000000
 -0.333333  0.200000  0.333333      2.000000
 -0.266667  0.200000  0.333333      2.000000
 -0.200000  0.200000  0.333333      2.000000
 -0.133333  0.200000  0.333333      2.000000
 -0.066667  0.200000  0.333333      2.000000
 -0.000000  0.266667  0.333333      2.000000
  0.066667  0.266667  0.333333      2.000000
  0.133333  0.266667  0.333333      2.000000
  0.200000  0.266667  0.333333      2.000000
  0.266667  0.266667  0.333333      2.000000
  0.333333  0.266667  0.333333      2.000000
  0.400000  0.266667  0.333333      2.000000
  0.466667  0.266667  0.333333      2.000000
 -0.466667  0.266667  0.333333      2.000000
 -0.400000  0.266667  0.333333      2.000000
 -0.333333  0.266667  0.333333      2.000000
 -0.266667  0.266667  0.333333      2.000000
 -0.200000  0.266667  0.333333      2.000000
 -0.133333  0.266667  0.333333      2.000000
 -0.066667  0.266667  0.333333      2.000000
 -0.000000  0.333333  0.333333      2.000000
  0.066667  0.333333  0.333333      2.000000
  0.133333  0.333333  0.333333      2.000000
  0.200000  0.333333  0.333333      2.000000
  0.266667  0.333333  0.333333      2.000000
  0.333333  0.333333  0.333333      2.000000
  0.400000  0.333333  0.333333      2.000000
  0.466667  0.333333  0.333333      2.000000
 -0.466667  0.333333  0.333333      2.000000
 -0.400000  0.333333  0.333333      2.000000
 -0.333333  0.333333  0.333333      2.000000
 -0.266667  0.333333  0.333333      2.000000
 -0.200000  0.333333  0.333333      2.000000
 -0.133333  0.333333  0.333333      2.000000
 -0.066667  0.333333  0.333333      2.000000
  0.000000  0.400000  0.333333      2.000000
  0.066667  0.400000  0.333333      2.000000
  0.133333  0.400000  0.333333      2.000000
  0.200000  0.400000  0.333333      2.000000
  0.266667  0.400000  0.333333      2.000000
  0.333333  0.400000  0.333333      2.000000
  0.400000  0.400000  0.333333      2.000000
  0.466667  0.400000  0.333333      2.000000
 -0.466667  0.400000  0.333333      2.000000
 -0.400000  0.400000  0.333333      2.000000
 -0.333333  0.400000  0.333333      2.000000
 -0.266667  0.400000  0.333333      2.000000
 -0.200000  0.400000  0.333333      2.000000
 -0.133333  0.400000  0.333333      2.000000
 -0.066667  0.400000  0.333333      2.000000
 -0.000000  0.466667  0.333333      2.000000
  0.066667  0.466667  0.333333      2.000000
  0.133333  0.466667  0.333333      2.000000
  0.200000  0.466667  0.333333      2.000000
  0.266667  0.466667  0.333333      2.000000
  0.333333  0.466667  0.333333      2.000000
  0.400000  0.466667  0.333333      2.000000
  0.466667  0.466667  0.333333      2.000000
 -0.466667  0.466667  0.333333      2.000000
 -0.400000  0.466667  0.333333      2.000000
 -0.333333  0.466667  0.333333      2.000000
 -0.266667  0.466667  0.333333      2.000000
 -0.200000  0.466667  0.333333      2.000000
 -0.133333  0.466667  0.333333      2.000000
 -0.066667  0.466667  0.333333      2.000000
  0.000000 -0.466667  0.333333      2.000000
  0.066667 -0.466667  0.333333      2.000000
  0.133333 -0.466667  0.333333      2.000000
  0.200000 -0.466667  0.333333      2.000000
  0.266667 -0.466667  0.333333      2.000000
  0.333333 -0.466667  0.333333      2.000000
  0.400000 -0.466667  0.333333      2.000000
  0.466667 -0.466667  0.333333      2.000000
 -0.466667 -0.466667  0.333333      2.000000
 -0.400000 -0.466667  0.333333      2.000000
 -0.333333 -0.466667  0.333333      2.000000
 -0.266667 -0.466667  0.333333      2.000000
 -0.200000 -0.466667  0.333333      2.000000
 -0.133333 -0.466667  0.333333      2.000000
 -0.066667 -0.466667  0.333333      2.000000
  0.000000 -0.400000  0.333333      2.000000
  0.066667 -0.400000  0.333333      2.000000
  0.133333 -0.400000  0.333333      2.000000
  0.200000 -0.400000  0.333333      2.000000
  0.266667 -0.400000  0.333333      2.000000
  0.333333 -0.400000  0.333333      2.000000
  0.400000 -0.400000  0.333333      2.000000
  0.466667 -0.400000  0.333333      2.000000
 -0.466667 -0.400000  0.333333      2.000000
 -0.400000 -0.400000  0.333333      2.000000
 -0.333333 -0.400000  0.333333      2.000000
 -0.266667 -0.400000  0.333333      2.000000
 -0.200000 -0.400000  0.333333      2.000000
 -0.133333 -0.400000  0.333333      2.000000
 -0.066667 -0.400000  0.333333      2.000000
  0.000000 -0.333333  0.333333      2.000000
  0.066667 -0.333333  0.333333      2.000000
  0.133333 -0.333333  0.333333      2.000000
  0.200000 -0.333333  0.333333      2.000000
  0.266667 -0.333333  0.333333      2.000000
  0.333333 -0.333333  0.333333      2.000000
  0.400000 -0.333333  0.333333      2.000000
  0.466667 -0.333333  0.333333      2.000000
 -0.466667 -0.333333  0.333333      2.000000
 -0.400000 -0.333333  0.333333      2.000000
 -0.333333 -0.333333  0.333333      2.000000
 -0.266667 -0.333333  0.333333      2.000000
 -0.200000 -0.333333  0.333333      2.000000
 -0.133333 -0.333333  0.333333      2.000000
 -0.066667 -0.333333  0.333333      2.000000
  0.000000 -0.266667  0.333333      2.000000
  0.066667 -0.266667  0.333333      2.000000
  0.133333 -0.266667  0.333333      2.000000
  0.200000 -0.266667  0.333333      2.000000
  0.266667 -0.266667  0.333333      2.000000
  0.333333 -0.266667  0.333333      2.000000
  0.400000 -0.266667  0.333333      2.000000
  0.466667 -0.266667  0.333333      2.000000
 -0.466667 -0.266667  0.333333      2.000000
 -0.400000 -0.266667  0.333333      2.000000
 -0.333333 -0.266667  0.333333      2.000000
 -0.266667 -0.266667  0.333333      2.000000
 -0.200000 -0.266667  0.333333      2.000000
 -0.133333 -0.266667  0.333333      2.000000
 -0.066667 -0.266667  0.333333      2.000000
  0.000000 -0.200000  0.333333      2.000000
  0.066667 -0.200000  0.333333      2.000000
  0.133333 -0.200000  0.333333      2.000000
  0.200000 -0.200000  0.333333      2.000000
  0.266667 -0.200000  0.333333      2.000000
  0.333333 -0.200000  0.333333      2.000000
  0.400000 -0.200000  0.333333      2.000000
  0.466667 -0.200000  0.333333      2.000000
 -0.466667 -0.200000  0.333333      2.000000
 -0.400000 -0.200000  0.333333      2.000000
 -0.333333 -0.200000  0.333333      2.000000
 -0.266667 -0.200000  0.333333      2.000000
 -0.200000 -0.200000  0.333333      2.000000
 -0.133333 -0.200000  0.333333      2.000000
 -0.066667 -0.200000  0.333333      2.000000
 -0.000000 -0.133333  0.333333      2.000000
  0.066667 -0.133333  0.333333      2.000000
  0.133333 -0.133333  0.333333      2.000000
  0.200000 -0.133333  0.333333      2.000000
  0.266667 -0.133333  0.333333      2.000000
  0.333333 -0.133333  0.333333      2.000000
  0.400000 -0.133333  0.333333      2.000000
  0.466667 -0.133333  0.333333      2.000000
 -0.466667 -0.133333  0.333333      2.000000
 -0.400000 -0.133333  0.333333      2.000000
 -0.333333 -0.133333  0.333333      2.000000
 -0.266667 -0.133333  0.333333      2.000000
 -0.200000 -0.133333  0.333333      2.000000
 -0.133333 -0.133333  0.333333      2.000000
 -0.066667 -0.133333  0.333333      2.000000
 -0.000000 -0.066667  0.333333      2.000000
  0.066667 -0.066667  0.333333      2.000000
  0.133333 -0.066667  0.333333      2.000000
  0.200000 -0.066667  0.333333      2.000000
  0.266667 -0.066667  0.333333      2.000000
  0.333333 -0.066667  0.333333      2.000000
  0.400000 -0.066667  0.333333      2.000000
  0.466667 -0.066667  0.333333      2.000000
 -0.466667 -0.066667  0.333333      2.000000
 -0.400000 -0.066667  0.333333      2.000000
 -0.333333 -0.066667  0.333333      2.000000
 -0.266667 -0.066667  0.333333      2.000000
 -0.200000 -0.066667  0.333333      2.000000
 -0.133333 -0.066667  0.333333      2.000000
 -0.066667 -0.066667  0.333333      2.000000
  0.000000 -0.000000  0.400000      2.000000
  0.066667 -0.000000  0.400000      2.000000
  0.133333 -0.000000  0.400000      2.000000
  0.200000  0.000000  0.400000      2.000000
  0.266667  0.000000  0.400000      2.000000
  0.333333  0.000000  0.400000      2.000000
  0.400000 -0.000000  0.400000      2.000000
  0.466667 -0.000000  0.400000      2.000000
 -0.466667  0.000000  0.400000      2.000000
 -0.400000 -0.000000  0.400000      2.000000
 -0.333333 -0.000000  0.400000      2.000000
 -0.266667 -0.000000  0.400000      2.000000
 -0.200000  0.000000  0.400000      2.000000
 -0.133333 -0.000000  0.400000      2.000000
 -0.066667 -0.000000  0.400000      2.000000
  0.000000  0.066667  0.400000      2.000000
  0.066667  0.066667  0.400000      2.000000
  0.133333  0.066667  0.400000      2.000000
  0.200000  0.066667  0.400000      2.000000
  0.266667  0.066667  0.400000      2.000000
  0.333333  0.066667  0.400000      2.000000
  0.400000  0.066667  0.400000      2.000000
  0.466667  0.066667  0.400000      2.000000
 -0.466667  0.066667  0.400000      2.000000
 -0.400000  0.066667  0.400000      2.000000
 -0.333333  0.066667  0.400000      2.000000
 -0.266667  0.066667  0.400000      2.000000
 -0.200000  0.066667  0.400000      2.000000
 -0.133333  0.066667  0.400000      2.000000
 -0.066667  0.066667  0.400000      2.000000
 -0.000000  0.133333  0.400000      2.000000
  0.066667  0.133333  0.400000      2.000000
  0.133333  0.133333  0.400000      2.000000
  0.200000  0.133333  0.400000      2.000000
  0.266667  0.133333  0.400000      2.000000
  0.333333  0.133333  0.400000      2.000000
  0.400000  0.133333  0.400000      2.000000
  0.466667  0.133333  0.400000      2.000000
 -0.466667  0.133333  0.400000      2.000000
 -0.400000  0.133333  0.400000      2.000000
 -0.333333  0.133333  0.400000      2.000000
 -0.266667  0.133333  0.400000      2.000000
 -0.200000  0.133333  0.400000      2.000000
 -0.133333  0.133333  0.400000      2.000000
 -0.066667  0.133333  0.400000      2.000000
  0.000000  0.200000  0.400000      2.000000
  0.066667  0.200000  0.400000      2.000000
  0.133333  0.200000  0.400000      2.000000
  0.200000  0.200000  0.400000      2.000000
  0.266667  0.200000  0.400000      2.000000
  0.333333  0.200000  0.400000      2.000000
  0.400000  0.200000  0.400000      2.000000
  0.466667  0.200000  0.400000      2.000000
 -0.466667  0.200000  0.400000      2.000000
 -0.400000  0.200000  0.400000      2.000000
 -0.333333  0.200000  0.400000      2.000000
 -0.266667  0.200000  0.400000      2.000000
 -0.200000  0.200000  0.400000      2.000000
 -0.133333  0.200000  0.400000      2.000000
 -0.066667  0.200000  0.400000      2.000000
 -0.000000  0.266667  0.400000      2.000000
  0.066667  0.266667  0.400000      2.000000
  0.133333  0.266667  0.400000      2.000000
  0.200000  0.266667  0.400000      2.000000
  0.266667  0.266667  0.400000      2.000000
  0.333333  0.266667  0.400000      2.000000
  0.400000  0.266667  0.400000      2.000000
  0.466667  0.266667  0.400000      2.000000
 -0.466667  0.266667  0.400000      2.000000
 -0.400000  0.266667  0.400000      2.000000
 -0.333333  0.266667  0.400000      2.000000
 -0.266667  0.266667  0.400000      2.000000
 -0.200000  0.266667  0.400000      2.000000
 -0.133333  0.266667  0.400000      2.000000
 -0.066667  0.266667  0.400000      2.000000
 -0.000000  0.333333  0.400000      2.000000
  0.066667  0.333333  0.400000      2.000000
  0.133333  0.333333  0.400000      2.000000
  0.200000  0.333333  0.400000      2.000000
  0.266667  0.333333  0.400000      2.000000
  0.333333  0.333333  0.400000      2.000000
  0.400000  0.333333  0.400000      2.000000
  0.466667  0.333333  0.400000      2.000000
 -0.466667  0.333333  0.400000      2.000000
 -0.400000  0.333333  0.400000      2.000000
 -0.333333  0.333333  0.400000      2.000000
 -0.266667  0.333333  0.400000      2.000000
 -0.200000  0.333333  0.400000      2.000000
 -0.133333  0.333333  0.400000      2.000000
 -0.066667  0.333333  0.400000      2.000000
  0.000000  0.400000  0.400000      2.000000
  0.066667  0.400000  0.400000      2.000000
  0.133333  0.400000  0.400000      2.000000
  0.200000  0.400000  0.400000      2.000000
  0.266667  0.400000  0.400000      2.000000
  0.333333  0.400000  0.400000      2.000000
  0.400000  0.400000  0.400000      2.000000
  0.466667  0.400000  0.400000      2.000000
 -0.466667  0.400000  0.400000      2.000000
 -0.400000  0.400000  0.400000      2.000000
 -0.333333  0.400000  0.400000      2.000000
 -0.266667  0.400000  0.400000      2.000000
 -0.200000  0.400000  0.400000      2.000000
 -0.133333  0.400000  0.400000      2.000000
 -0.066667  0.400000  0.400000      2.000000
 -0.000000  0.466667  0.400000      2.000000
  0.066667  0.466667  0.400000      2.000000
  0.133333  0.466667  0.400000      2.000000
  0.200000  0.466667  0.400000      2.000000
  0.266667  0.466667  0.400000      2.000000
  0.333333  0.466667  0.400000      2.000000
  0.400000  0.466667  0.400000      2.000000
  0.466667  0.466667  0.400000      2.000000
 -0.466667  0.466667  0.400000      2.000000
 -0.400000  0.466667  0.400000      2.000000
 -0.333333  0.466667  0.400000      2.000000
 -0.266667  0.466667  0.400000      2.000000
 -0.200000  0.466667  0.400000      2.000000
 -0.133333  0.466667  0.400000      2.000000
 -0.066667  0.466667  0.400000      2.000000
  0.000000 -0.466667  0.400000      2.000000
  0.066667 -0.466667  0.400000      2.000000
  0.133333 -0.466667  0.400000      2.000000
  0.200000 -0.466667  0.400000      2.000000
  0.266667 -0.466667  0.400000      2.000000
  0.333333 -0.466667  0.400000      2.000000
  0.400000 -0.466667  0.400000      2.000000
  0.466667 -0.466667  0.400000      2.000000
 -0.466667 -0.466667  0.400000      2.000000
 -0.400000 -0.466667  0.400000      2.000000
 -0.333333 -0.466667  0.400000      2.000000
 -0.266667 -0.466667  0.400000      2.000000
 -0.200000 -0.466667  0.400000      2.000000
 -0.133333 -0.466667  0.400000      2.000000
 -0.066667 -0.466667  0.400000      2.000000
 -0.000000 -0.400000  0.400000      2.000000
  0.066667 -0.400000  0.400000      2.000000
  0.133333 -0.400000  0.400000      2.000000
  0.200000 -0.400000  0.400000      2.000000
  0.266667 -0.400000  0.400000      2.000000
  0.333333 -0.400000  0.400000      2.000000
  0.400000 -0.400000  0.400000      2.000000
  0.466667 -0.400000  0.400000      2.000000
 -0.466667 -0.400000  0.400000      2.000000
 -0.400000 -0.400000  0.400000      2.000000
 -0.333333 -0.400000  0.400000      2.000000
 -0.266667 -0.400000  0.400000      2.000000
 -0.200000 -0.400000  0.400000      2.000000
 -0.133333 -0.400000  0.400000      2.000000
 -0.066667 -0.400000  0.400000      2.000000
  0.000000 -0.333333  0.400000      2.000000
  0.066667 -0.333333  0.400000      2.000000
  0.133333 -0.333333  0.400000      2.000000
  0.200000 -0.333333  0.400000      2.000000
  0.266667 -0.333333  0.400000      2.000000
  0.333333 -0.333333  0.400000      2.000000
  0.400000 -0.333333  0.400000      2.000000
  0.466667 -0.333333  0.400000      2.000000
 -0.466667 -0.333333  0.400000      2.000000
 -0.400000 -0.333333  0.400000      2.000000
 -0.333333 -0.333333  0.400000      2.000000
 -0.266667 -0.333333  0.400000      2.000000
 -0.200000 -0.333333  0.400000      2.000000
 -0.133333 -0.333333  0.400000      2.000000
 -0.066667 -0.333333  0.400000      2.000000
  0.000000 -0.266667  0.400000      2.000000
  0.066667 -0.266667  0.400000      2.000000
  0.133333 -0.266667  0.400000      2.000000
  0.200000 -0.266667  0.400000      2.000000
  0.266667 -0.266667  0.400000      2.000000
  0.333333 -0.266667  0.400000      2.000000
  0.400000 -0.266667  0.400000      2.000000
  0.466667 -0.266667  0.400000      2.000000
 -0.466667 -0.266667  0.400000      2.000000
 -0.400000 -0.266667  0.400000      2.000000
 -0.333333 -0.266667  0.400000      2.000000
 -0.266667 -0.266667  0.400000      2.000000
 -0.200000 -0.266667  0.400000      2.000000
 -0.133333 -0.266667  0.400000      2.000000
 -0.066667 -0.266667  0.400000      2.000000
  0.000000 -0.200000  0.400000      2.000000
  0.066667 -0.200000  0.400000      2.000000
  0.133333 -0.200000  0.400000      2.000000
  0.200000 -0.200000  0.400000      2.000000
  0.266667 -0.200000  0.400000      2.000000
  0.333333 -0.200000  0.400000      2.000000
  0.400000 -0.200000  0.400000      2.000000
  0.466667 -0.200000  0.400000      2.000000
 -0.466667 -0.200000  0.400000      2.000000
 -0.400000 -0.200000  0.400000      2.000000
 -0.333333 -0.200000  0.400000      2.000000
 -0.266667 -0.200000  0.400000      2.000000
 -0.200000 -0.200000  0.400000      2.000000
 -0.133333 -0.200000  0.400000      2.000000
 -0.066667 -0.200000  0.400000      2.000000
  0.000000 -0.133333  0.400000      2.000000
  0.066667 -0.133333  0.400000      2.000000
  0.133333 -0.133333  0.400000      2.000000
  0.200000 -0.133333  0.400000      2.000000
  0.266667 -0.133333  0.400000      2.000000
  0.333333 -0.133333  0.400000      2.000000
  0.400000 -0.133333  0.400000      2.000000
  0.466667 -0.133333  0.400000      2.000000
 -0.466667 -0.133333  0.400000      2.000000
 -0.400000 -0.133333  0.400000      2.000000
 -0.333333 -0.133333  0.400000      2.000000
 -0.266667 -0.133333  0.400000      2.000000
 -0.200000 -0.133333  0.400000      2.000000
 -0.133333 -0.133333  0.400000      2.000000
 -0.066667 -0.133333  0.400000      2.000000
 -0.000000 -0.066667  0.400000      2.000000
  0.066667 -0.066667  0.400000      2.000000
  0.133333 -0.066667  0.400000      2.000000
  0.200000 -0.066667  0.400000      2.000000
  0.266667 -0.066667  0.400000      2.000000
  0.333333 -0.066667  0.400000      2.000000
  0.400000 -0.066667  0.400000      2.000000
  0.466667 -0.066667  0.400000      2.000000
 -0.466667 -0.066667  0.400000      2.000000
 -0.400000 -0.066667  0.400000      2.000000
 -0.333333 -0.066667  0.400000      2.000000
 -0.266667 -0.066667  0.400000      2.000000
 -0.200000 -0.066667  0.400000      2.000000
 -0.133333 -0.066667  0.400000      2.000000
 -0.066667 -0.066667  0.400000      2.000000
  0.000000 -0.000000  0.466667      2.000000
  0.066667 -0.000000  0.466667      2.000000
  0.133333 -0.000000  0.466667      2.000000
  0.200000 -0.000000  0.466667      2.000000
  0.266667  0.000000  0.466667      2.000000
  0.333333  0.000000  0.466667      2.000000
  0.400000 -0.000000  0.466667      2.000000
  0.466667 -0.000000  0.466667      2.000000
 -0.466667 -0.000000  0.466667      2.000000
 -0.400000 -0.000000  0.466667      2.000000
 -0.333333  0.000000  0.466667      2.000000
 -0.266667 -0.000000  0.466667      2.000000
 -0.200000 -0.000000  0.466667      2.000000
 -0.133333 -0.000000  0.466667      2.000000
 -0.066667 -0.000000  0.466667      2.000000
  0.000000  0.066667  0.466667      2.000000
  0.066667  0.066667  0.466667      2.000000
  0.133333  0.066667  0.466667      2.000000
  0.200000  0.066667  0.466667      2.000000
  0.266667  0.066667  0.466667      2.000000
  0.333333  0.066667  0.466667      2.000000
  0.400000  0.066667  0.466667      2.000000
  0.466667  0.066667  0.466667      2.000000
 -0.466667  0.066667  0.466667      2.000000
 -0.400000  0.066667  0.466667      2.000000
 -0.333333  0.066667  0.466667      2.000000
 -0.266667  0.066667  0.466667      2.000000
 -0.200000  0.066667  0.466667      2.000000
 -0.133333  0.066667  0.466667      2.000000
 -0.066667  0.066667  0.466667      2.000000
 -0.000000  0.133333  0.466667      2.000000
  0.066667  0.133333  0.466667      2.000000
  0.133333  0.133333  0.466667      2.000000
  0.200000  0.133333  0.466667      2.000000
  0.266667  0.133333  0.466667      2.000000
  0.333333  0.133333  0.466667      2.000000
  0.400000  0.133333  0.466667      2.000000
  0.466667  0.133333  0.466667      2.000000
 -0.466667  0.133333  0.466667      2.000000
 -0.400000  0.133333  0.466667      2.000000
 -0.333333  0.133333  0.466667      2.000000
 -0.266667  0.133333  0.466667      2.000000
 -0.200000  0.133333  0.466667      2.000000
 -0.133333  0.133333  0.466667      2.000000
 -0.066667  0.133333  0.466667      2.000000
  0.000000  0.200000  0.466667      2.000000
  0.066667  0.200000  0.466667      2.000000
  0.133333  0.200000  0.466667      2.000000
  0.200000  0.200000  0.466667      2.000000
  0.266667  0.200000  0.466667      2.000000
  0.333333  0.200000  0.466667      2.000000
  0.400000  0.200000  0.466667      2.000000
  0.466667  0.200000  0.466667      2.000000
 -0.466667  0.200000  0.466667      2.000000
 -0.400000  0.200000  0.466667      2.000000
 -0.333333  0.200000  0.466667      2.000000
 -0.266667  0.200000  0.466667      2.000000
 -0.200000  0.200000  0.466667      2.000000
 -0.133333  0.200000  0.466667      2.000000
 -0.066667  0.200000  0.466667      2.000000
  0.000000  0.266667  0.466667      2.000000
  0.066667  0.266667  0.466667      2.000000
  0.133333  0.266667  0.466667      2.000000
  0.200000  0.266667  0.466667      2.000000
  0.266667  0.266667  0.466667      2.000000
  0.333333  0.266667  0.466667      2.000000
  0.400000  0.266667  0.466667      2.000000
  0.466667  0.266667  0.466667      2.000000
 -0.466667  0.266667  0.466667      2.000000
 -0.400000  0.266667  0.466667      2.000000
 -0.333333  0.266667  0.466667      2.000000
 -0.266667  0.266667  0.466667      2.000000
 -0.200000  0.266667  0.466667      2.000000
 -0.133333  0.266667  0.466667      2.000000
 -0.066667  0.266667  0.466667      2.000000
  0.000000  0.333333  0.466667      2.000000
  0.066667  0.333333  0.466667      2.000000
  0.133333  0.333333  0.466667      2.000000
  0.200000  0.333333  0.466667      2.000000
  0.266667  0.333333  0.466667      2.000000
  0.333333  0.333333  0.466667      2.000000
  0.400000  0.333333  0.466667      2.000000
  0.466667  0.333333  0.466667      2.000000
 -0.466667  0.333333  0.466667      2.000000
 -0.400000  0.333333  0.466667      2.000000
 -0.333333  0.333333  0.466667      2.000000
 -0.266667  0.333333  0.466667      2.000000
 -0.200000  0.333333  0.466667      2.000000
 -0.133333  0.333333  0.466667      2.000000
 -0.066667  0.333333  0.466667      2.000000
  0.000000  0.400000  0.466667      2.000000
  0.066667  0.400000  0.466667      2.000000
  0.133333  0.400000  0.466667      2.000000
  0.200000  0.400000  0.466667      2.000000
  0.266667  0.400000  0.466667      2.000000
  0.333333  0.400000  0.466667      2.000000
  0.400000  0.400000  0.466667      2.000000
  0.466667  0.400000  0.466667      2.000000
 -0.466667  0.400000  0.466667      2.000000
 -0.400000  0.400000  0.466667      2.000000
 -0.333333  0.400000  0.466667      2.000000
 -0.266667  0.400000  0.466667      2.000000
 -0.200000  0.400000  0.466667      2.000000
 -0.133333  0.400000  0.466667      2.000000
 -0.066667  0.400000  0.466667      2.000000
 -0.000000  0.466667  0.466667      2.000000
  0.066667  0.466667  0.466667      2.000000
  0.133333  0.466667  0.466667      2.000000
  0.200000  0.466667  0.466667      2.000000
  0.266667  0.466667  0.466667      2.000000
  0.333333  0.466667  0.466667      2.000000
  0.400000  0.466667  0.466667      2.000000
  0.466667  0.466667  0.466667      2.000000
 -0.466667  0.466667  0.466667      2.000000
 -0.400000  0.466667  0.466667      2.000000
 -0.333333  0.466667  0.466667      2.000000
 -0.266667  0.466667  0.466667      2.000000
 -0.200000  0.466667  0.466667      2.000000
 -0.133333  0.466667  0.466667      2.000000
 -0.066667  0.466667  0.466667      2.000000
  0.000000 -0.466667  0.466667      2.000000
  0.066667 -0.466667  0.466667      2.000000
  0.133333 -0.466667  0.466667      2.000000
  0.200000 -0.466667  0.466667      2.000000
  0.266667 -0.466667  0.466667      2.000000
  0.333333 -0.466667  0.466667      2.000000
  0.400000 -0.466667  0.466667      2.000000
  0.466667 -0.466667  0.466667      2.000000
 -0.466667 -0.466667  0.466667      2.000000
 -0.400000 -0.466667  0.466667      2.000000
 -0.333333 -0.466667  0.466667      2.000000
 -0.266667 -0.466667  0.466667      2.000000
 -0.200000 -0.466667  0.466667      2.000000
 -0.133333 -0.466667  0.466667      2.000000
 -0.066667 -0.466667  0.466667      2.000000
  0.000000 -0.400000  0.466667      2.000000
  0.066667 -0.400000  0.466667      2.000000
  0.133333 -0.400000  0.466667      2.000000
  0.200000 -0.400000  0.466667      2.000000
  0.266667 -0.400000  0.466667      2.000000
  0.333333 -0.400000  0.466667      2.000000
  0.400000 -0.400000  0.466667      2.000000
  0.466667 -0.400000  0.466667      2.000000
 -0.466667 -0.400000  0.466667      2.000000
 -0.400000 -0.400000  0.466667      2.000000
[...]
      7       5.3278      2.00000
      8       5.3882      2.00000
      9       5.8072      2.00000
     10       5.8528      2.00000
     11       6.0272      2.00000
     12       6.1146      2.00000
     13       7.3991      2.00000
     14       7.6238      2.00000
     15       7.6594      2.00000
     16       7.7198      2.00000
     17       7.9371      2.00000
     18       8.2378      2.00000
     19       8.8698      2.00000
     20       8.8812      2.00000
     21       9.9091      2.00000
     22      10.3311      2.00000
     23      12.5472      0.00000
     24      13.0565      0.00000
     25      19.0893      0.00000
     26      19.5614      0.00000
     27      22.0925      0.00000

 k-point  1680 :       0.4000   -0.0667    0.4667
  band No.  band energies     occupation 
      1       3.9292      2.00000
      2       4.2397      2.00000
      3       4.6519      2.00000
      4       4.6761      2.00000
      5       5.5723      2.00000
      6       5.5725      2.00000
      7       5.6053      2.00000
      8       5.6326      2.00000
      9       5.7972      2.00000
     10       5.8818      2.00000
     11       6.0520      2.00000
     12       6.1012      2.00000
     13       7.2344      2.00000
     14       7.4251      2.00000
     15       7.4388      2.00000
     16       7.4536      2.00000
     17       7.8717      2.00000
     18       8.1509      2.00000
     19       8.5065      2.00000
     20       8.5610      2.00000
     21      10.3197      2.00000
     22      10.7823      2.00000
     23      11.8208      0.15786
     24      12.3338      0.00000
     25      19.6314      0.00000
     26      20.1383      0.00000
     27      21.4244      0.00000

 k-point  1681 :       0.4667   -0.0667    0.4667
  band No.  band energies     occupation 
      1       4.2035      2.00000
      2       4.4313      2.00000
      3       4.4404      2.00000
      4       4.5667      2.00000
      5       5.7174      2.00000
      6       5.7266      2.00000
      7       5.7632      2.00000
      8       5.8279      2.00000
      9       5.9352      2.00000
     10       5.9465      2.00000
     11       6.0499      2.00000
     12       6.0689      2.00000
     13       7.1243      2.00000
     14       7.2113      2.00000
     15       7.2645      2.00000
     16       7.2674      2.00000
     17       7.9501      2.00000
     18       8.1672      2.00000
     19       8.1781      2.00000
     20       8.3078      2.00000
     21      10.7570      2.00000
     22      11.2418      2.00000
     23      11.2463      2.00000
     24      11.7477      0.70519
     25      20.1766      0.00000
     26      20.7454      0.00000
     27      20.7635      0.00000

 k-point  1682 :      -0.4667   -0.0667    0.4667
  band No.  band energies     occupation 
      1       4.2035      2.00000
      2       4.4313      2.00000
      3       4.4404      2.00000
      4       4.5667      2.00000
      5       5.7174      2.00000
      6       5.7266      2.00000
      7       5.7632      2.00000
      8       5.8279      2.00000
      9       5.9352      2.00000
     10       5.9465      2.00000
     11       6.0499      2.00000
     12       6.0689      2.00000
     13       7.1243      2.00000
     14       7.2113      2.00000
     15       7.2645      2.00000
     16       7.2674      2.00000
     17       7.9501      2.00000
     18       8.1672      2.00000
     19       8.1781      2.00000
     20       8.3078      2.00000
     21      10.7570      2.00000
     22      11.2418      2.00000
     23      11.2463      2.00000
     24      11.7477      0.70519
     25      20.1767      0.00000
     26      20.7446      0.00000
     27      20.7633      0.00000

 k-point  1683 :      -0.4000   -0.0667    0.4667
  band No.  band energies     occupation 
      1       3.9292      2.00000
      2       4.2397      2.00000
      3       4.6519      2.00000
      4       4.6761      2.00000
      5       5.5723      2.00000
      6       5.5725      2.00000
      7       5.6053      2.00000
      8       5.6326      2.00000
      9       5.7972      2.00000
     10       5.8818      2.00000
     11       6.0520      2.00000
     12       6.1012      2.00000
     13       7.2344      2.00000
     14       7.4251      2.00000
     15       7.4388      2.00000
     16       7.4536      2.00000
     17       7.8717      2.00000
     18       8.1509      2.00000
     19       8.5065      2.00000
     20       8.5610      2.00000
     21      10.3197      2.00000
     22      10.7823      2.00000
     23      11.8208      0.15785
     24      12.3338      0.00000
     25      19.6314      0.00000
     26      20.1383      0.00000
     27      21.4244      0.00000

 k-point  1684 :      -0.3333   -0.0667    0.4667
  band No.  band energies     occupation 
      1       3.6236      2.00000
      2       3.9865      2.00000
      3       4.7802      2.00000
      4       4.8483      2.00000
      5       5.2973      2.00000
      6       5.3249      2.00000
      7       5.3278      2.00000
      8       5.3882      2.00000
      9       5.8072      2.00000
     10       5.8528      2.00000
     11       6.0272      2.00000
     12       6.1146      2.00000
     13       7.3991      2.00000
     14       7.6238      2.00000
     15       7.6594      2.00000
     16       7.7198      2.00000
     17       7.9371      2.00000
     18       8.2378      2.00000
     19       8.8698      2.00000
     20       8.8812      2.00000
     21       9.9091      2.00000
     22      10.3311      2.00000
     23      12.5472      0.00000
     24      13.0565      0.00000
     25      19.0893      0.00000
     26      19.5614      0.00000
     27      22.0800      0.00000

 k-point  1685 :      -0.2667   -0.0667    0.4667
  band No.  band energies     occupation 
      1       3.3142      2.00000
      2       3.7041      2.00000
      3       4.8443      2.00000
      4       4.9582      2.00000
      5       5.0212      2.00000
      6       5.1153      2.00000
      7       5.1201      2.00000
      8       5.1615      2.00000
      9       5.8175      2.00000
     10       5.9245      2.00000
     11       6.0710      2.00000
     12       6.0893      2.00000
     13       7.5296      2.00000
     14       7.7852      2.00000
     15       7.8324      2.00000
     16       7.9108      2.00000
     17       8.0747      2.00000
     18       8.3834      2.00000
     19       9.2370      2.00000
     20       9.2429      2.00000
     21       9.5335      2.00000
     22       9.8944      2.00000
     23      13.4472      0.00000
     24      13.9425      0.00000
     25      18.5315      0.00000
     26      18.9990      0.00000
     27      21.6014      0.00000

 k-point  1686 :      -0.2000   -0.0667    0.4667
  band No.  band energies     occupation 
      1       3.0357      2.00000
      2       3.4381      2.00000
      3       4.7239      2.00000
      4       4.7526      2.00000
      5       4.7936      2.00000
      6       4.9640      2.00000
      7       5.1471      2.00000
      8       5.2392      2.00000
      9       5.8036      2.00000
     10       6.0365      2.00000
     11       6.1105      2.00000
     12       6.1822      2.00000
     13       7.6278      2.00000
     14       7.9024      2.00000
     15       7.9142      2.00000
     16       7.9814      2.00000
     17       8.1682      2.00000
     18       8.5096      2.00000
     19       9.2364      2.00000
     20       9.5054      2.00000
     21       9.6117      2.00000
     22       9.6219      2.00000
     23      14.5033      0.00000
     24      14.9754      0.00000
     25      17.9873      0.00000
     26      18.4639      0.00000
     27      21.1938      0.00000

 k-point  1687 :      -0.1333   -0.0667    0.4667
  band No.  band energies     occupation 
      1       2.8176      2.00000
      2       3.2252      2.00000
      3       4.5599      2.00000
      4       4.5669      2.00000
      5       4.6276      2.00000
      6       4.8150      2.00000
      7       5.2763      2.00000
      8       5.3493      2.00000
      9       5.8365      2.00000
     10       5.9686      2.00000
     11       6.3276      2.00000
     12       6.3343      2.00000
     13       7.7034      2.00000
     14       7.9201      2.00000
     15       7.9553      2.00000
     16       7.9904      2.00000
     17       8.1238      2.00000
     18       8.5105      2.00000
     19       9.0819      2.00000
     20       9.2486      2.00000
     21       9.9639      2.00000
     22       9.9707      2.00000
     23      15.6573      0.00000
     24      16.0722      0.00000
     25      17.5664      0.00000
     26      18.0126      0.00000
     27      20.7169      0.00000

 k-point  1688 :      -0.0667   -0.0667    0.4667
  band No.  band energies     occupation 
      1       2.6794      2.00000
      2       3.0891      2.00000
      3       4.4502      2.00000
      4       4.4502      2.00000
      5       4.5271      2.00000
      6       4.7231      2.00000
      7       5.3971      2.00000
      8       5.3971      2.00000
      9       5.9008      2.00000
     10       5.9008      2.00000
     11       6.4795      2.00000
     12       6.5192      2.00000
     13       7.7614      2.00000
     14       7.8957      2.00000
     15       7.8957      2.00000
     16       7.9790      2.00000
     17       8.0666      2.00000
     18       8.3548      2.00000
     19       9.0494      2.00000
     20       9.1726      2.00000
     21      10.2238      2.00000
     22      10.2238      2.00000
     23      16.7432      0.00000
     24      16.7432      0.00000
     25      17.7871      0.00000
     26      17.7871      0.00000
     27      19.9430      0.00000


--------------------------------------------------------------------------------------------------------


 soft charge-density along one line, spin component           1
         0         1         2         3         4         5         6         7         8         9
 total charge-density along one line
 
 pseudopotential strength for first ion, spin component:           1
 -3.007   0.000  -0.000   0.000  -0.000  -3.265   0.000  -0.000
  0.000  -2.985   0.000   0.000  -0.000   0.000  -3.244   0.000
 -0.000   0.000  -2.978  -0.000  -0.000  -0.000   0.000  -3.237
  0.000   0.000  -0.000  -2.985  -0.000   0.000   0.000  -0.000
 -0.000  -0.000  -0.000  -0.000  -2.973  -0.000  -0.000  -0.000
 -3.265   0.000  -0.000   0.000  -0.000  -3.505   0.000  -0.000
  0.000  -3.244   0.000   0.000  -0.000   0.000  -3.484   0.000
 -0.000   0.000  -3.237  -0.000  -0.000  -0.000   0.000  -3.478
  0.000   0.000  -0.000  -3.244  -0.000   0.000   0.000  -0.000
 -0.000  -0.000  -0.000  -0.000  -3.232  -0.000  -0.000  -0.000
 -0.000  -0.000  -0.002   0.000  -0.000  -0.000  -0.000  -0.002
 -0.000  -0.000  -0.003   0.000  -0.000  -0.000  -0.000  -0.003
  0.000  -0.000  -0.000  -0.000  -0.000   0.000  -0.000  -0.000
 -0.000   0.000  -0.000   0.000  -0.000  -0.000   0.000  -0.000
  0.000  -0.000  -0.000  -0.000   0.000   0.000  -0.000  -0.000
  0.000  -0.000  -0.000  -0.000  -0.000   0.000  -0.000  -0.000
 -0.000   0.000  -0.000   0.000  -0.000  -0.000   0.000  -0.000
  0.000  -0.000  -0.000  -0.000   0.000   0.000  -0.000  -0.000
 total augmentation occupancy for first ion, spin component:           1
  6.037   0.000  -0.000   0.000  -0.000  -4.343  -0.000   0.000  -0.000   0.000  -0.000   0.000   0.000  -0.000   0.000  -0.000
  0.000   6.261  -0.000   0.000  -0.000  -0.000  -4.271   0.000  -0.000  -0.000  -0.000   0.000  -0.000  -0.000  -0.000   0.000
 -0.000  -0.000   5.607  -0.000   0.000   0.000   0.000  -3.571   0.000  -0.000   0.111   0.002  -0.000  -0.000   0.000   0.000
  0.000   0.000  -0.000   6.261  -0.000  -0.000  -0.000   0.000  -4.271  -0.000   0.000  -0.000   0.000  -0.000  -0.000   0.000
 -0.000  -0.000   0.000  -0.000   5.870   0.000  -0.000  -0.000  -0.000  -3.650   0.000  -0.000  -0.000  -0.000   0.000   0.000
 -4.343  -0.000   0.000  -0.000   0.000   4.532   0.000  -0.000   0.000  -0.000   0.000  -0.000   0.000   0.000  -0.000   0.000
 -0.000  -4.271   0.000  -0.000  -0.000   0.000   4.205  -0.000   0.000   0.000   0.000  -0.000   0.000   0.000   0.000  -0.000
  0.000   0.000  -3.571   0.000  -0.000  -0.000  -0.000   3.482   0.000  -0.000  -0.124   0.006   0.000   0.000  -0.000  -0.000
 -0.000  -0.000   0.000  -4.271  -0.000   0.000   0.000   0.000   4.205   0.000  -0.000   0.000  -0.000  -0.000   0.000  -0.000
  0.000  -0.000  -0.000  -0.000  -3.650  -0.000   0.000  -0.000   0.000   3.411  -0.000  -0.000   0.000   0.000  -0.000  -0.000
 -0.000  -0.000   0.111   0.000   0.000   0.000   0.000  -0.124  -0.000  -0.000   3.252  -0.954   0.000   0.000  -0.000   0.000
  0.000   0.000   0.002  -0.000  -0.000  -0.000  -0.000   0.006   0.000  -0.000  -0.954   0.337  -0.000  -0.000   0.000  -0.000
  0.000  -0.000  -0.000   0.000  -0.000   0.000   0.000   0.000  -0.000   0.000   0.000  -0.000   0.254  -0.000   0.000  -0.009
 -0.000  -0.000  -0.000  -0.000  -0.000   0.000   0.000   0.000  -0.000   0.000   0.000  -0.000  -0.000   0.239   0.000   0.000
  0.000  -0.000   0.000  -0.000   0.000  -0.000   0.000  -0.000   0.000  -0.000  -0.000   0.000   0.000   0.000   0.254  -0.000
 -0.000   0.000   0.000   0.000   0.000   0.000  -0.000  -0.000  -0.000  -0.000   0.000  -0.000  -0.009   0.000  -0.000   0.000
  0.000  -0.000   0.000  -0.000   0.000  -0.000   0.000  -0.000   0.000  -0.000   0.000  -0.000   0.000  -0.009  -0.000  -0.000
  0.000   0.000  -0.000   0.000  -0.000  -0.000  -0.000   0.000  -0.000   0.000  -0.000  -0.000  -0.000  -0.000  -0.009   0.000


------------------------ aborting loop because EDIFF is reached ----------------------------------------


    CHARGE:  cpu time    0.8649: real time    0.8661
    FORLOC:  cpu time    0.0010: real time    0.0956
    FORNL :  cpu time    2.3106: real time    2.4700
    STRESS:  cpu time    4.4003: real time    4.4200
    FORCOR:  cpu time    0.0070: real time    0.0148
    FORHAR:  cpu time    0.0020: real time    0.0044
    MIXING:  cpu time    0.0010: real time    0.0006
    OFIELD:  cpu time    0.0000: real time    0.0031

  FORCE on cell =-STRESS in cart. coord.  units (eV):
  Direction    XX          YY          ZZ          XY          YZ          ZX
  --------------------------------------------------------------------------------------
  Alpha Z   308.77230   308.77230   308.77230
  Ewald   -1347.18533 -1347.18534 -1377.95459     0.00001    -0.00005     0.00002
  Hartree   132.93696   132.93696   125.63488     0.00000    -0.00002     0.00001
  E(xc)    -200.93968  -200.93968  -200.93654     0.00000    -0.00000     0.00000
  Local     216.48593   216.48595   251.01650    -0.00002     0.00006    -0.00003
  n-local    19.20540    19.20539    17.53181    -0.00000     0.00000    -0.00000
  augment   268.96130   268.96130   270.04385    -0.00000     0.00000    -0.00000
  Kinetic   618.04630   618.04630   619.39730     0.00000     0.00000    -0.00000
  Fock        0.00000     0.00000     0.00000     0.00000     0.00000     0.00000
  -------------------------------------------------------------------------------------
  Total      16.28318    16.28317    13.50551     0.00000    -0.00000     0.00000
  in kB     432.23323   432.23318   358.50076     0.00004    -0.00003     0.00003
  external pressure =      407.66 kB  Pullay stress =        0.00 kB


 VOLUME and BASIS-vectors are now :
 -----------------------------------------------------------------------------
  energy-cutoff  :      500.00
  volume of cell :       60.36
      direct lattice vectors                 reciprocal lattice vectors
     3.811646048 -0.000000027 -0.000000062     0.262353846  0.000000002  0.000000004
    -0.000000027  3.811645678  0.000000138     0.000000002  0.262353871 -0.000000008
    -0.000000056  0.000000127  4.154382275     0.000000004 -0.000000009  0.240709673

  length of vectors
     3.811646048  3.811645678  4.154382275     0.262353846  0.262353871  0.240709673


 FORCES acting on ions
    electron-ion (+dipol)            ewald-force                    non-local-force                 convergence-correction
 -----------------------------------------------------------------------------------------------
   0.126E-05 -.304E-06 0.329E-05   -.168E-05 0.572E-06 -.276E-05   0.262E-06 0.178E-06 -.163E-05   0.117E-06 -.452E-06 0.122E-05
   0.390E-05 -.758E-06 -.243E-05   -.313E-05 0.351E-07 -.552E-06   -.530E-06 0.203E-06 0.253E-05   -.233E-06 0.431E-06 -.394E-07
   -.138E-05 -.229E-05 -.942E-06   0.196E-05 0.170E-05 0.235E-05   -.107E-06 0.654E-06 0.439E-06   -.412E-06 -.667E-07 -.201E-05
   -.348E-05 0.361E-05 -.163E-06   0.284E-05 -.231E-05 0.959E-06   0.477E-06 -.116E-05 -.118E-05   0.137E-06 -.149E-07 0.918E-06
 -----------------------------------------------------------------------------------------------
   0.293E-06 0.260E-06 -.244E-06   -.169E-14 0.561E-15 -.128E-14   0.102E-06 -.129E-06 0.161E-06   -.391E-06 -.103E-06 0.915E-07
 
 
 POSITION                                       TOTAL-FORCE (eV/Angst)
 -----------------------------------------------------------------------------------
      3.81165     -0.00000     -0.00000        -0.000000     -0.000000      0.000000
     -0.00000      1.90582      2.07719         0.000000     -0.000000     -0.000000
      1.90582      3.81165      2.07719         0.000000     -0.000000     -0.000000
      1.90582      1.90582      4.15438        -0.000000      0.000000      0.000001
 -----------------------------------------------------------------------------------
    total drift:                                0.000000      0.000000      0.000000


--------------------------------------------------------------------------------------------------------



  FREE ENERGIE OF THE ION-ELECTRON SYSTEM (eV)
  ---------------------------------------------------
  free  energy   TOTEN  =       -11.63022161 eV

  energy  without entropy=      -11.62473991  energy(sigma->0) =      -11.62748076
 


--------------------------------------------------------------------------------------------------------


    POTLOK:  cpu time    0.0130: real time    0.0180


--------------------------------------------------------------------------------------------------------


 stress matrix after NEB project (eV)
     16.28318      0.00000      0.00000
      0.00000     16.28317     -0.00000
      0.00000     -0.00000     13.50551
  FORCES: max atom, RMS     0.000001    0.000000
  FORCE total and by dimension    0.000001    0.000001
  Stress total and by dimension   26.696113   16.283176


--------------------------------------------------------------------------------------------------------


  
 reached required accuracy - stopping structural energy minimisation
     LOOP+:  cpu time  223.1211: real time  228.0880
    4ORBIT:  cpu time    0.0000: real time    0.0000

 total amount of memory used by VASP MPI-rank0   133183. kBytes
=======================================================================

   base      :      30000. kBytes
   nonl-proj :      48870. kBytes
   fftplans  :        436. kBytes
   grid      :        630. kBytes
   one-center:         15. kBytes
   wavefun   :      53232. kBytes
 
  
  
 General timing and accounting informations for this job:
 ========================================================
  
                  Total CPU time used (sec):      235.894
                            User time (sec):      230.755
                          System time (sec):        5.139
                         Elapsed time (sec):      241.902
  
                   Maximum memory used (kb):      210912.
                   Average memory used (kb):           0.
  
                          Minor page faults:        59505
                          Major page faults:          334
                 Voluntary context switches:         8162
