 running on   24 total cores
 distrk:  each k-point on   24 cores,    1 groups
 distr:  one band on    8 cores,    3 groups
 using from now: INCAR     
 vasp.5.4.4.18Apr17-6-g9f103f2a35 (build Jan 14 2019 14:48:31) complex          
  
 POSCAR found type information on POSCAR  Au
 POSCAR found :  1 types and       4 ions
 scaLAPACK will be used
 LDA part: xc-table for Pade appr. of Perdew
 POSCAR found type information on POSCAR  Au
 POSCAR found :  1 types and       4 ions
 POSCAR, INCAR and KPOINTS ok, starting setup
 FFT: planning ...
 WAVECAR not read
 entering main loop
       N       E                     dE             d eps       ncg     rms          rms(c)
DAV:   1     0.290178689214E+03    0.29018E+03   -0.23093E+04 92043   0.156E+03
DAV:   2    -0.755800360930E+01   -0.29774E+03   -0.29056E+03103572   0.346E+02
DAV:   3    -0.126654761188E+02   -0.51075E+01   -0.50824E+01102474   0.484E+01
DAV:   4    -0.126917556950E+02   -0.26280E-01   -0.26273E-01105867   0.354E+00
DAV:   5    -0.126919734876E+02   -0.21779E-03   -0.21779E-03107478   0.340E-01    0.276E+01
RMM:   6    -0.117606433368E+02    0.93133E+00   -0.19069E+00 91152   0.941E+00    0.167E+01
RMM:   7    -0.116496978830E+02    0.11095E+00   -0.58980E-01 91156   0.512E+00    0.416E+00
RMM:   8    -0.116302965391E+02    0.19401E-01   -0.56762E-02 91152   0.164E+00    0.639E-01
RMM:   9    -0.116302133947E+02    0.83144E-04   -0.15000E-04 91156   0.745E-02    0.634E-02
RMM:  10    -0.116302172264E+02   -0.38316E-05   -0.14293E-05 91150   0.315E-02    0.580E-02
RMM:  11    -0.116302215984E+02   -0.43720E-05   -0.22272E-06 50113   0.108E-02    0.151E-03
RMM:  12    -0.116302216053E+02   -0.69003E-08   -0.86739E-08 40859   0.197E-03
   1 F= -.11630222E+02 E0= -.11627481E+02  d E =-.116302E+02
 curvature:   0.00 expect dE= 0.000E+00 dE for cont linesearch  0.000E+00
 trial: gam= 0.00000 g(F)=  0.115E-13 g(S)=  0.000E+00 ort = 0.000E+00 (trialstep = 0.100E+01)
 search vector abs. value=  0.100E-09
 reached required accuracy - stopping structural energy minimisation
