   2   2   0   0
  0.7989652E+02  0.2468419E-09  0.2468419E-09  0.3028239E-08  0.5000000E-15
  1.000000000000000E-004
  CAR 
 unknown system                          
     17.61973080    -24.55349782  301     -3.58988876      1.00000000
    -24.553  0.0000E+00  0.0000E+00
    -24.413  0.0000E+00  0.0000E+00
    -24.272  0.0000E+00  0.0000E+00
    -24.132  0.0000E+00  0.0000E+00
    -23.991  0.0000E+00  0.0000E+00
    -23.851  0.0000E+00  0.0000E+00
    -23.710  0.0000E+00  0.0000E+00
    -23.569  0.0000E+00  0.0000E+00
    -23.429  0.0000E+00  0.0000E+00
    -23.288  0.0000E+00  0.0000E+00
    -23.148  0.0000E+00  0.0000E+00
    -23.007  0.0000E+00  0.0000E+00
    -22.867  0.7605E-13  0.1069E-13
    -22.726  0.1126E-04  0.1583E-05
    -22.585  0.2199E-02  0.3107E-03
    -22.445  0.1997E-02  0.5915E-03
    -22.304  0.4779E-02  0.1263E-02
    -22.164  0.2144E-02  0.1565E-02
    -22.023  0.2702E-02  0.1945E-02
    -21.883  0.3008E-02  0.2367E-02
    -21.742  0.4868E-02  0.3052E-02
    -21.601  0.2427E-02  0.3393E-02
    -21.461  0.1986E-02  0.3672E-02
    -21.320  0.3507E-02  0.4165E-02
    -21.180  0.1864E-02  0.4427E-02
    -21.039  0.5842E-02  0.5248E-02
    -20.898  0.3568E-02  0.5750E-02
    -20.758  0.8240E-03  0.5866E-02
    -20.617  0.5618E-02  0.6655E-02
    -20.477  0.8945E-04  0.6668E-02
    -20.336  0.3451E-02  0.7153E-02
    -20.196  0.3687E-02  0.7671E-02
    -20.055  0.4754E-02  0.8340E-02
    -19.914  0.3796E-02  0.8873E-02
    -19.774  0.9682E-03  0.9009E-02
    -19.633  0.4767E-02  0.9680E-02
    -19.493  0.3231E-02  0.1013E-01
    -19.352  0.2979E-02  0.1055E-01
    -19.212  0.2011E-04  0.1056E-01
    -19.071  0.2157E-02  0.1086E-01
    -18.930  0.9253E-02  0.1216E-01
    -18.790  0.3638E-02  0.1267E-01
    -18.649  0.1004E-02  0.1281E-01
    -18.509  0.3679E-02  0.1333E-01
    -18.368  0.2122E-02  0.1363E-01
    -18.228  0.5739E-02  0.1443E-01
    -18.087  0.1722E-02  0.1468E-01
    -17.946  0.3448E-02  0.1516E-01
    -17.806  0.8407E-03  0.1528E-01
    -17.665  0.4512E-02  0.1591E-01
    -17.525  0.8941E-02  0.1717E-01
    -17.384  0.4310E-02  0.1778E-01
    -17.243  0.3960E-02  0.1833E-01
    -17.103  0.1047E-04  0.1833E-01
    -16.962  0.3361E-02  0.1881E-01
    -16.822  0.2559E-02  0.1917E-01
    -16.681  0.3797E-06  0.1917E-01
    -16.541  0.3335E-03  0.1921E-01
    -16.400  0.1799E-02  0.1947E-01
    -16.259  0.5646E-02  0.2026E-01
    -16.119  0.4031E-02  0.2083E-01
    -15.978  0.2924E-02  0.2124E-01
    -15.838  0.2160E-02  0.2154E-01
    -15.697  0.1177E-02  0.2171E-01
    -15.557  0.5583E-02  0.2249E-01
    -15.416  0.4962E-02  0.2319E-01
    -15.275  0.6953E-02  0.2417E-01
    -15.135  0.3655E-02  0.2468E-01
    -14.994  0.2979E-03  0.2472E-01
    -14.854  0.4265E-02  0.2532E-01
    -14.713  0.5607E-02  0.2611E-01
    -14.573  0.5653E-05  0.2611E-01
    -14.432  0.6807E-03  0.2621E-01
    -14.291  0.7316E-02  0.2724E-01
    -14.151  0.3794E-02  0.2777E-01
    -14.010  0.1923E-02  0.2804E-01
    -13.870  0.3370E-02  0.2851E-01
    -13.729  0.7108E-03  0.2861E-01
    -13.588  0.3481E-02  0.2910E-01
    -13.448  0.3074E-02  0.2953E-01
    -13.307  0.4468E-02  0.3016E-01
    -13.167  0.7210E-02  0.3118E-01
    -13.026  0.3493E-02  0.3167E-01
    -12.886  0.1489E-02  0.3188E-01
    -12.745  0.3067E-02  0.3231E-01
    -12.604  0.2670E-02  0.3268E-01
    -12.464  0.2751E-02  0.3307E-01
    -12.323  0.1961E-02  0.3334E-01
    -12.183  0.7254E-02  0.3436E-01
    -12.042  0.6794E-02  0.3532E-01
    -11.902  0.1725E-02  0.3556E-01
    -11.761  0.6104E-02  0.3642E-01
    -11.620  0.3721E-02  0.3694E-01
    -11.480  0.7926E-03  0.3705E-01
    -11.339  0.6175E-02  0.3792E-01
    -11.199  0.3178E-02  0.3837E-01
    -11.058  0.5776E-02  0.3918E-01
    -10.917  0.4378E-02  0.3980E-01
    -10.777  0.1612E-02  0.4002E-01
    -10.636  0.9098E-02  0.4130E-01
    -10.496  0.6883E-02  0.4227E-01
    -10.355  0.8007E-02  0.4340E-01
    -10.215  0.6654E-02  0.4433E-01
    -10.074  0.1459E-01  0.4638E-01
     -9.933  0.5145E-02  0.4711E-01
     -9.793  0.8973E-02  0.4837E-01
     -9.652  0.9283E-02  0.4967E-01
     -9.512  0.9203E-02  0.5097E-01
     -9.371  0.1433E-01  0.5298E-01
     -9.231  0.8052E-02  0.5411E-01
     -9.090  0.2763E-02  0.5450E-01
     -8.949  0.9699E-02  0.5586E-01
     -8.809  0.9686E-02  0.5723E-01
     -8.668  0.1067E-01  0.5873E-01
     -8.528  0.6641E-02  0.5966E-01
     -8.387  0.6221E-02  0.6053E-01
     -8.247  0.2128E-02  0.6083E-01
     -8.106  0.6495E-02  0.6175E-01
     -7.965  0.5488E-02  0.6252E-01
     -7.825  0.5927E-02  0.6335E-01
     -7.684  0.1073E-01  0.6486E-01
     -7.544  0.6881E-02  0.6583E-01
     -7.403  0.1834E-02  0.6608E-01
     -7.262  0.8189E-02  0.6723E-01
     -7.122  0.6168E-02  0.6810E-01
     -6.981  0.3801E-02  0.6864E-01
     -6.841  0.3220E-02  0.6909E-01
     -6.700  0.5097E-02  0.6981E-01
     -6.560  0.7785E-02  0.7090E-01
     -6.419  0.7559E-02  0.7196E-01
     -6.278  0.5916E-02  0.7279E-01
     -6.138  0.3817E-02  0.7333E-01
     -5.997  0.2601E-02  0.7370E-01
     -5.857  0.4384E-02  0.7431E-01
     -5.716  0.5400E-02  0.7507E-01
     -5.576  0.2609E-02  0.7544E-01
     -5.435  0.2910E-02  0.7585E-01
     -5.294  0.2553E-02  0.7621E-01
     -5.154  0.1334E-01  0.7808E-01
     -5.013  0.1788E-02  0.7833E-01
     -4.873  0.4711E-08  0.7833E-01
     -4.732  0.2351E-03  0.7837E-01
     -4.592  0.3687E-02  0.7888E-01
     -4.451  0.1453E-02  0.7909E-01
     -4.310  0.5542E-03  0.7917E-01
     -4.170  0.1450E-02  0.7937E-01
     -4.029  0.5249E-03  0.7944E-01
     -3.889  0.4386E-03  0.7951E-01
     -3.748  0.3502E-02  0.8000E-01
     -3.607  0.1160E-04  0.8000E-01
     -3.467  0.3330E-13  0.8000E-01
     -3.326  0.0000E+00  0.8000E-01
     -3.186  0.0000E+00  0.8000E-01
     -3.045  0.0000E+00  0.8000E-01
     -2.905  0.0000E+00  0.8000E-01
     -2.764  0.2707E-14  0.8000E-01
     -2.623  0.3685E-05  0.8000E-01
     -2.483  0.3184E-02  0.8045E-01
     -2.342  0.7655E-03  0.8056E-01
     -2.202  0.1476E-02  0.8076E-01
     -2.061  0.4992E-03  0.8083E-01
     -1.921  0.3557E-03  0.8088E-01
     -1.780  0.5332E-02  0.8163E-01
     -1.639  0.2450E-03  0.8167E-01
     -1.499  0.4574E-02  0.8231E-01
     -1.358  0.8755E-02  0.8354E-01
     -1.218  0.4601E-02  0.8419E-01
     -1.077  0.5749E-02  0.8500E-01
     -0.936  0.2329E-02  0.8532E-01
     -0.796  0.5229E-02  0.8606E-01
     -0.655  0.3741E-03  0.8611E-01
     -0.515  0.2208E-03  0.8614E-01
     -0.374  0.7522E-02  0.8720E-01
     -0.234  0.1607E-03  0.8722E-01
     -0.093  0.6806E-03  0.8732E-01
      0.048  0.4267E-02  0.8792E-01
      0.188  0.4725E-02  0.8858E-01
      0.329  0.5942E-02  0.8942E-01
      0.469  0.4265E-02  0.9002E-01
      0.610  0.6118E-02  0.9088E-01
      0.750  0.1772E-02  0.9113E-01
      0.891  0.4393E-02  0.9174E-01
      1.032  0.6392E-02  0.9264E-01
      1.172  0.8797E-02  0.9388E-01
      1.313  0.1173E-01  0.9553E-01
      1.453  0.6551E-02  0.9645E-01
      1.594  0.1192E-01  0.9812E-01
      1.734  0.9973E-02  0.9953E-01
      1.875  0.1343E-01  0.1014E+00
      2.016  0.1152E-01  0.1030E+00
      2.156  0.1480E-01  0.1051E+00
      2.297  0.2110E-01  0.1081E+00
      2.437  0.1217E-01  0.1098E+00
      2.578  0.1289E-01  0.1116E+00
      2.719  0.1706E-01  0.1140E+00
      2.859  0.1769E-01  0.1165E+00
      3.000  0.1673E-01  0.1188E+00
      3.140  0.1526E-01  0.1210E+00
      3.281  0.1722E-01  0.1234E+00
      3.421  0.1485E-01  0.1255E+00
      3.562  0.2018E-01  0.1283E+00
      3.703  0.2361E-01  0.1316E+00
      3.843  0.1833E-01  0.1342E+00
      3.984  0.2142E-01  0.1372E+00
      4.124  0.2131E-01  0.1402E+00
      4.265  0.2048E-01  0.1431E+00
      4.405  0.3243E-01  0.1477E+00
      4.546  0.2075E-01  0.1506E+00
      4.687  0.3668E-01  0.1557E+00
      4.827  0.1643E-01  0.1581E+00
      4.968  0.3000E-01  0.1623E+00
      5.108  0.3415E-01  0.1671E+00
      5.249  0.3939E-01  0.1726E+00
      5.389  0.3326E-01  0.1773E+00
      5.530  0.2226E-01  0.1804E+00
      5.671  0.3354E-01  0.1851E+00
      5.811  0.3134E-01  0.1895E+00
      5.952  0.3746E-01  0.1948E+00
      6.092  0.3261E-01  0.1994E+00
      6.233  0.3144E-01  0.2038E+00
      6.374  0.3617E-01  0.2089E+00
      6.514  0.1278E-01  0.2107E+00
      6.655  0.3496E-01  0.2156E+00
      6.795  0.3479E-01  0.2205E+00
      6.936  0.2485E-01  0.2240E+00
      7.076  0.3358E-01  0.2287E+00
      7.217  0.2461E-01  0.2322E+00
      7.358  0.3632E-01  0.2373E+00
      7.498  0.3988E-01  0.2429E+00
      7.639  0.3110E-01  0.2472E+00
      7.779  0.4273E-01  0.2533E+00
      7.920  0.3213E-01  0.2578E+00
      8.060  0.4265E-01  0.2638E+00
      8.201  0.2429E-01  0.2672E+00
      8.342  0.4122E-01  0.2730E+00
      8.482  0.2582E-01  0.2766E+00
      8.623  0.2652E-01  0.2803E+00
      8.763  0.3312E-01  0.2850E+00
      8.904  0.3530E-01  0.2899E+00
      9.045  0.3836E-01  0.2953E+00
      9.185  0.4754E-01  0.3020E+00
      9.326  0.3650E-01  0.3072E+00
      9.466  0.2897E-01  0.3112E+00
      9.607  0.2808E-01  0.3152E+00
      9.747  0.4711E-01  0.3218E+00
      9.888  0.3710E-01  0.3270E+00
     10.029  0.4040E-01  0.3327E+00
     10.169  0.5238E-01  0.3401E+00
     10.310  0.3407E-01  0.3448E+00
     10.450  0.3607E-01  0.3499E+00
     10.591  0.2613E-01  0.3536E+00
     10.731  0.4045E-01  0.3593E+00
     10.872  0.3499E-01  0.3642E+00
     11.013  0.4439E-01  0.3704E+00
     11.153  0.5813E-01  0.3786E+00
     11.294  0.3081E-01  0.3829E+00
     11.434  0.3861E-01  0.3884E+00
     11.575  0.3307E-01  0.3930E+00
     11.715  0.3567E-01  0.3980E+00
     11.856  0.3026E-01  0.4023E+00
     11.997  0.3521E-01  0.4072E+00
     12.137  0.5054E-01  0.4143E+00
     12.278  0.2209E-01  0.4174E+00
     12.418  0.3578E-01  0.4225E+00
     12.559  0.4170E-01  0.4283E+00
     12.700  0.5267E-01  0.4357E+00
     12.840  0.2220E-01  0.4389E+00
     12.981  0.3482E-01  0.4438E+00
     13.121  0.2438E-01  0.4472E+00
     13.262  0.2218E-01  0.4503E+00
     13.402  0.3435E-01  0.4551E+00
     13.543  0.1802E-01  0.4577E+00
     13.684  0.2952E-01  0.4618E+00
     13.824  0.1855E-01  0.4644E+00
     13.965  0.2612E-01  0.4681E+00
     14.105  0.1835E-01  0.4707E+00
     14.246  0.1501E-01  0.4728E+00
     14.386  0.1868E-01  0.4754E+00
     14.527  0.3076E-02  0.4758E+00
     14.668  0.6716E-02  0.4768E+00
     14.808  0.5804E-02  0.4776E+00
     14.949  0.7107E-02  0.4786E+00
     15.089  0.6158E-03  0.4787E+00
     15.230  0.3407E-02  0.4792E+00
     15.370  0.8022E-05  0.4792E+00
     15.511  0.1869E-02  0.4794E+00
     15.652  0.2229E-02  0.4797E+00
     15.792  0.1818E-02  0.4800E+00
     15.933  0.1126E-04  0.4800E+00
     16.073  0.7605E-13  0.4800E+00
     16.214  0.0000E+00  0.4800E+00
     16.355  0.0000E+00  0.4800E+00
     16.495  0.0000E+00  0.4800E+00
     16.636  0.0000E+00  0.4800E+00
     16.776  0.0000E+00  0.4800E+00
     16.917  0.0000E+00  0.4800E+00
     17.057  0.0000E+00  0.4800E+00
     17.198  0.0000E+00  0.4800E+00
     17.339  0.0000E+00  0.4800E+00
     17.479  0.0000E+00  0.4800E+00
     17.620  0.0000E+00  0.4800E+00
