       N       E                     dE             d eps       ncg     rms          rms(c)
RMM:   1     0.101011682316E+03    0.10101E+03   -0.15242E+03  1008   0.231E+02
RMM:   2     0.523772027870E+02   -0.48634E+02   -0.27656E+02  1008   0.446E+01
RMM:   3     0.106447432222E+02   -0.41732E+02   -0.20921E+02  1008   0.362E+01
RMM:   4    -0.132435914601E+02   -0.23888E+02   -0.13477E+02  1008   0.341E+01
RMM:   5    -0.183400110191E+02   -0.50964E+01   -0.38463E+01  1008   0.215E+01
RMM:   6    -0.194026546414E+02   -0.10626E+01   -0.87299E+00  1008   0.111E+01
RMM:   7    -0.196383216990E+02   -0.23567E+00   -0.19701E+00  1008   0.551E+00
RMM:   8    -0.197005169468E+02   -0.62195E-01   -0.50829E-01  1008   0.283E+00
RMM:   9    -0.197230214430E+02   -0.22504E-01   -0.19478E-01  2022   0.150E+00
RMM:  10    -0.197272108442E+02   -0.41894E-02   -0.35817E-02  2069   0.535E-01
RMM:  11    -0.197273699911E+02   -0.15915E-03   -0.12536E-03  2029   0.101E-01
RMM:  12    -0.197273990049E+02   -0.29014E-04   -0.23481E-04  2053   0.402E-02    0.911E+00
RMM:  13    -0.188422809121E+02    0.88512E+00   -0.43908E-01  2016   0.186E+00    0.594E+00
RMM:  14    -0.185092370375E+02    0.33304E+00   -0.92679E-01  2016   0.263E+00    0.117E+00
RMM:  15    -0.184886147402E+02    0.20622E-01   -0.25097E-02  2024   0.565E-01    0.124E-01
RMM:  16    -0.184870542768E+02    0.15605E-02   -0.43160E-04  2027   0.794E-02    0.824E-02
RMM:  17    -0.184857395154E+02    0.13148E-02   -0.56605E-04  2016   0.599E-02    0.609E-02
RMM:  18    -0.184856764622E+02    0.63053E-04   -0.16596E-04  2017   0.479E-02    0.571E-02
RMM:  19    -0.184861453360E+02   -0.46887E-03   -0.14661E-04  2016   0.312E-02    0.157E-02
RMM:  20    -0.184864374144E+02   -0.29208E-03   -0.61411E-06  2025   0.672E-03    0.194E-02
RMM:  21    -0.184869953175E+02   -0.55790E-03   -0.44006E-05  2016   0.139E-02    0.616E-03
RMM:  22    -0.184870906343E+02   -0.95317E-04   -0.27574E-06  1953   0.316E-03    0.239E-03
RMM:  23    -0.184871104694E+02   -0.19835E-04   -0.44931E-07  2016   0.179E-03    0.843E-04
RMM:  24    -0.184871245049E+02   -0.14035E-04   -0.12357E-07  1888   0.639E-04    0.303E-04
RMM:  25    -0.184871263121E+02   -0.18072E-05   -0.26706E-09  1820   0.167E-04    0.270E-04
RMM:  26    -0.184871283589E+02   -0.20467E-05   -0.13049E-08  1831   0.278E-04    0.346E-04
RMM:  27    -0.184871292134E+02   -0.85453E-06   -0.56475E-09  1817   0.228E-04    0.263E-04
RMM:  28    -0.184871294254E+02   -0.21205E-06   -0.91209E-11  1658   0.838E-05    0.959E-05
RMM:  29    -0.184871294747E+02   -0.49243E-07   -0.10249E-09  1723   0.112E-04
   1 F= -.18595402E+02 E0= -.18595402E+02  d E =-.185954E+02
