 vasp.5.4.4.18Apr17-6-g9f103f2a35 (build Jan 14 2019 14:48:31) complex          
  
 executed on             LinuxIFC date 2019.09.10  15:54:32
 running on   24 total cores
 distrk:  each k-point on   24 cores,    1 groups
 distr:  one band on NCORES_PER_BAND=   1 cores,   24 groups


--------------------------------------------------------------------------------------------------------


 INCAR:
 POTCAR:    PAW_PBE C_h 06Feb2004                 

 ----------------------------------------------------------------------------- 
|                                                                             |
|           W    W    AA    RRRRR   N    N  II  N    N   GGGG   !!!           |
|           W    W   A  A   R    R  NN   N  II  NN   N  G    G  !!!           |
|           W    W  A    A  R    R  N N  N  II  N N  N  G       !!!           |
|           W WW W  AAAAAA  RRRRR   N  N N  II  N  N N  G  GGG   !            |
|           WW  WW  A    A  R   R   N   NN  II  N   NN  G    G                |
|           W    W  A    A  R    R  N    N  II  N    N   GGGG   !!!           |
|                                                                             |
|      For optimal performance we recommend to set                            |
|        NCORE= 4 - approx SQRT( number of cores)                             |
|      NCORE specifies how many cores store one orbital (NPAR=cpu/NCORE).     |
|      This setting can  greatly improve the performance of VASP for DFT.     |
|      The default,   NCORE=1            might be grossly inefficient         |
|      on modern multi-core architectures or massively parallel machines.     |
|      Do your own testing !!!!                                               |
|      Unfortunately you need to use the default for GW and RPA calculations. |
|      (for HF NCORE is supported but not extensively tested yet)             |
|                                                                             |
 ----------------------------------------------------------------------------- 

 POTCAR:    PAW_PBE C_h 06Feb2004                 
   VRHFIN =C: s2p2                                                              
   LEXCH  = PE                                                                  
   EATOM  =   147.1560 eV,   10.8157 Ry                                         
                                                                                
   TITEL  = PAW_PBE C_h 06Feb2004                                               
   LULTRA =        F    use ultrasoft PP ?                                      
   IUNSCR =        1    unscreen: 0-lin 1-nonlin 2-no                           
   RPACOR =    0.800    partial core radius                                     
   POMASS =   12.011; ZVAL   =    4.000    mass and valenz                      
   RCORE  =    1.100    outmost cutoff radius                                   
   RWIGS  =    1.630; RWIGS  =    0.863    wigner-seitz radius (au A)           
   ENMAX  =  700.000; ENMIN  =  500.000 eV                                      
   ICORE  =        2    local potential                                         
   LCOR   =        T    correct aug charges                                     
   LPAW   =        T    paw PP                                                  
   EAUG   =  946.768                                                            
   DEXC   =    0.000                                                            
   RMAX   =    1.128    core radius for proj-oper                               
   RAUG   =    1.300    factor for augmentation sphere                          
   RDEP   =    1.162    radius for radial grids                                 
   RDEPT  =    1.088    core radius for aug-charge                              
                                                                                
   Atomic configuration                                                         
    4 entries                                                                   
     n  l   j            E        occ.                                          
     1  0  0.50      -273.3789   2.0000                                         
     2  0  0.50       -13.7508   2.0000                                         
     2  1  0.50        -5.2854   2.0000                                         
     3  2  1.50        -5.4423   0.0000                                         
   Description                                                                  
     l       E           TYP  RCUT    TYP  RCUT                                 
     0    -13.7508458     23  1.100                                             
     0     -8.2022199     23  1.100                                             
     1     -5.2854383     23  1.100                                             
     1      1.1560700     23  1.100                                             
     2     -5.4423304      7  1.100                                             
  local pseudopotential read in
  partial core-charges read in
  partial kinetic energy density read in
  atomic valenz-charges read in
  non local Contribution for L=           0  read in
    real space projection operators read in
  non local Contribution for L=           0  read in
    real space projection operators read in
  non local Contribution for L=           1  read in
    real space projection operators read in
  non local Contribution for L=           1  read in
    real space projection operators read in
    PAW grid and wavefunctions read in
 
   number of l-projection  operators is LMAX  =           4
   number of lm-projection operators is LMMAX =           8
 
  PAW_PBE C_h 06Feb2004                 :
 energy of atom  1       EATOM= -147.1560
 kinetic energy error for atom=    0.0044 (will be added to EATOM!!)
 
 
 POSCAR: graphene                                
  positions in direct lattice
  velocities in cartesian coordinates
 exchange correlation table for  LEXCH =        8
   RHO(1)=    0.500       N(1)  =     2000
   RHO(2)=  100.500       N(2)  =     4000

 VTST: version 3.1, (03/28/14)

 CHAIN: initializing optimizer
 
 OPT: Using VASP Conjugate-Gradient optimizer
 CHAIN: Read ICHAIN            0
 
 POSCAR: graphene                                
  positions in direct lattice
  velocities in cartesian coordinates
 


--------------------------------------------------------------------------------------------------------


 ion  position               nearest neighbor table
   1  0.000  1.000  0.500-   2 1.43   2 1.43   2 1.43
   2  0.667  0.333  0.500-   1 1.43   1 1.43   1 1.43
 
  Warning from LATTYP: Got some problem with cell dimensions!
  Tried to take original basis but could not verify dimensions!
  LATTYP: Found a hexagonal cell.
 ALAT       =     2.4684138236
 C/A-ratio  =    12.2679566342
  
  Lattice vectors:
  
 A1 = (   2.4684138236,   0.0000000000,   0.0000000000)
 A2 = (  -1.2342069118,  -2.1377144570,   0.0000000000)
 A3 = (   0.0000000000,   0.0000000000, -30.2823937426)


Analysis of symmetry for initial positions (statically):
=====================================================================
 Subroutine PRICEL returns:
 Original cell was already a primitive cell.
 

 Routine SETGRP: Setting up the symmetry group for a 
 hexagonal supercell.


 Subroutine GETGRP returns: Found 24 space group operations
 (whereof 12 operations were pure point group operations)
 out of a pool of 24 trial point group operations.


The static configuration has the point symmetry D_3h.
 The point group associated with its full space group is D_6h.


Analysis of symmetry for dynamics (positions and initial velocities):
=====================================================================
 Subroutine PRICEL returns:
 Original cell was already a primitive cell.
 

 Routine SETGRP: Setting up the symmetry group for a 
 hexagonal supercell.


 Subroutine GETGRP returns: Found 24 space group operations
 (whereof 12 operations were pure point group operations)
 out of a pool of 24 trial point group operations.


The dynamic configuration has the point symmetry D_3h.
 The point group associated with its full space group is D_6h.


 Subroutine INISYM returns: Found 24 space group operations
 (whereof 12 operations are pure point group operations),
 and found     1 'primitive' translations

 
 
 KPOINTS: K-Mesh Generated with KP-Resolved Value 

Automatic generation of k-mesh.
Space group operators:
 irot       det(A)        alpha          n_x          n_y          n_z        tau_x        tau_y        tau_z
    1     1.000000     0.000001     1.000000     0.000000     0.000000     0.000000     0.000000     0.000000
    2    -1.000000    60.000000     0.000000     0.000000     1.000000     0.000000     0.000000     0.000000
    3     1.000000   120.000000     0.000000     0.000000     1.000000     0.000000     0.000000     0.000000
    4    -1.000000   180.000000     0.000000     0.000000     1.000000     0.000000     0.000000     0.000000
    5     1.000000   120.000000     0.000000     0.000000    -1.000000     0.000000     0.000000     0.000000
    6    -1.000000    60.000000     0.000000     0.000000    -1.000000     0.000000     0.000000     0.000000
    7    -1.000000   180.000000     1.000000     0.000000     0.000000     0.000000     0.000000     0.000000
    8     1.000000   180.000000     0.866026     0.499999     0.000000     0.000000     0.000000     0.000000
    9    -1.000000   180.000000    -0.500001    -0.866025     0.000000     0.000000     0.000000     0.000000
   10     1.000000   180.000000     0.000000     1.000000     0.000000     0.000000     0.000000     0.000000
   11    -1.000000   180.000000     0.500001    -0.866025     0.000000     0.000000     0.000000     0.000000
   12     1.000000   180.000000     0.866026    -0.499999     0.000000     0.000000     0.000000     0.000000
   13    -1.000000     0.000001     1.000000     0.000000     0.000000     0.666670     0.333330     0.000000
   14     1.000000    60.000000     0.000000     0.000000     1.000000     0.666670     0.333338     0.000000
   15    -1.000000   120.000000     0.000000     0.000000     1.000000     0.666662     0.333330     0.000000
   16     1.000000   180.000000     0.000000     0.000000     1.000000     0.666670     0.333330     0.000000
   17    -1.000000   120.000000     0.000000     0.000000    -1.000000     0.666670     0.333338     0.000000
   18     1.000000    60.000000     0.000000     0.000000    -1.000000     0.666662     0.333330     0.000000
   19     1.000000   180.000000     1.000000     0.000000     0.000000     0.666670     0.333330     0.000000
   20    -1.000000   180.000000     0.866026     0.499999     0.000000     0.666662     0.333330     0.000000
   21     1.000000   180.000000    -0.500001    -0.866025     0.000000     0.666670     0.333338     0.000000
   22    -1.000000   180.000000     0.000000     1.000000     0.000000     0.666670     0.333330     0.000000
   23     1.000000   180.000000     0.500001    -0.866025     0.000000     0.666662     0.333330     0.000000
   24    -1.000000   180.000000     0.866026    -0.499999     0.000000     0.666670     0.333338     0.000000
 
 Subroutine IBZKPT returns following result:
 ===========================================
 
 Found     42 irreducible k-points:
 
 Following reciprocal coordinates:
            Coordinates               Weight
  0.041667  0.041667  0.000000     48.000000
  0.125000  0.041667  0.000000     96.000000
  0.208333  0.041667  0.000000     96.000000
  0.291667  0.041667  0.000000     96.000000
  0.375000  0.041667  0.000000     96.000000
  0.458333  0.041667  0.000000     96.000000
 -0.458333  0.041667  0.000000     96.000000
 -0.375000  0.041667  0.000000     96.000000
 -0.291667  0.041667  0.000000     96.000000
 -0.208333  0.041667  0.000000     96.000000
 -0.125000  0.041667  0.000000     96.000000
 -0.041667  0.041667  0.000000     48.000000
  0.125000  0.125000  0.000000     48.000000
  0.208333  0.125000  0.000000     96.000000
  0.291667  0.125000  0.000000     96.000000
  0.375000  0.125000  0.000000     96.000000
  0.458333  0.125000  0.000000     96.000000
 -0.458333  0.125000  0.000000     96.000000
 -0.375000  0.125000  0.000000     96.000000
 -0.291667  0.125000  0.000000     96.000000
 -0.208333  0.125000  0.000000     96.000000
 -0.125000  0.125000  0.000000     48.000000
  0.208333  0.208333  0.000000     48.000000
  0.291667  0.208333  0.000000     96.000000
  0.375000  0.208333  0.000000     96.000000
  0.458333  0.208333  0.000000     96.000000
 -0.458333  0.208333  0.000000     96.000000
 -0.375000  0.208333  0.000000     96.000000
 -0.291667  0.208333  0.000000     96.000000
 -0.208333  0.208333  0.000000     48.000000
  0.291667  0.291667  0.000000     48.000000
  0.375000  0.291667  0.000000     96.000000
  0.458333  0.291667  0.000000     96.000000
 -0.458333  0.291667  0.000000     96.000000
 -0.375000  0.291667  0.000000     96.000000
 -0.291667  0.291667  0.000000     48.000000
  0.375000  0.375000  0.000000     48.000000
  0.458333  0.375000  0.000000     96.000000
 -0.458333  0.375000  0.000000     96.000000
 -0.375000  0.375000  0.000000     48.000000
  0.458333  0.458333  0.000000     48.000000
 -0.458333  0.458333  0.000000     48.000000
 
 Following cartesian coordinates:
            Coordinates               Weight
  0.083049  0.000000  0.000000     48.000000
  0.166099 -0.047948  0.000000     96.000000
  0.249148 -0.095897  0.000000     96.000000
  0.332197 -0.143845  0.000000     96.000000
  0.415246 -0.191794  0.000000     96.000000
  0.498296 -0.239742  0.000000     96.000000
 -0.415246  0.287690  0.000000     96.000000
 -0.332197  0.239742  0.000000     96.000000
 -0.249148  0.191794  0.000000     96.000000
 -0.166099  0.143845  0.000000     96.000000
 -0.083049  0.095897  0.000000     96.000000
  0.000000  0.047948  0.000000     48.000000
  0.249148  0.000000  0.000000     48.000000
  0.332197 -0.047948  0.000000     96.000000
  0.415246 -0.095897  0.000000     96.000000
  0.498296 -0.143845  0.000000     96.000000
  0.581345 -0.191794  0.000000     96.000000
 -0.332197  0.335639  0.000000     96.000000
 -0.249148  0.287690  0.000000     96.000000
 -0.166099  0.239742  0.000000     96.000000
 -0.083049  0.191794  0.000000     96.000000
  0.000000  0.143845  0.000000     48.000000
  0.415246  0.000000  0.000000     48.000000
  0.498296 -0.047948  0.000000     96.000000
  0.581345 -0.095897  0.000000     96.000000
  0.664394 -0.143845  0.000000     96.000000
 -0.249148  0.383587  0.000000     96.000000
 -0.166099  0.335639  0.000000     96.000000
 -0.083049  0.287690  0.000000     96.000000
  0.000000  0.239742  0.000000     48.000000
  0.581345  0.000000  0.000000     48.000000
  0.664394 -0.047948  0.000000     96.000000
  0.747444 -0.095897  0.000000     96.000000
 -0.166099  0.431536  0.000000     96.000000
 -0.083049  0.383587  0.000000     96.000000
  0.000000  0.335639  0.000000     48.000000
  0.747444  0.000000  0.000000     48.000000
  0.830493 -0.047948  0.000000     96.000000
 -0.083049  0.479484  0.000000     96.000000
  0.000000  0.431536  0.000000     48.000000
  0.913542  0.000000  0.000000     48.000000
  0.000000  0.527432  0.000000     48.000000
 


--------------------------------------------------------------------------------------------------------




 Dimension of arrays:
   k-points           NKPTS =     42   k-points in BZ     NKDIM =     42   number of bands    NBANDS=     24
   number of dos      NEDOS =    301   number of ions     NIONS =      2
   non local maximal  LDIM  =      4   non local SUM 2l+1 LMDIM =      8
   total plane-waves  NPLWV = 169344
   max r-space proj   IRMAX =      1   max aug-charges    IRDMAX=   3024
   dimension x,y,z NGX =    24 NGY =   24 NGZ =  294
   dimension x,y,z NGXF=    36 NGYF=   36 NGZF=  420
   support grid    NGXF=    36 NGYF=   36 NGZF=  420
   ions per type =               2
   NGX,Y,Z   is equivalent  to a cutoff of  16.16, 16.16, 16.14 a.u.
   NGXF,Y,Z  is equivalent  to a cutoff of  24.25, 24.25, 23.06 a.u.

 SYSTEM =  unknown system                          
 POSCAR =  graphene                                

 Startparameter for this run:
   NWRITE =      2    write-flag & timer
   PREC   = high      normal or accurate (medium, high low for compatibility)
   ISTART =      0    job   : 0-new  1-cont  2-samecut
   ICHARG =      2    charge: 1-file 2-atom 10-const
   ISPIN  =      1    spin polarized calculation?
   LNONCOLLINEAR =      F non collinear calculations
   LSORBIT =      F    spin-orbit coupling
   INIWAV =      1    electr: 0-lowe 1-rand  2-diag
   LASPH  =      F    aspherical Exc in radial PAW
   METAGGA=      F    non-selfconsistent MetaGGA calc.

 Electronic Relaxation 1
   ENCUT  =  875.0 eV  64.31 Ry    8.02 a.u.   5.95  5.95 73.04*2*pi/ulx,y,z
   ENINI  =  875.0     initial cutoff
   ENAUG  =  946.8 eV  augmentation charge cutoff
   NELM   =     40;   NELMIN=  2; NELMDL=  0     # of ELM steps 
   EDIFF  = 0.1E-06   stopping-criterion for ELM
   LREAL  =      F    real-space projection
   NLSPLINE    = F    spline interpolate recip. space projectors
   LCOMPAT=      F    compatible to vasp.4.4
   GGA_COMPAT  = T    GGA compatible to vasp.4.4-vasp.4.6
   LMAXPAW     = -100 max onsite density
   LMAXMIX     =    2 max onsite mixed and CHGCAR
   VOSKOWN=      0    Vosko Wilk Nusair interpolation
   ROPT   =    0.00000
 Ionic relaxation
   EDIFFG = -.1E-01   stopping-criterion for IOM
   NSW    =    100    number of steps for IOM
   NBLOCK =      1;   KBLOCK =    100    inner block; outer block 
   IBRION =      2    ionic relax: 0-MD 1-quasi-New 2-CG
   NFREE  =      1    steps in history (QN), initial steepest desc. (CG)
   ISIF   =      2    stress and relaxation
   IWAVPR =     11    prediction:  0-non 1-charg 2-wave 3-comb
   ISYM   =      2    0-nonsym 1-usesym 2-fastsym
   LCORR  =      T    Harris-Foulkes like correction to forces

   POTIM  = 0.5000    time-step for ionic-motion
   TEIN   =    0.0    initial temperature
   TEBEG  =    0.0;   TEEND  =   0.0 temperature during run
   SMASS  =  -3.00    Nose mass-parameter (am)
   estimated Nose-frequenzy (Omega)   =  0.10E-29 period in steps =****** mass=  -0.139E-27a.u.
   SCALEE = 1.0000    scale energy and forces
   NPACO  =    256;   APACO  = 16.0  distance and # of slots for P.C.
   PSTRESS=    0.0 pullay stress

  Mass of Ions in am
   POMASS =  12.01
  Ionic Valenz
   ZVAL   =   4.00
  Atomic Wigner-Seitz radii
   RWIGS  =  -1.00
  virtual crystal weights 
   VCA    =   1.00
   NELECT =       8.0000    total number of electrons
   NUPDOWN=      -1.0000    fix difference up-down

 DOS related values:
   EMIN   =  10.00;   EMAX   =-10.00  energy-range for DOS
   EFERMI =   0.00
   ISMEAR =     0;   SIGMA  =   0.05  broadening in eV -4-tet -1-fermi 0-gaus

 Electronic relaxation 2 (details)
   IALGO  =     48    algorithm
   LDIAG  =      T    sub-space diagonalisation (order eigenvalues)
   LSUBROT=      F    optimize rotation matrix (better conditioning)
   TURBO    =      0    0=normal 1=particle mesh
   IRESTART =      0    0=no restart 2=restart with 2 vectors
   NREBOOT  =      0    no. of reboots
   NMIN     =      0    reboot dimension
   EREF     =   0.00    reference energy to select bands
   IMIX   =      4    mixing-type and parameters
     AMIX     =   0.40;   BMIX     =  1.00
     AMIX_MAG =   1.60;   BMIX_MAG =  1.00
     AMIN     =   0.10
     WC   =   100.;   INIMIX=   1;  MIXPRE=   1;  MAXMIX= -45

 Intra band minimization:
   WEIMIN = 0.0010     energy-eigenvalue tresh-hold
   EBREAK =  0.10E-08  absolut break condition
   DEPER  =   0.30     relativ break condition  

   TIME   =   0.40     timestep for ELM

  volume/ion in A,a.u.               =      79.90       539.17
  Fermi-wavevector in a.u.,A,eV,Ry     =   0.603373  1.140209  4.953315  0.364058
  Thomas-Fermi vector in A             =   1.656329
 
 Write flags
   LWAVE        =      F    write WAVECAR
   LDOWNSAMPLE  =      F    k-point downsampling of WAVECAR
   LCHARG       =      F    write CHGCAR
   LVTOT        =      F    write LOCPOT, total local potential
   LVHAR        =      F    write LOCPOT, Hartree potential only
   LELF         =      F    write electronic localiz. function (ELF)
   LORBIT       =      0    0 simple, 1 ext, 2 COOP (PROOUT), +10 PAW based schemes


 Dipole corrections
   LMONO  =      F    monopole corrections only (constant potential shift)
   LDIPOL =      F    correct potential (dipole corrections)
   IDIPOL =      0    1-x, 2-y, 3-z, 4-all directions 
   EPSILON=  1.0000000 bulk dielectric constant

 Exchange correlation treatment:
   GGA     =    --    GGA type
   LEXCH   =     8    internal setting for exchange type
   VOSKOWN=      0    Vosko Wilk Nusair interpolation
   LHFCALC =     F    Hartree Fock is set to
   LHFONE  =     F    Hartree Fock one center treatment
   AEXX    =    0.0000 exact exchange contribution

 Linear response parameters
   LEPSILON=     F    determine dielectric tensor
   LRPA    =     F    only Hartree local field effects (RPA)
   LNABLA  =     F    use nabla operator in PAW spheres
   LVEL    =     F    velocity operator in full k-point grid
   LINTERFAST=   F  fast interpolation
   KINTER  =     0    interpolate to denser k-point grid
   CSHIFT  =0.1000    complex shift for real part using Kramers Kronig
   OMEGAMAX=  -1.0    maximum frequency
   DEG_THRESHOLD= 0.2000000E-02 threshold for treating states as degnerate
   RTIME   =   -0.100 relaxation time in fs
  (WPLASMAI=    0.000 imaginary part of plasma frequency in eV, 0.658/RTIME)
   DFIELD  = 0.0000000 0.0000000 0.0000000 field for delta impulse in time
 
 Orbital magnetization related:
   ORBITALMAG=     F  switch on orbital magnetization
   LCHIMAG   =     F  perturbation theory with respect to B field
   DQ        =  0.001000  dq finite difference perturbation B field
   LLRAUG    =     F  two centre corrections for induced B field



--------------------------------------------------------------------------------------------------------


 conjugate gradient relaxation of ions
 charge density and potential will be updated during run
 non-spin polarized calculation
 RMM-DIIS sequential band-by-band
 perform sub-space diagonalisation
    before iterative eigenvector-optimisation
 modified Broyden-mixing scheme, WC =      100.0
 initial mixing is a Kerker type mixing with AMIX =  0.4000 and BMIX =      1.0000
 Hartree-type preconditioning will be used
 using additional bands           20
 reciprocal scheme for non local part
 use partial core corrections
 calculate Harris-corrections to forces 
   (improved forces if not selfconsistent)
 use gradient corrections 
 use of overlap-Matrix (Vanderbilt PP)
 Gauss-broadening in eV      SIGMA  =   0.05


--------------------------------------------------------------------------------------------------------


  energy-cutoff  :      875.00
  volume of cell :      159.79
      direct lattice vectors                 reciprocal lattice vectors
     1.234206912 -2.137714457  0.000000000     0.405118457 -0.233894662  0.000000000
     1.234206912  2.137714457  0.000000000     0.405118457  0.233894662  0.000000000
     0.000000000  0.000000000 30.282393743     0.000000000  0.000000000  0.033022489

  length of vectors
     2.468418482  2.468418482 30.282393743     0.467790206  0.467790206  0.033022489


 
 k-points in units of 2pi/SCALE and weight: K-Mesh Generated with KP-Resolved Value 
   0.08304928  0.00000000  0.00000000       0.014
   0.16609857 -0.04794841  0.00000000       0.028
   0.24914785 -0.09589681  0.00000000       0.028
   0.33219713 -0.14384522  0.00000000       0.028
   0.41524642 -0.19179362  0.00000000       0.028
   0.49829570 -0.23974203  0.00000000       0.028
  -0.41524642  0.28769043  0.00000000       0.028
  -0.33219713  0.23974203  0.00000000       0.028
  -0.24914785  0.19179362  0.00000000       0.028
  -0.16609857  0.14384522  0.00000000       0.028
  -0.08304928  0.09589681  0.00000000       0.028
   0.00000000  0.04794841  0.00000000       0.014
   0.24914785  0.00000000  0.00000000       0.014
   0.33219713 -0.04794841  0.00000000       0.028
   0.41524642 -0.09589681  0.00000000       0.028
   0.49829570 -0.14384522  0.00000000       0.028
   0.58134499 -0.19179362  0.00000000       0.028
  -0.33219713  0.33563884  0.00000000       0.028
  -0.24914785  0.28769043  0.00000000       0.028
  -0.16609857  0.23974203  0.00000000       0.028
  -0.08304928  0.19179362  0.00000000       0.028
   0.00000000  0.14384522  0.00000000       0.014
   0.41524642  0.00000000  0.00000000       0.014
   0.49829570 -0.04794841  0.00000000       0.028
   0.58134499 -0.09589681  0.00000000       0.028
   0.66439427 -0.14384522  0.00000000       0.028
  -0.24914785  0.38358725  0.00000000       0.028
  -0.16609857  0.33563884  0.00000000       0.028
  -0.08304928  0.28769043  0.00000000       0.028
   0.00000000  0.23974203  0.00000000       0.014
   0.58134499  0.00000000  0.00000000       0.014
   0.66439427 -0.04794841  0.00000000       0.028
   0.74744355 -0.09589681  0.00000000       0.028
  -0.16609857  0.43153565  0.00000000       0.028
  -0.08304928  0.38358725  0.00000000       0.028
   0.00000000  0.33563884  0.00000000       0.014
   0.74744355  0.00000000  0.00000000       0.014
   0.83049284 -0.04794841  0.00000000       0.028
  -0.08304928  0.47948406  0.00000000       0.028
   0.00000000  0.43153565  0.00000000       0.014
   0.91354212  0.00000000  0.00000000       0.014
   0.00000000  0.52743246  0.00000000       0.014
 
 k-points in reciprocal lattice and weights: K-Mesh Generated with KP-Resolved Value 
   0.04166667  0.04166667  0.00000000       0.014
   0.12500000  0.04166667  0.00000000       0.028
   0.20833333  0.04166667  0.00000000       0.028
   0.29166667  0.04166667  0.00000000       0.028
   0.37500000  0.04166667  0.00000000       0.028
   0.45833333  0.04166667  0.00000000       0.028
  -0.45833333  0.04166667  0.00000000       0.028
  -0.37500000  0.04166667  0.00000000       0.028
  -0.29166667  0.04166667  0.00000000       0.028
  -0.20833333  0.04166667  0.00000000       0.028
  -0.12500000  0.04166667  0.00000000       0.028
  -0.04166667  0.04166667  0.00000000       0.014
   0.12500000  0.12500000  0.00000000       0.014
   0.20833333  0.12500000  0.00000000       0.028
   0.29166667  0.12500000  0.00000000       0.028
   0.37500000  0.12500000  0.00000000       0.028
   0.45833333  0.12500000  0.00000000       0.028
  -0.45833333  0.12500000  0.00000000       0.028
  -0.37500000  0.12500000  0.00000000       0.028
  -0.29166667  0.12500000  0.00000000       0.028
  -0.20833333  0.12500000  0.00000000       0.028
  -0.12500000  0.12500000  0.00000000       0.014
   0.20833333  0.20833333  0.00000000       0.014
   0.29166667  0.20833333  0.00000000       0.028
   0.37500000  0.20833333  0.00000000       0.028
   0.45833333  0.20833333  0.00000000       0.028
  -0.45833333  0.20833333  0.00000000       0.028
  -0.37500000  0.20833333  0.00000000       0.028
  -0.29166667  0.20833333  0.00000000       0.028
  -0.20833333  0.20833333  0.00000000       0.014
   0.29166667  0.29166667  0.00000000       0.014
   0.37500000  0.29166667  0.00000000       0.028
   0.45833333  0.29166667  0.00000000       0.028
  -0.45833333  0.29166667  0.00000000       0.028
  -0.37500000  0.29166667  0.00000000       0.028
  -0.29166667  0.29166667  0.00000000       0.014
   0.37500000  0.37500000  0.00000000       0.014
   0.45833333  0.37500000  0.00000000       0.028
  -0.45833333  0.37500000  0.00000000       0.028
  -0.37500000  0.37500000  0.00000000       0.014
   0.45833333  0.45833333  0.00000000       0.014
  -0.45833333  0.45833333  0.00000000       0.014
 
 position of ions in fractional coordinates (direct lattice) 
   0.00000262  0.99999738  0.50000000
   0.66666738  0.33333262  0.50000000
 
 position of ions in cartesian coordinates  (Angst):
   1.23420691  2.13770325 15.14119687
   1.23420691 -0.71257453 15.14119687
 


--------------------------------------------------------------------------------------------------------


 k-point  1 :   0.0417 0.0417 0.0000  plane waves:    9276
 k-point  2 :   0.1250 0.0417 0.0000  plane waves:    9298
 k-point  3 :   0.2083 0.0417 0.0000  plane waves:    9340
 k-point  4 :   0.2917 0.0417 0.0000  plane waves:    9383
 k-point  5 :   0.3750 0.0417 0.0000  plane waves:    9372
 k-point  6 :   0.4583 0.0417 0.0000  plane waves:    9416
 k-point  7 :  -0.4583 0.0417 0.0000  plane waves:    9400
 k-point  8 :  -0.3750 0.0417 0.0000  plane waves:    9372
 k-point  9 :  -0.2917 0.0417 0.0000  plane waves:    9363
 k-point 10 :  -0.2083 0.0417 0.0000  plane waves:    9325
 k-point 11 :  -0.1250 0.0417 0.0000  plane waves:    9287
 k-point 12 :  -0.0417 0.0417 0.0000  plane waves:    9259
 k-point 13 :   0.1250 0.1250 0.0000  plane waves:    9346
 k-point 14 :   0.2083 0.1250 0.0000  plane waves:    9382
 k-point 15 :   0.2917 0.1250 0.0000  plane waves:    9421
 k-point 16 :   0.3750 0.1250 0.0000  plane waves:    9429
 k-point 17 :   0.4583 0.1250 0.0000  plane waves:    9442
 k-point 18 :  -0.4583 0.1250 0.0000  plane waves:    9413
 k-point 19 :  -0.3750 0.1250 0.0000  plane waves:    9403
 k-point 20 :  -0.2917 0.1250 0.0000  plane waves:    9372
 k-point 21 :  -0.2083 0.1250 0.0000  plane waves:    9317
 k-point 22 :  -0.1250 0.1250 0.0000  plane waves:    9281
 k-point 23 :   0.2083 0.2083 0.0000  plane waves:    9414
 k-point 24 :   0.2917 0.2083 0.0000  plane waves:    9432
 k-point 25 :   0.3750 0.2083 0.0000  plane waves:    9472
 k-point 26 :   0.4583 0.2083 0.0000  plane waves:    9448
 k-point 27 :  -0.4583 0.2083 0.0000  plane waves:    9421
 k-point 28 :  -0.3750 0.2083 0.0000  plane waves:    9402
 k-point 29 :  -0.2917 0.2083 0.0000  plane waves:    9368
 k-point 30 :  -0.2083 0.2083 0.0000  plane waves:    9346
 k-point 31 :   0.2917 0.2917 0.0000  plane waves:    9456
 k-point 32 :   0.3750 0.2917 0.0000  plane waves:    9460
 k-point 33 :   0.4583 0.2917 0.0000  plane waves:    9447
 k-point 34 :  -0.4583 0.2917 0.0000  plane waves:    9423
 k-point 35 :  -0.3750 0.2917 0.0000  plane waves:    9386
 k-point 36 :  -0.2917 0.2917 0.0000  plane waves:    9368
 k-point 37 :   0.3750 0.3750 0.0000  plane waves:    9480
 k-point 38 :   0.4583 0.3750 0.0000  plane waves:    9459
 k-point 39 :  -0.4583 0.3750 0.0000  plane waves:    9390
 k-point 40 :  -0.3750 0.3750 0.0000  plane waves:    9368
 k-point 41 :   0.4583 0.4583 0.0000  plane waves:    9416
 k-point 42 :  -0.4583 0.4583 0.0000  plane waves:    9414

 maximum and minimum number of plane-waves per node :      9480     9259

 maximum number of plane-waves:      9480
 maximum index in each direction: 
   IXMAX=    6   IYMAX=    5   IZMAX=   73
   IXMIN=   -6   IYMIN=   -6   IZMIN=  -73


 serial   3D FFT for wavefunctions
 parallel 3D FFT for charge:
    minimum data exchange during FFTs selected (reduces bandwidth)


 total amount of memory used by VASP MPI-rank0    72099. kBytes
=======================================================================

   base      :      30000. kBytes
   nonl-proj :      25785. kBytes
   fftplans  :       1683. kBytes
   grid      :       8239. kBytes
   one-center:          6. kBytes
   wavefun   :       6386. kBytes
 
     INWAV:  cpu time    0.0000: real time    0.0000
 Broyden mixing: mesh for mixing (old mesh)
   NGX = 11   NGY = 11   NGZ =147
  (NGX  = 36   NGY  = 36   NGZ  =420)
  gives a total of  17787 points

 initial charge density was supplied:
 charge density of overlapping atoms calculated
 number of electron       8.0000000 magnetization 
 keeping initial charge density in first step


--------------------------------------------------------------------------------------------------------


 Maximum index for augmentation-charges          213 (set IRDMAX)


--------------------------------------------------------------------------------------------------------


 First call to EWALD:  gamma=   0.327
 Maximum number of real-space cells 6x 6x 1
 Maximum number of reciprocal cells 2x 2x13

    FEWALD:  cpu time    0.0020: real time    0.0064


--------------------------------------- Iteration      1(   1)  ---------------------------------------


    POTLOK:  cpu time    0.0350: real time    0.0663
    SETDIJ:  cpu time    0.0140: real time    0.0251
    EDDIAG:  cpu time    0.6479: real time    0.7766
  RMM-DIIS:  cpu time    1.2038: real time    1.2197
    ORTHCH:  cpu time    0.0300: real time    0.0309
       DOS:  cpu time    0.0030: real time    0.0121
    --------------------------------------------
      LOOP:  cpu time    1.9337: real time    2.1317

 eigenvalue-minimisations  :  1008
 total energy-change (2. order) : 0.1010117E+03  (-0.1524235E+03)
 number of electron       8.0000000 magnetization 
 augmentation part        8.0000000 magnetization 

 Free energy of the ion-electron system (eV)
  ---------------------------------------------------
  alpha Z        PSCENC =         1.37229364
  Ewald energy   TEWEN  =      2231.99941425
  -Hartree energ DENC   =     -2438.22213201
  -exchange      EXHF   =         0.00000000
  -V(xc)+E(xc)   XCENC  =        14.48577738
  PAW double counting   =       228.69403340     -218.18290438
  entropy T*S    EENTRO =        -0.00158473
  eigenvalues    EBANDS =       -13.43640841
  atomic energy  EATOM  =       294.30319316
  Solvation  Ediel_sol  =         0.00000000
  ---------------------------------------------------
  free energy    TOTEN  =       101.01168232 eV

  energy without entropy =      101.01326705  energy(sigma->0) =      101.01247468


--------------------------------------------------------------------------------------------------------




--------------------------------------- Iteration      1(   2)  ---------------------------------------


    EDDIAG:  cpu time    0.6209: real time    0.6345
  RMM-DIIS:  cpu time    1.1988: real time    1.2027
    ORTHCH:  cpu time    0.0300: real time    0.0305
       DOS:  cpu time    0.0010: real time    0.0007
    --------------------------------------------
      LOOP:  cpu time    1.8507: real time    1.8675

 eigenvalue-minimisations  :  1008
 total energy-change (2. order) :-0.4863448E+02  (-0.2765591E+02)
 number of electron       8.0000000 magnetization 
 augmentation part        8.0000000 magnetization 

 Free energy of the ion-electron system (eV)
  ---------------------------------------------------
  alpha Z        PSCENC =         1.37229364
  Ewald energy   TEWEN  =      2231.99941425
  -Hartree energ DENC   =     -2438.22213201
  -exchange      EXHF   =         0.00000000
  -V(xc)+E(xc)   XCENC  =        14.48577738
  PAW double counting   =       228.69403340     -218.18290438
  entropy T*S    EENTRO =        -0.00514011
  eigenvalues    EBANDS =       -62.06733256
  atomic energy  EATOM  =       294.30319316
  Solvation  Ediel_sol  =         0.00000000
  ---------------------------------------------------
  free energy    TOTEN  =        52.37720279 eV

  energy without entropy =       52.38234290  energy(sigma->0) =       52.37977284


--------------------------------------------------------------------------------------------------------




--------------------------------------- Iteration      1(   3)  ---------------------------------------


    EDDIAG:  cpu time    0.6209: real time    0.6338
  RMM-DIIS:  cpu time    1.1868: real time    1.1904
    ORTHCH:  cpu time    0.0310: real time    0.0305
       DOS:  cpu time    0.0000: real time    0.0007
    --------------------------------------------
      LOOP:  cpu time    1.8387: real time    1.8554

 eigenvalue-minimisations  :  1008
 total energy-change (2. order) :-0.4173246E+02  (-0.2092054E+02)
 number of electron       8.0000000 magnetization 
 augmentation part        8.0000000 magnetization 

 Free energy of the ion-electron system (eV)
  ---------------------------------------------------
  alpha Z        PSCENC =         1.37229364
  Ewald energy   TEWEN  =      2231.99941425
  -Hartree energ DENC   =     -2438.22213201
  -exchange      EXHF   =         0.00000000
  -V(xc)+E(xc)   XCENC  =        14.48577738
  PAW double counting   =       228.69403340     -218.18290438
  entropy T*S    EENTRO =        -0.00132193
  eigenvalues    EBANDS =      -103.80361030
  atomic energy  EATOM  =       294.30319316
  Solvation  Ediel_sol  =         0.00000000
  ---------------------------------------------------
  free energy    TOTEN  =        10.64474322 eV

  energy without entropy =       10.64606516  energy(sigma->0) =       10.64540419


--------------------------------------------------------------------------------------------------------




--------------------------------------- Iteration      1(   4)  ---------------------------------------


    EDDIAG:  cpu time    0.6209: real time    0.6350
  RMM-DIIS:  cpu time    1.1938: real time    1.1957
    ORTHCH:  cpu time    0.0310: real time    0.0304
       DOS:  cpu time    0.0000: real time    0.0007
    --------------------------------------------
      LOOP:  cpu time    1.8457: real time    1.8618

 eigenvalue-minimisations  :  1008
 total energy-change (2. order) :-0.2388833E+02  (-0.1347702E+02)
 number of electron       8.0000000 magnetization 
 augmentation part        8.0000000 magnetization 

 Free energy of the ion-electron system (eV)
  ---------------------------------------------------
  alpha Z        PSCENC =         1.37229364
  Ewald energy   TEWEN  =      2231.99941425
  -Hartree energ DENC   =     -2438.22213201
  -exchange      EXHF   =         0.00000000
  -V(xc)+E(xc)   XCENC  =        14.48577738
  PAW double counting   =       228.69403340     -218.18290438
  entropy T*S    EENTRO =        -0.00046219
  eigenvalues    EBANDS =      -127.69280473
  atomic energy  EATOM  =       294.30319316
  Solvation  Ediel_sol  =         0.00000000
  ---------------------------------------------------
  free energy    TOTEN  =       -13.24359146 eV

  energy without entropy =      -13.24312928  energy(sigma->0) =      -13.24336037


--------------------------------------------------------------------------------------------------------




--------------------------------------- Iteration      1(   5)  ---------------------------------------


    EDDIAG:  cpu time    0.6219: real time    0.6346
  RMM-DIIS:  cpu time    1.1978: real time    1.2006
    ORTHCH:  cpu time    0.0300: real time    0.0306
       DOS:  cpu time    0.0000: real time    0.0004
    --------------------------------------------
      LOOP:  cpu time    1.8507: real time    1.8662

 eigenvalue-minimisations  :  1008
 total energy-change (2. order) :-0.5096420E+01  (-0.3846332E+01)
 number of electron       8.0000000 magnetization 
 augmentation part        8.0000000 magnetization 

 Free energy of the ion-electron system (eV)
  ---------------------------------------------------
  alpha Z        PSCENC =         1.37229364
  Ewald energy   TEWEN  =      2231.99941425
  -Hartree energ DENC   =     -2438.22213201
  -exchange      EXHF   =         0.00000000
  -V(xc)+E(xc)   XCENC  =        14.48577738
  PAW double counting   =       228.69403340     -218.18290438
  entropy T*S    EENTRO =        -0.00000000
  eigenvalues    EBANDS =      -132.78968648
  atomic energy  EATOM  =       294.30319316
  Solvation  Ediel_sol  =         0.00000000
  ---------------------------------------------------
  free energy    TOTEN  =       -18.34001102 eV

  energy without entropy =      -18.34001102  energy(sigma->0) =      -18.34001102


--------------------------------------------------------------------------------------------------------




--------------------------------------- Iteration      1(   6)  ---------------------------------------


    EDDIAG:  cpu time    0.6229: real time    0.6374
  RMM-DIIS:  cpu time    1.1958: real time    1.1989
    ORTHCH:  cpu time    0.0300: real time    0.0304
       DOS:  cpu time    0.0010: real time    0.0005
    --------------------------------------------
      LOOP:  cpu time    1.8487: real time    1.8672

 eigenvalue-minimisations  :  1008
 total energy-change (2. order) :-0.1062644E+01  (-0.8729896E+00)
 number of electron       8.0000000 magnetization 
 augmentation part        8.0000000 magnetization 

 Free energy of the ion-electron system (eV)
  ---------------------------------------------------
  alpha Z        PSCENC =         1.37229364
  Ewald energy   TEWEN  =      2231.99941425
  -Hartree energ DENC   =     -2438.22213201
  -exchange      EXHF   =         0.00000000
  -V(xc)+E(xc)   XCENC  =        14.48577738
  PAW double counting   =       228.69403340     -218.18290438
  entropy T*S    EENTRO =        -0.00000000
  eigenvalues    EBANDS =      -133.85233010
  atomic energy  EATOM  =       294.30319316
  Solvation  Ediel_sol  =         0.00000000
  ---------------------------------------------------
  free energy    TOTEN  =       -19.40265464 eV

  energy without entropy =      -19.40265464  energy(sigma->0) =      -19.40265464


--------------------------------------------------------------------------------------------------------




--------------------------------------- Iteration      1(   7)  ---------------------------------------


    EDDIAG:  cpu time    0.6199: real time    0.6336
  RMM-DIIS:  cpu time    1.2018: real time    1.2045
    ORTHCH:  cpu time    0.0300: real time    0.0305
       DOS:  cpu time    0.0010: real time    0.0004
    --------------------------------------------
      LOOP:  cpu time    1.8527: real time    1.8689

 eigenvalue-minimisations  :  1008
 total energy-change (2. order) :-0.2356671E+00  (-0.1970147E+00)
 number of electron       8.0000000 magnetization 
 augmentation part        8.0000000 magnetization 

 Free energy of the ion-electron system (eV)
  ---------------------------------------------------
  alpha Z        PSCENC =         1.37229364
  Ewald energy   TEWEN  =      2231.99941425
  -Hartree energ DENC   =     -2438.22213201
  -exchange      EXHF   =         0.00000000
  -V(xc)+E(xc)   XCENC  =        14.48577738
  PAW double counting   =       228.69403340     -218.18290438
  entropy T*S    EENTRO =        -0.00000000
  eigenvalues    EBANDS =      -134.08799716
  atomic energy  EATOM  =       294.30319316
  Solvation  Ediel_sol  =         0.00000000
  ---------------------------------------------------
  free energy    TOTEN  =       -19.63832170 eV

  energy without entropy =      -19.63832170  energy(sigma->0) =      -19.63832170


--------------------------------------------------------------------------------------------------------




--------------------------------------- Iteration      1(   8)  ---------------------------------------


    EDDIAG:  cpu time    0.6209: real time    0.6340
  RMM-DIIS:  cpu time    1.2078: real time    1.2129
    ORTHCH:  cpu time    0.0300: real time    0.0305
       DOS:  cpu time    0.0000: real time    0.0004
    --------------------------------------------
      LOOP:  cpu time    1.8597: real time    1.8779

 eigenvalue-minimisations  :  1008
 total energy-change (2. order) :-0.6219525E-01  (-0.5082914E-01)
 number of electron       8.0000000 magnetization 
 augmentation part        8.0000000 magnetization 

 Free energy of the ion-electron system (eV)
  ---------------------------------------------------
  alpha Z        PSCENC =         1.37229364
  Ewald energy   TEWEN  =      2231.99941425
  -Hartree energ DENC   =     -2438.22213201
  -exchange      EXHF   =         0.00000000
  -V(xc)+E(xc)   XCENC  =        14.48577738
  PAW double counting   =       228.69403340     -218.18290438
  entropy T*S    EENTRO =        -0.00000000
  eigenvalues    EBANDS =      -134.15019240
  atomic energy  EATOM  =       294.30319316
  Solvation  Ediel_sol  =         0.00000000
  ---------------------------------------------------
  free energy    TOTEN  =       -19.70051695 eV

  energy without entropy =      -19.70051695  energy(sigma->0) =      -19.70051695


--------------------------------------------------------------------------------------------------------




--------------------------------------- Iteration      1(   9)  ---------------------------------------


    EDDIAG:  cpu time    0.6209: real time    0.6299
  RMM-DIIS:  cpu time    2.2727: real time    2.3130
    ORTHCH:  cpu time    0.0310: real time    0.0305
       DOS:  cpu time    0.0000: real time    0.0004
    --------------------------------------------
      LOOP:  cpu time    2.9236: real time    2.9739

 eigenvalue-minimisations  :  2022
 total energy-change (2. order) :-0.2250450E-01  (-0.1947768E-01)
 number of electron       8.0000000 magnetization 
 augmentation part        8.0000000 magnetization 

 Free energy of the ion-electron system (eV)
  ---------------------------------------------------
  alpha Z        PSCENC =         1.37229364
  Ewald energy   TEWEN  =      2231.99941425
  -Hartree energ DENC   =     -2438.22213201
  -exchange      EXHF   =         0.00000000
  -V(xc)+E(xc)   XCENC  =        14.48577738
  PAW double counting   =       228.69403340     -218.18290438
  entropy T*S    EENTRO =        -0.00000000
  eigenvalues    EBANDS =      -134.17269690
  atomic energy  EATOM  =       294.30319316
  Solvation  Ediel_sol  =         0.00000000
  ---------------------------------------------------
  free energy    TOTEN  =       -19.72302144 eV

  energy without entropy =      -19.72302144  energy(sigma->0) =      -19.72302144


--------------------------------------------------------------------------------------------------------




--------------------------------------- Iteration      1(  10)  ---------------------------------------


    EDDIAG:  cpu time    0.6219: real time    0.6323
  RMM-DIIS:  cpu time    2.5946: real time    2.6017
    ORTHCH:  cpu time    0.0300: real time    0.0305
       DOS:  cpu time    0.0000: real time    0.0004
    --------------------------------------------
      LOOP:  cpu time    3.2465: real time    3.2650

 eigenvalue-minimisations  :  2069
 total energy-change (2. order) :-0.4189401E-02  (-0.3581715E-02)
 number of electron       8.0000000 magnetization 
 augmentation part        8.0000000 magnetization 

 Free energy of the ion-electron system (eV)
  ---------------------------------------------------
  alpha Z        PSCENC =         1.37229364
  Ewald energy   TEWEN  =      2231.99941425
  -Hartree energ DENC   =     -2438.22213201
  -exchange      EXHF   =         0.00000000
  -V(xc)+E(xc)   XCENC  =        14.48577738
  PAW double counting   =       228.69403340     -218.18290438
  entropy T*S    EENTRO =        -0.00000000
  eigenvalues    EBANDS =      -134.17688630
  atomic energy  EATOM  =       294.30319316
  Solvation  Ediel_sol  =         0.00000000
  ---------------------------------------------------
  free energy    TOTEN  =       -19.72721084 eV

  energy without entropy =      -19.72721084  energy(sigma->0) =      -19.72721084


--------------------------------------------------------------------------------------------------------




--------------------------------------- Iteration      1(  11)  ---------------------------------------


    EDDIAG:  cpu time    0.6309: real time    0.6338
  RMM-DIIS:  cpu time    2.2987: real time    2.3078
    ORTHCH:  cpu time    0.0310: real time    0.0306
       DOS:  cpu time    0.0000: real time    0.0004
    --------------------------------------------
      LOOP:  cpu time    2.9605: real time    2.9726

 eigenvalue-minimisations  :  2029
 total energy-change (2. order) :-0.1591469E-03  (-0.1253559E-03)
 number of electron       8.0000000 magnetization 
 augmentation part        8.0000000 magnetization 

 Free energy of the ion-electron system (eV)
  ---------------------------------------------------
  alpha Z        PSCENC =         1.37229364
  Ewald energy   TEWEN  =      2231.99941425
  -Hartree energ DENC   =     -2438.22213201
  -exchange      EXHF   =         0.00000000
  -V(xc)+E(xc)   XCENC  =        14.48577738
  PAW double counting   =       228.69403340     -218.18290438
  entropy T*S    EENTRO =        -0.00000000
  eigenvalues    EBANDS =      -134.17704545
  atomic energy  EATOM  =       294.30319316
  Solvation  Ediel_sol  =         0.00000000
  ---------------------------------------------------
  free energy    TOTEN  =       -19.72736999 eV

  energy without entropy =      -19.72736999  energy(sigma->0) =      -19.72736999


--------------------------------------------------------------------------------------------------------




--------------------------------------- Iteration      1(  12)  ---------------------------------------


    EDDIAG:  cpu time    0.6209: real time    0.6339
  RMM-DIIS:  cpu time    2.5116: real time    2.5184
    ORTHCH:  cpu time    0.0310: real time    0.0304
       DOS:  cpu time    0.0000: real time    0.0004
    CHARGE:  cpu time    0.1730: real time    0.2125
    MIXING:  cpu time    0.0020: real time    0.0132
    --------------------------------------------
      LOOP:  cpu time    3.3385: real time    3.4088

 eigenvalue-minimisations  :  2053
 total energy-change (2. order) :-0.2901383E-04  (-0.2348149E-04)
 number of electron       8.0000001 magnetization 
 augmentation part       -0.0156778 magnetization 

 Broyden mixing:
  rms(total) = 0.91108E+00    rms(broyden)= 0.91101E+00
  rms(prec ) = 0.92454E+00
  weight for this iteration     100.00

 Free energy of the ion-electron system (eV)
  ---------------------------------------------------
  alpha Z        PSCENC =         1.37229364
  Ewald energy   TEWEN  =      2231.99941425
  -Hartree energ DENC   =     -2438.22213201
  -exchange      EXHF   =         0.00000000
  -V(xc)+E(xc)   XCENC  =        14.48577738
  PAW double counting   =       228.69403340     -218.18290438
  entropy T*S    EENTRO =        -0.00000000
  eigenvalues    EBANDS =      -134.17707446
  atomic energy  EATOM  =       294.30319316
  Solvation  Ediel_sol  =         0.00000000
  ---------------------------------------------------
  free energy    TOTEN  =       -19.72739900 eV

  energy without entropy =      -19.72739900  energy(sigma->0) =      -19.72739900


--------------------------------------------------------------------------------------------------------




--------------------------------------- Iteration      1(  13)  ---------------------------------------


    POTLOK:  cpu time    0.0230: real time    0.0310
    SETDIJ:  cpu time    0.0010: real time    0.0017
    EDDIAG:  cpu time    0.6159: real time    0.6163
  RMM-DIIS:  cpu time    2.2247: real time    2.2315
    ORTHCH:  cpu time    0.0310: real time    0.0313
       DOS:  cpu time    0.0010: real time    0.0005
    CHARGE:  cpu time    0.1650: real time    0.1651
    MIXING:  cpu time    0.0030: real time    0.0146
    --------------------------------------------
      LOOP:  cpu time    3.0645: real time    3.0920

 eigenvalue-minimisations  :  2016
 total energy-change (2. order) : 0.8851181E+00  (-0.4390766E-01)
 number of electron       8.0000001 magnetization 
 augmentation part       -0.0180801 magnetization 

 Broyden mixing:
  rms(total) = 0.59385E+00    rms(broyden)= 0.59385E+00
  rms(prec ) = 0.60014E+00
  weight for this iteration     100.00

 eigenvalues of (default mixing * dielectric matrix)
  average eigenvalue GAMMA=   2.6439
  2.6439

 Free energy of the ion-electron system (eV)
  ---------------------------------------------------
  alpha Z        PSCENC =         1.37229364
  Ewald energy   TEWEN  =      2231.99941425
  -Hartree energ DENC   =     -2449.52035288
  -exchange      EXHF   =         0.00000000
  -V(xc)+E(xc)   XCENC  =        14.93158434
  PAW double counting   =       997.99711986     -987.60969079
  entropy T*S    EENTRO =        -0.00000000
  eigenvalues    EBANDS =      -122.31584250
  atomic energy  EATOM  =       294.30319316
  Solvation  Ediel_sol  =         0.00000000
  ---------------------------------------------------
  free energy    TOTEN  =       -18.84228091 eV

  energy without entropy =      -18.84228091  energy(sigma->0) =      -18.84228091


--------------------------------------------------------------------------------------------------------




--------------------------------------- Iteration      1(  14)  ---------------------------------------


    POTLOK:  cpu time    0.0220: real time    0.0300
    SETDIJ:  cpu time    0.0010: real time    0.0017
    EDDIAG:  cpu time    0.6139: real time    0.6147
  RMM-DIIS:  cpu time    2.2087: real time    2.2157
    ORTHCH:  cpu time    0.0310: real time    0.0309
       DOS:  cpu time    0.0000: real time    0.0005
    CHARGE:  cpu time    0.1650: real time    0.1653
    MIXING:  cpu time    0.0030: real time    0.0072
    --------------------------------------------
      LOOP:  cpu time    3.0445: real time    3.0659

 eigenvalue-minimisations  :  2016
 total energy-change (2. order) : 0.3330439E+00  (-0.9267921E-01)
 number of electron       8.0000001 magnetization 
 augmentation part       -0.0211220 magnetization 

 Broyden mixing:
  rms(total) = 0.11691E+00    rms(broyden)= 0.11690E+00
  rms(prec ) = 0.11946E+00
  weight for this iteration     100.00

 eigenvalues of (default mixing * dielectric matrix)
  average eigenvalue GAMMA=   2.2347
  2.2347  2.2347

 Free energy of the ion-electron system (eV)
  ---------------------------------------------------
  alpha Z        PSCENC =         1.37229364
  Ewald energy   TEWEN  =      2231.99941425
  -Hartree energ DENC   =     -2468.07633946
  -exchange      EXHF   =         0.00000000
  -V(xc)+E(xc)   XCENC  =        15.67802783
  PAW double counting   =      3854.02778873    -3843.75039799
  entropy T*S    EENTRO =        -0.00000000
  eigenvalues    EBANDS =      -104.06321721
  atomic energy  EATOM  =       294.30319316
  Solvation  Ediel_sol  =         0.00000000
  ---------------------------------------------------
  free energy    TOTEN  =       -18.50923704 eV

  energy without entropy =      -18.50923704  energy(sigma->0) =      -18.50923704


--------------------------------------------------------------------------------------------------------




--------------------------------------- Iteration      1(  15)  ---------------------------------------


    POTLOK:  cpu time    0.0210: real time    0.0307
    SETDIJ:  cpu time    0.0020: real time    0.0017
    EDDIAG:  cpu time    0.6139: real time    0.6149
  RMM-DIIS:  cpu time    2.3017: real time    2.3084
    ORTHCH:  cpu time    0.0310: real time    0.0310
       DOS:  cpu time    0.0010: real time    0.0005
    CHARGE:  cpu time    0.1650: real time    0.1651
    MIXING:  cpu time    0.0010: real time    0.0041
    --------------------------------------------
      LOOP:  cpu time    3.1365: real time    3.1563

 eigenvalue-minimisations  :  2024
 total energy-change (2. order) : 0.2062230E-01  (-0.2509690E-02)
 number of electron       8.0000001 magnetization 
 augmentation part       -0.0205831 magnetization 

 Broyden mixing:
  rms(total) = 0.12422E-01    rms(broyden)= 0.12420E-01
  rms(prec ) = 0.15958E-01
  weight for this iteration     100.00

 eigenvalues of (default mixing * dielectric matrix)
  average eigenvalue GAMMA=   2.0014
  1.3475  2.3284  2.3284

 Free energy of the ion-electron system (eV)
  ---------------------------------------------------
  alpha Z        PSCENC =         1.37229364
  Ewald energy   TEWEN  =      2231.99941425
  -Hartree energ DENC   =     -2467.18117140
  -exchange      EXHF   =         0.00000000
  -V(xc)+E(xc)   XCENC  =        15.56446265
  PAW double counting   =      4087.36125755    -4077.02366175
  entropy T*S    EENTRO =        -0.00000000
  eigenvalues    EBANDS =      -104.88440285
  atomic energy  EATOM  =       294.30319316
  Solvation  Ediel_sol  =         0.00000000
  ---------------------------------------------------
  free energy    TOTEN  =       -18.48861474 eV

  energy without entropy =      -18.48861474  energy(sigma->0) =      -18.48861474


--------------------------------------------------------------------------------------------------------




--------------------------------------- Iteration      1(  16)  ---------------------------------------


    POTLOK:  cpu time    0.0210: real time    0.0322
    SETDIJ:  cpu time    0.0020: real time    0.0017
    EDDIAG:  cpu time    0.6129: real time    0.6146
  RMM-DIIS:  cpu time    2.3566: real time    2.3635
    ORTHCH:  cpu time    0.0310: real time    0.0310
       DOS:  cpu time    0.0000: real time    0.0005
    CHARGE:  cpu time    0.1660: real time    0.1655
    MIXING:  cpu time    0.0010: real time    0.0009
    --------------------------------------------
      LOOP:  cpu time    3.1905: real time    3.2098

 eigenvalue-minimisations  :  2027
 total energy-change (2. order) : 0.1560463E-02  (-0.4316048E-04)
 number of electron       8.0000001 magnetization 
 augmentation part       -0.0205270 magnetization 

 Broyden mixing:
  rms(total) = 0.82385E-02    rms(broyden)= 0.82383E-02
  rms(prec ) = 0.11453E-01
  weight for this iteration     100.00

 eigenvalues of (default mixing * dielectric matrix)
  average eigenvalue GAMMA=   2.0852
  0.9937  2.5297  2.5297  2.2879

 Free energy of the ion-electron system (eV)
  ---------------------------------------------------
  alpha Z        PSCENC =         1.37229364
  Ewald energy   TEWEN  =      2231.99941425
  -Hartree energ DENC   =     -2468.37834791
  -exchange      EXHF   =         0.00000000
  -V(xc)+E(xc)   XCENC  =        15.57935775
  PAW double counting   =      4140.05055300    -4129.71035234
  entropy T*S    EENTRO =        -0.00000000
  eigenvalues    EBANDS =      -103.70316583
  atomic energy  EATOM  =       294.30319316
  Solvation  Ediel_sol  =         0.00000000
  ---------------------------------------------------
  free energy    TOTEN  =       -18.48705428 eV

  energy without entropy =      -18.48705428  energy(sigma->0) =      -18.48705428


--------------------------------------------------------------------------------------------------------




--------------------------------------- Iteration      1(  17)  ---------------------------------------


    POTLOK:  cpu time    0.0210: real time    0.0312
    SETDIJ:  cpu time    0.0020: real time    0.0017
    EDDIAG:  cpu time    0.6129: real time    0.6142
  RMM-DIIS:  cpu time    2.2387: real time    2.2582
    ORTHCH:  cpu time    0.0330: real time    0.0336
       DOS:  cpu time    0.0000: real time    0.0005
    CHARGE:  cpu time    0.1650: real time    0.1693
    MIXING:  cpu time    0.0010: real time    0.0009
    --------------------------------------------
      LOOP:  cpu time    3.0735: real time    3.1097

 eigenvalue-minimisations  :  2016
 total energy-change (2. order) : 0.1314761E-02  (-0.5660543E-04)
 number of electron       8.0000001 magnetization 
 augmentation part       -0.0205769 magnetization 

 Broyden mixing:
  rms(total) = 0.60858E-02    rms(broyden)= 0.60856E-02
  rms(prec ) = 0.75226E-02
  weight for this iteration     100.00

 eigenvalues of (default mixing * dielectric matrix)
  average eigenvalue GAMMA=   2.1111
  3.7603  2.3594  1.0359  1.8745  1.5254

 Free energy of the ion-electron system (eV)
  ---------------------------------------------------
  alpha Z        PSCENC =         1.37229364
  Ewald energy   TEWEN  =      2231.99941425
  -Hartree energ DENC   =     -2470.70207835
  -exchange      EXHF   =         0.00000000
  -V(xc)+E(xc)   XCENC  =        15.60625644
  PAW double counting   =      4082.35726812    -4072.01872341
  entropy T*S    EENTRO =        -0.00000000
  eigenvalues    EBANDS =      -101.40336338
  atomic energy  EATOM  =       294.30319316
  Solvation  Ediel_sol  =         0.00000000
  ---------------------------------------------------
  free energy    TOTEN  =       -18.48573952 eV

  energy without entropy =      -18.48573952  energy(sigma->0) =      -18.48573952


--------------------------------------------------------------------------------------------------------




--------------------------------------- Iteration      1(  18)  ---------------------------------------


    POTLOK:  cpu time    0.0420: real time    0.0434
    SETDIJ:  cpu time    0.0020: real time    0.0024
    EDDIAG:  cpu time    0.6179: real time    0.6540
  RMM-DIIS:  cpu time    2.1597: real time    2.2781
    ORTHCH:  cpu time    0.0320: real time    0.0311
       DOS:  cpu time    0.0000: real time    0.0005
    CHARGE:  cpu time    0.1640: real time    0.1641
    MIXING:  cpu time    0.0010: real time    0.0021
    --------------------------------------------
      LOOP:  cpu time    3.0185: real time    3.1757

 eigenvalue-minimisations  :  2017
 total energy-change (2. order) : 0.6305328E-04  (-0.1659605E-04)
 number of electron       8.0000001 magnetization 
 augmentation part       -0.0205619 magnetization 

 Broyden mixing:
  rms(total) = 0.57063E-02    rms(broyden)= 0.57062E-02
  rms(prec ) = 0.62820E-02
  weight for this iteration     100.00

 eigenvalues of (default mixing * dielectric matrix)
  average eigenvalue GAMMA=   2.5708
  5.9467  2.9152  2.3898  2.1966  0.9882  0.9882

 Free energy of the ion-electron system (eV)
  ---------------------------------------------------
  alpha Z        PSCENC =         1.37229364
  Ewald energy   TEWEN  =      2231.99941425
  -Hartree energ DENC   =     -2471.94839112
  -exchange      EXHF   =         0.00000000
  -V(xc)+E(xc)   XCENC  =        15.61158715
  PAW double counting   =      4124.18492443    -4113.84183772
  entropy T*S    EENTRO =        -0.00000000
  eigenvalues    EBANDS =      -100.16686026
  atomic energy  EATOM  =       294.30319316
  Solvation  Ediel_sol  =         0.00000000
  ---------------------------------------------------
  free energy    TOTEN  =       -18.48567646 eV

  energy without entropy =      -18.48567646  energy(sigma->0) =      -18.48567646


--------------------------------------------------------------------------------------------------------




--------------------------------------- Iteration      1(  19)  ---------------------------------------


    POTLOK:  cpu time    0.0210: real time    0.0338
    SETDIJ:  cpu time    0.0020: real time    0.0017
    EDDIAG:  cpu time    0.6119: real time    0.6128
  RMM-DIIS:  cpu time    2.2337: real time    2.2396
    ORTHCH:  cpu time    0.0300: real time    0.0308
       DOS:  cpu time    0.0010: real time    0.0005
    CHARGE:  cpu time    0.1640: real time    0.1640
    MIXING:  cpu time    0.0010: real time    0.0010
    --------------------------------------------
      LOOP:  cpu time    3.0645: real time    3.0843

 eigenvalue-minimisations  :  2016
 total energy-change (2. order) :-0.4688739E-03  (-0.1466102E-04)
 number of electron       8.0000001 magnetization 
 augmentation part       -0.0206007 magnetization 

 Broyden mixing:
  rms(total) = 0.15658E-02    rms(broyden)= 0.15657E-02
  rms(prec ) = 0.18406E-02
  weight for this iteration     100.00

 eigenvalues of (default mixing * dielectric matrix)
  average eigenvalue GAMMA=   2.3931
  6.0818  2.9611  2.2930  2.1527  1.4001  0.9972  0.8654

 Free energy of the ion-electron system (eV)
  ---------------------------------------------------
  alpha Z        PSCENC =         1.37229364
  Ewald energy   TEWEN  =      2231.99941425
  -Hartree energ DENC   =     -2473.20241296
  -exchange      EXHF   =         0.00000000
  -V(xc)+E(xc)   XCENC  =        15.61896318
  PAW double counting   =      4095.31200823    -4084.97117340
  entropy T*S    EENTRO =        -0.00000000
  eigenvalues    EBANDS =       -98.91843145
  atomic energy  EATOM  =       294.30319316
  Solvation  Ediel_sol  =         0.00000000
  ---------------------------------------------------
  free energy    TOTEN  =       -18.48614534 eV

  energy without entropy =      -18.48614534  energy(sigma->0) =      -18.48614534


--------------------------------------------------------------------------------------------------------




--------------------------------------- Iteration      1(  20)  ---------------------------------------


    POTLOK:  cpu time    0.0210: real time    0.0333
    SETDIJ:  cpu time    0.0010: real time    0.0017
    EDDIAG:  cpu time    0.6109: real time    0.6124
  RMM-DIIS:  cpu time    2.3326: real time    2.3376
    ORTHCH:  cpu time    0.0300: real time    0.0310
       DOS:  cpu time    0.0010: real time    0.0005
    CHARGE:  cpu time    0.1640: real time    0.1642
    MIXING:  cpu time    0.0010: real time    0.0010
    --------------------------------------------
      LOOP:  cpu time    3.1615: real time    3.1818

 eigenvalue-minimisations  :  2025
 total energy-change (2. order) :-0.2920784E-03  (-0.6141099E-06)
 number of electron       8.0000001 magnetization 
 augmentation part       -0.0206008 magnetization 

 Broyden mixing:
  rms(total) = 0.19366E-02    rms(broyden)= 0.19366E-02
  rms(prec ) = 0.20686E-02
  weight for this iteration     100.00

 eigenvalues of (default mixing * dielectric matrix)
  average eigenvalue GAMMA=   2.7616
  7.6822  4.1710  2.7038  2.2975  2.2975  0.9904  0.9904  0.9600

 Free energy of the ion-electron system (eV)
  ---------------------------------------------------
  alpha Z        PSCENC =         1.37229364
  Ewald energy   TEWEN  =      2231.99941425
  -Hartree energ DENC   =     -2473.31763687
  -exchange      EXHF   =         0.00000000
  -V(xc)+E(xc)   XCENC  =        15.61848948
  PAW double counting   =      4090.47491862    -4080.13413973
  entropy T*S    EENTRO =        -0.00000000
  eigenvalues    EBANDS =       -98.80296996
  atomic energy  EATOM  =       294.30319316
  Solvation  Ediel_sol  =         0.00000000
  ---------------------------------------------------
  free energy    TOTEN  =       -18.48643741 eV

  energy without entropy =      -18.48643741  energy(sigma->0) =      -18.48643741


--------------------------------------------------------------------------------------------------------




--------------------------------------- Iteration      1(  21)  ---------------------------------------


    POTLOK:  cpu time    0.0210: real time    0.0323
    SETDIJ:  cpu time    0.0010: real time    0.0017
    EDDIAG:  cpu time    0.6119: real time    0.6128
  RMM-DIIS:  cpu time    2.2527: real time    2.2580
    ORTHCH:  cpu time    0.0310: real time    0.0309
       DOS:  cpu time    0.0000: real time    0.0005
    CHARGE:  cpu time    0.1680: real time    0.1679
    MIXING:  cpu time    0.0010: real time    0.0011
    --------------------------------------------
      LOOP:  cpu time    3.0875: real time    3.1052

 eigenvalue-minimisations  :  2016
 total energy-change (2. order) :-0.5579031E-03  (-0.4400564E-05)
 number of electron       8.0000001 magnetization 
 augmentation part       -0.0205938 magnetization 

 Broyden mixing:
  rms(total) = 0.61610E-03    rms(broyden)= 0.61608E-03
  rms(prec ) = 0.65291E-03
  weight for this iteration     100.00

 eigenvalues of (default mixing * dielectric matrix)
  average eigenvalue GAMMA=   2.9602
  8.3036  5.0298  3.2562  2.6145  2.2466  2.2466  1.0013  0.9718  0.9718

 Free energy of the ion-electron system (eV)
  ---------------------------------------------------
  alpha Z        PSCENC =         1.37229364
  Ewald energy   TEWEN  =      2231.99941425
  -Hartree energ DENC   =     -2473.50851335
  -exchange      EXHF   =         0.00000000
  -V(xc)+E(xc)   XCENC  =        15.61672037
  PAW double counting   =      4103.17356159    -4092.83216304
  entropy T*S    EENTRO =        -0.00000000
  eigenvalues    EBANDS =       -98.61150195
  atomic energy  EATOM  =       294.30319316
  Solvation  Ediel_sol  =         0.00000000
  ---------------------------------------------------
  free energy    TOTEN  =       -18.48699532 eV

  energy without entropy =      -18.48699532  energy(sigma->0) =      -18.48699532


--------------------------------------------------------------------------------------------------------




--------------------------------------- Iteration      1(  22)  ---------------------------------------


    POTLOK:  cpu time    0.0300: real time    0.0298
    SETDIJ:  cpu time    0.0020: real time    0.0017
    EDDIAG:  cpu time    0.6179: real time    0.6197
  RMM-DIIS:  cpu time    2.1947: real time    2.2039
    ORTHCH:  cpu time    0.0310: real time    0.0310
       DOS:  cpu time    0.0010: real time    0.0005
    CHARGE:  cpu time    0.1640: real time    0.1642
    MIXING:  cpu time    0.0010: real time    0.0011
    --------------------------------------------
      LOOP:  cpu time    3.0405: real time    3.0519

 eigenvalue-minimisations  :  1953
 total energy-change (2. order) :-0.9531674E-04  (-0.2757390E-06)
 number of electron       8.0000001 magnetization 
 augmentation part       -0.0205928 magnetization 

 Broyden mixing:
  rms(total) = 0.23869E-03    rms(broyden)= 0.23869E-03
  rms(prec ) = 0.26236E-03
  weight for this iteration     100.00

 eigenvalues of (default mixing * dielectric matrix)
  average eigenvalue GAMMA=   2.8034
  8.4310  5.2919  3.2397  2.6347  2.2982  2.2982  0.9969  0.9775  0.9775  0.8886

 Free energy of the ion-electron system (eV)
  ---------------------------------------------------
  alpha Z        PSCENC =         1.37229364
  Ewald energy   TEWEN  =      2231.99941425
  -Hartree energ DENC   =     -2473.53878638
  -exchange      EXHF   =         0.00000000
  -V(xc)+E(xc)   XCENC  =        15.61658776
  PAW double counting   =      4099.95326305    -4089.61186133
  entropy T*S    EENTRO =        -0.00000000
  eigenvalues    EBANDS =       -98.58119479
  atomic energy  EATOM  =       294.30319316
  Solvation  Ediel_sol  =         0.00000000
  ---------------------------------------------------
  free energy    TOTEN  =       -18.48709063 eV

  energy without entropy =      -18.48709063  energy(sigma->0) =      -18.48709063


--------------------------------------------------------------------------------------------------------




--------------------------------------- Iteration      1(  23)  ---------------------------------------


    POTLOK:  cpu time    0.0210: real time    0.0336
    SETDIJ:  cpu time    0.0020: real time    0.0017
    EDDIAG:  cpu time    0.6099: real time    0.6119
  RMM-DIIS:  cpu time    2.2607: real time    2.2650
    ORTHCH:  cpu time    0.0310: real time    0.0310
       DOS:  cpu time    0.0000: real time    0.0005
    CHARGE:  cpu time    0.1650: real time    0.1662
    MIXING:  cpu time    0.0040: real time    0.0153
    --------------------------------------------
      LOOP:  cpu time    3.0935: real time    3.1253

 eigenvalue-minimisations  :  2016
 total energy-change (2. order) :-0.1983514E-04  (-0.4493089E-07)
 number of electron       8.0000001 magnetization 
 augmentation part       -0.0205943 magnetization 

 Broyden mixing:
  rms(total) = 0.84254E-04    rms(broyden)= 0.84250E-04
  rms(prec ) = 0.10338E-03
  weight for this iteration     100.00

 eigenvalues of (default mixing * dielectric matrix)
  average eigenvalue GAMMA=   2.9970
  8.7976  5.9168  4.2403  2.9397  2.5798  2.2820  2.2820  0.9964  0.9711  0.9805
  0.9805

 Free energy of the ion-electron system (eV)
  ---------------------------------------------------
  alpha Z        PSCENC =         1.37229364
  Ewald energy   TEWEN  =      2231.99941425
  -Hartree energ DENC   =     -2473.56934442
  -exchange      EXHF   =         0.00000000
  -V(xc)+E(xc)   XCENC  =        15.61694531
  PAW double counting   =      4099.06689170    -4088.72559967
  entropy T*S    EENTRO =        -0.00000000
  eigenvalues    EBANDS =       -98.55090445
  atomic energy  EATOM  =       294.30319316
  Solvation  Ediel_sol  =         0.00000000
  ---------------------------------------------------
  free energy    TOTEN  =       -18.48711047 eV

  energy without entropy =      -18.48711047  energy(sigma->0) =      -18.48711047


--------------------------------------------------------------------------------------------------------




--------------------------------------- Iteration      1(  24)  ---------------------------------------


    POTLOK:  cpu time    0.0200: real time    0.0317
    SETDIJ:  cpu time    0.0020: real time    0.0017
    EDDIAG:  cpu time    0.6109: real time    0.6122
  RMM-DIIS:  cpu time    2.1747: real time    2.1796
    ORTHCH:  cpu time    0.0290: real time    0.0305
       DOS:  cpu time    0.0010: real time    0.0005
    CHARGE:  cpu time    0.1660: real time    0.1657
    MIXING:  cpu time    0.0010: real time    0.0012
    --------------------------------------------
      LOOP:  cpu time    3.0045: real time    3.0232

 eigenvalue-minimisations  :  1888
 total energy-change (2. order) :-0.1403550E-04  (-0.1235749E-07)
 number of electron       8.0000001 magnetization 
 augmentation part       -0.0205945 magnetization 

 Broyden mixing:
  rms(total) = 0.30287E-04    rms(broyden)= 0.30286E-04
  rms(prec ) = 0.39648E-04
  weight for this iteration     100.00

 eigenvalues of (default mixing * dielectric matrix)
  average eigenvalue GAMMA=   2.9470
  8.8201  6.0494  4.1105  2.8711  2.6539  2.6539  2.1554  2.1027  0.9755  0.9755
  0.9979  0.9979

 Free energy of the ion-electron system (eV)
  ---------------------------------------------------
  alpha Z        PSCENC =         1.37229364
  Ewald energy   TEWEN  =      2231.99941425
  -Hartree energ DENC   =     -2473.58672781
  -exchange      EXHF   =         0.00000000
  -V(xc)+E(xc)   XCENC  =        15.61699230
  PAW double counting   =      4099.49410118    -4089.15282704
  entropy T*S    EENTRO =        -0.00000000
  eigenvalues    EBANDS =       -98.53356419
  atomic energy  EATOM  =       294.30319316
  Solvation  Ediel_sol  =         0.00000000
  ---------------------------------------------------
  free energy    TOTEN  =       -18.48712450 eV

  energy without entropy =      -18.48712450  energy(sigma->0) =      -18.48712450


--------------------------------------------------------------------------------------------------------




--------------------------------------- Iteration      1(  25)  ---------------------------------------


    POTLOK:  cpu time    0.0210: real time    0.0320
    SETDIJ:  cpu time    0.0010: real time    0.0017
    EDDIAG:  cpu time    0.6109: real time    0.6119
  RMM-DIIS:  cpu time    2.1847: real time    2.1890
    ORTHCH:  cpu time    0.0310: real time    0.0307
       DOS:  cpu time    0.0010: real time    0.0005
    CHARGE:  cpu time    0.1650: real time    0.1663
    MIXING:  cpu time    0.0010: real time    0.0013
    --------------------------------------------
      LOOP:  cpu time    3.0155: real time    3.0334

 eigenvalue-minimisations  :  1820
 total energy-change (2. order) :-0.1807233E-05  (-0.2670645E-09)
 number of electron       8.0000001 magnetization 
 augmentation part       -0.0205945 magnetization 

 Broyden mixing:
  rms(total) = 0.26951E-04    rms(broyden)= 0.26950E-04
  rms(prec ) = 0.32547E-04
  weight for this iteration     100.00

 eigenvalues of (default mixing * dielectric matrix)
  average eigenvalue GAMMA=   2.9936
  8.9253  6.5366  4.8975  3.7474  2.8218  2.5343  2.2861  2.2861  0.9817  0.9817
  1.0022  0.9579  0.9579

 Free energy of the ion-electron system (eV)
  ---------------------------------------------------
  alpha Z        PSCENC =         1.37229364
  Ewald energy   TEWEN  =      2231.99941425
  -Hartree energ DENC   =     -2473.58946353
  -exchange      EXHF   =         0.00000000
  -V(xc)+E(xc)   XCENC  =        15.61697284
  PAW double counting   =      4099.41784673    -4089.07656821
  entropy T*S    EENTRO =        -0.00000000
  eigenvalues    EBANDS =       -98.53081519
  atomic energy  EATOM  =       294.30319316
  Solvation  Ediel_sol  =         0.00000000
  ---------------------------------------------------
  free energy    TOTEN  =       -18.48712631 eV

  energy without entropy =      -18.48712631  energy(sigma->0) =      -18.48712631


--------------------------------------------------------------------------------------------------------




--------------------------------------- Iteration      1(  26)  ---------------------------------------


    POTLOK:  cpu time    0.0220: real time    0.0354
    SETDIJ:  cpu time    0.0010: real time    0.0017
    EDDIAG:  cpu time    0.6109: real time    0.6119
  RMM-DIIS:  cpu time    2.1747: real time    2.1799
    ORTHCH:  cpu time    0.0310: real time    0.0307
       DOS:  cpu time    0.0000: real time    0.0005
    CHARGE:  cpu time    0.1660: real time    0.1658
    MIXING:  cpu time    0.0010: real time    0.0013
    --------------------------------------------
      LOOP:  cpu time    3.0065: real time    3.0271

 eigenvalue-minimisations  :  1831
 total energy-change (2. order) :-0.2046705E-05  (-0.1304895E-08)
 number of electron       8.0000001 magnetization 
 augmentation part       -0.0205944 magnetization 

 Broyden mixing:
  rms(total) = 0.34622E-04    rms(broyden)= 0.34622E-04
  rms(prec ) = 0.35476E-04
  weight for this iteration     100.00

 eigenvalues of (default mixing * dielectric matrix)
  average eigenvalue GAMMA=   3.1570
  8.9583  7.7140  5.4791  4.3456  3.1375  2.7718  2.4207  2.2122  2.2122  0.9749
  0.9749  1.0009  0.9982  0.9982

 Free energy of the ion-electron system (eV)
  ---------------------------------------------------
  alpha Z        PSCENC =         1.37229364
  Ewald energy   TEWEN  =      2231.99941425
  -Hartree energ DENC   =     -2473.59295150
  -exchange      EXHF   =         0.00000000
  -V(xc)+E(xc)   XCENC  =        15.61693399
  PAW double counting   =      4099.68837351    -4089.34707117
  entropy T*S    EENTRO =        -0.00000000
  eigenvalues    EBANDS =       -98.52731425
  atomic energy  EATOM  =       294.30319316
  Solvation  Ediel_sol  =         0.00000000
  ---------------------------------------------------
  free energy    TOTEN  =       -18.48712836 eV

  energy without entropy =      -18.48712836  energy(sigma->0) =      -18.48712836


--------------------------------------------------------------------------------------------------------




--------------------------------------- Iteration      1(  27)  ---------------------------------------


    POTLOK:  cpu time    0.0210: real time    0.0321
    SETDIJ:  cpu time    0.0020: real time    0.0017
    EDDIAG:  cpu time    0.6109: real time    0.6122
  RMM-DIIS:  cpu time    2.1957: real time    2.2011
    ORTHCH:  cpu time    0.0310: real time    0.0307
       DOS:  cpu time    0.0000: real time    0.0005
    CHARGE:  cpu time    0.1670: real time    0.1660
    MIXING:  cpu time    0.0010: real time    0.0015
    --------------------------------------------
      LOOP:  cpu time    3.0285: real time    3.0457

 eigenvalue-minimisations  :  1817
 total energy-change (2. order) :-0.8545317E-06  (-0.5647512E-09)
 number of electron       8.0000001 magnetization 
 augmentation part       -0.0205945 magnetization 

 Broyden mixing:
  rms(total) = 0.26298E-04    rms(broyden)= 0.26297E-04
  rms(prec ) = 0.26602E-04
  weight for this iteration     100.00

 eigenvalues of (default mixing * dielectric matrix)
  average eigenvalue GAMMA=   3.1866
  9.3177  8.2753  5.9364  4.2525  3.6868  2.7982  2.6292  2.3165  2.3165  1.3016
  0.9755  0.9755  0.9816  1.0022  1.0335

 Free energy of the ion-electron system (eV)
  ---------------------------------------------------
  alpha Z        PSCENC =         1.37229364
  Ewald energy   TEWEN  =      2231.99941425
  -Hartree energ DENC   =     -2473.59499257
  -exchange      EXHF   =         0.00000000
  -V(xc)+E(xc)   XCENC  =        15.61697072
[...]
     17       7.7149      0.00000
     18       9.1838      0.00000
     19       9.2251      0.00000
     20       9.7307      0.00000
     21      11.4068      0.00000
     22      12.0845      0.00000
     23      12.8371      0.00000
     24      13.8438      0.00000

 k-point    30 :      -0.2083    0.2083    0.0000
  band No.  band energies     occupation 
      1     -21.6598      2.00000
      2      -9.5659      2.00000
      3      -9.5355      2.00000
      4      -7.8062      2.00000
      5       1.4846      0.00000
      6       2.2651      0.00000
      7       2.5060      0.00000
      8       2.8119      0.00000
      9       3.0215      0.00000
     10       3.6597      0.00000
     11       3.9610      0.00000
     12       4.8887      0.00000
     13       4.9718      0.00000
     14       5.1799      0.00000
     15       5.2912      0.00000
     16       6.4983      0.00000
     17       6.9277      0.00000
     18       8.4229      0.00000
     19       8.8483      0.00000
     20       8.9398      0.00000
     21      10.6805      0.00000
     22      11.1869      0.00000
     23      11.3232      0.00000
     24      13.2484      0.00000

 k-point    31 :       0.2917    0.2917    0.0000
  band No.  band energies     occupation 
      1     -17.0075      2.00000
      2     -14.8402      2.00000
      3     -13.1696      2.00000
      4      -4.4715      2.00000
      5      -1.8860      0.00000
      6       7.5639      0.00000
      7       8.0803      0.00000
      8       9.4689      0.00000
      9       9.4852      0.00000
     10       9.7654      0.00000
     11       9.8886      0.00000
     12       9.9132      0.00000
     13      10.0555      0.00000
     14      10.7368      0.00000
     15      10.8513      0.00000
     16      11.9365      0.00000
     17      12.0608      0.00000
     18      13.0559      0.00000
     19      13.1718      0.00000
     20      13.1766      0.00000
     21      13.3475      0.00000
     22      13.5997      0.00000
     23      13.6653      0.00000
     24      13.7009      0.00000

 k-point    32 :       0.3750    0.2917    0.0000
  band No.  band energies     occupation 
      1     -16.3377      2.00000
      2     -15.3891      2.00000
      3     -13.4625      2.00000
      4      -3.8454      2.00000
      5      -2.5134      0.00000
      6       7.5130      0.00000
      7       9.0809      0.00000
      8       9.6813      0.00000
      9      10.1037      0.00000
     10      10.5985      0.00000
     11      10.7244      0.00000
     12      11.0645      0.00000
     13      11.1722      0.00000
     14      11.8047      0.00000
     15      11.9587      0.00000
     16      12.0573      0.00000
     17      12.0795      0.00000
     18      12.3468      0.00000
     19      12.4354      0.00000
     20      12.8470      0.00000
     21      12.9605      0.00000
     22      13.0815      0.00000
     23      13.1866      0.00000
     24      13.4602      0.00000

 k-point    33 :       0.4583    0.2917    0.0000
  band No.  band energies     occupation 
      1     -17.7068      2.00000
      2     -14.3855      2.00000
      3     -12.5887      2.00000
      4      -5.1844      2.00000
      5      -1.1652      0.00000
      6       7.0573      0.00000
      7       7.4004      0.00000
      8       8.3292      0.00000
      9       8.4866      0.00000
     10       8.8084      0.00000
     11       9.0320      0.00000
     12       9.0630      0.00000
     13       9.7167      0.00000
     14       9.7931      0.00000
     15      10.0379      0.00000
     16      10.9266      0.00000
     17      10.9959      0.00000
     18      12.4219      0.00000
     19      12.5884      0.00000
     20      13.3192      0.00000
     21      13.6249      0.00000
     22      13.8374      0.00000
     23      14.1287      0.00000
     24      14.3625      0.00000

 k-point    34 :      -0.4583    0.2917    0.0000
  band No.  band energies     occupation 
      1     -18.9732      2.00000
      2     -13.6306      2.00000
      3     -10.9908      2.00000
      4      -6.5334      2.00000
      5       0.2639      0.00000
      6       5.2329      0.00000
      7       6.0137      0.00000
      8       6.3886      0.00000
      9       6.6562      0.00000
     10       6.8531      0.00000
     11       6.9405      0.00000
     12       7.4651      0.00000
     13       7.8204      0.00000
     14       8.6254      0.00000
     15       9.0949      0.00000
     16       9.9743      0.00000
     17      10.5191      0.00000
     18      10.7691      0.00000
     19      11.2026      0.00000
     20      12.6328      0.00000
     21      12.7254      0.00000
     22      13.9044      0.00000
     23      14.3833      0.00000
     24      14.6439      0.00000

 k-point    35 :      -0.3750    0.2917    0.0000
  band No.  band energies     occupation 
      1     -19.9820      2.00000
      2     -12.7589      2.00000
      3      -9.4758      2.00000
      4      -7.6469      2.00000
      5       1.6261      0.00000
      6       3.8047      0.00000
      7       4.6282      0.00000
      8       4.9035      0.00000
      9       5.1986      0.00000
     10       5.2029      0.00000
     11       5.4237      0.00000
     12       6.0364      0.00000
     13       6.3509      0.00000
     14       7.2610      0.00000
     15       7.6372      0.00000
     16       8.8129      0.00000
     17       9.2840      0.00000
     18      10.6600      0.00000
     19      11.2109      0.00000
     20      11.3554      0.00000
     21      12.6095      0.00000
     22      13.6368      0.00000
     23      13.9371      0.00000
     24      14.0550      0.00000

 k-point    36 :      -0.2917    0.2917    0.0000
  band No.  band energies     occupation 
      1     -20.6951      2.00000
      2     -11.7145      2.00000
      3      -8.6295      2.00000
      4      -8.4507      2.00000
      5       2.8117      0.00000
      6       2.8577      0.00000
      7       3.6542      0.00000
      8       3.8763      0.00000
      9       4.1838      0.00000
     10       4.3799      0.00000
     11       4.6639      0.00000
     12       5.0269      0.00000
     13       5.3352      0.00000
     14       6.2620      0.00000
     15       6.6239      0.00000
     16       7.8360      0.00000
     17       8.2759      0.00000
     18       9.7397      0.00000
     19      10.2833      0.00000
     20      11.5818      0.00000
     21      11.9462      0.00000
     22      12.4419      0.00000
     23      12.6626      0.00000
     24      14.3003      0.00000

 k-point    37 :       0.3750    0.3750    0.0000
  band No.  band energies     occupation 
      1     -16.5067      2.00000
      2     -15.6241      2.00000
      3     -12.9098      2.00000
      4      -4.1919      2.00000
      5      -2.2252      0.00000
      6       7.7273      0.00000
      7       8.8857      0.00000
      8       9.1033      0.00000
      9       9.4361      0.00000
     10      10.4826      0.00000
     11      10.8246      0.00000
     12      10.8438      0.00000
     13      10.9033      0.00000
     14      11.1145      0.00000
     15      11.2479      0.00000
     16      11.3095      0.00000
     17      11.3691      0.00000
     18      11.9468      0.00000
     19      12.0071      0.00000
     20      12.1636      0.00000
     21      12.2316      0.00000
     22      12.9685      0.00000
     23      13.1872      0.00000
     24      13.3342      0.00000

 k-point    38 :       0.4583    0.3750    0.0000
  band No.  band energies     occupation 
      1     -17.5191      2.00000
      2     -15.4690      2.00000
      3     -11.3644      2.00000
      4      -5.2040      2.00000
      5      -1.4047      0.00000
      6       6.7226      0.00000
      7       7.4025      0.00000
      8       7.9375      0.00000
      9       8.6722      0.00000
     10       8.8568      0.00000
     11       9.1586      0.00000
     12       9.4282      0.00000
     13       9.7657      0.00000
     14      10.0705      0.00000
     15      10.0886      0.00000
     16      11.0348      0.00000
     17      11.3131      0.00000
     18      11.4082      0.00000
     19      11.5316      0.00000
     20      11.8420      0.00000
     21      11.9091      0.00000
     22      12.5748      0.00000
     23      12.6229      0.00000
     24      12.9614      0.00000

 k-point    39 :      -0.4583    0.3750    0.0000
  band No.  band energies     occupation 
      1     -18.5948      2.00000
      2     -14.8192      2.00000
      3      -9.9600      2.00000
      4      -6.2283      2.00000
      5      -0.4501      0.00000
      6       4.9566      0.00000
      7       5.8019      0.00000
      8       6.6135      0.00000
      9       6.9602      0.00000
     10       7.2349      0.00000
     11       7.4603      0.00000
     12       8.0528      0.00000
     13       8.3826      0.00000
     14       9.2345      0.00000
     15       9.6563      0.00000
     16      10.6243      0.00000
     17      10.6944      0.00000
     18      11.2938      0.00000
     19      11.5031      0.00000
     20      12.4342      0.00000
     21      12.4908      0.00000
     22      12.7666      0.00000
     23      12.8563      0.00000
     24      13.3028      0.00000

 k-point    40 :      -0.3750    0.3750    0.0000
  band No.  band energies     occupation 
      1     -19.4342      2.00000
      2     -13.8828      2.00000
      3      -9.2394      2.00000
      4      -7.0742      2.00000
      5       0.6090      0.00000
      6       4.3048      0.00000
      7       4.6361      0.00000
      8       5.4189      0.00000
      9       5.7043      0.00000
     10       5.9958      0.00000
     11       6.2107      0.00000
     12       6.8314      0.00000
     13       7.1409      0.00000
     14       8.0523      0.00000
     15       8.4244      0.00000
     16       9.5966      0.00000
     17      10.0679      0.00000
     18      11.4151      0.00000
     19      11.8581      0.00000
     20      12.0737      0.00000
     21      12.8448      0.00000
     22      13.7573      0.00000
     23      13.9360      0.00000
     24      14.2357      0.00000

 k-point    41 :       0.4583    0.4583    0.0000
  band No.  band energies     occupation 
      1     -17.3474      2.00000
      2     -16.3006      2.00000
      3     -10.1249      2.00000
      4      -5.3771      2.00000
      5      -1.5358      0.00000
      6       4.8810      0.00000
      7       8.0724      0.00000
      8       8.2357      0.00000
      9       8.7572      0.00000
     10       9.1294      0.00000
     11       9.4609      0.00000
     12       9.4802      0.00000
     13       9.6889      0.00000
     14       9.7474      0.00000
     15       9.9406      0.00000
     16       9.9704      0.00000
     17      10.3997      0.00000
     18      10.5832      0.00000
     19      10.8324      0.00000
     20      10.8746      0.00000
     21      11.4177      0.00000
     22      11.8134      0.00000
     23      12.0703      0.00000
     24      12.1231      0.00000

 k-point    42 :      -0.4583    0.4583    0.0000
  band No.  band energies     occupation 
      1     -17.9535      2.00000
      2     -15.8421      2.00000
      3      -9.5594      2.00000
      4      -5.7776      2.00000
      5      -1.1809      0.00000
      6       4.1843      0.00000
      7       6.7719      0.00000
      8       7.6238      0.00000
      9       7.9877      0.00000
     10       8.2587      0.00000
     11       8.4821      0.00000
     12       9.0696      0.00000
     13       9.3078      0.00000
     14       9.4062      0.00000
     15      10.0941      0.00000
     16      10.3567      0.00000
     17      10.6654      0.00000
     18      10.7274      0.00000
     19      10.9666      0.00000
     20      11.2004      0.00000
     21      11.6288      0.00000
     22      11.8808      0.00000
     23      12.0816      0.00000
     24      12.2909      0.00000


--------------------------------------------------------------------------------------------------------


 soft charge-density along one line, spin component           1
         0         1         2         3         4         5         6         7         8         9
 total charge-density along one line
 
 pseudopotential strength for first ion, spin component:           1
 12.715  21.397  -0.000  -0.000  -0.000  -0.000  -0.000  -0.000
 21.397  36.006  -0.000  -0.000  -0.000  -0.000  -0.000  -0.000
 -0.000  -0.000  -3.175  -0.000   0.000  -5.691  -0.000   0.000
 -0.000  -0.000  -0.000  -3.176   0.000  -0.000  -5.693   0.000
 -0.000  -0.000   0.000   0.000  -3.175   0.000   0.000  -5.691
 -0.000  -0.000  -5.691  -0.000   0.000 -10.179  -0.000   0.000
 -0.000  -0.000  -0.000  -5.693   0.000  -0.000 -10.182   0.000
 -0.000  -0.000   0.000   0.000  -5.691   0.000   0.000 -10.179
 total augmentation occupancy for first ion, spin component:           1
  7.801  -2.729   0.000   0.000   0.000   0.000   0.000   0.000
 -2.729   0.992   0.000   0.000   0.000   0.000   0.000   0.000
  0.000  -0.000   7.374  -0.000   0.000  -2.514   0.000   0.000
  0.000   0.000   0.000   3.307   0.000   0.000  -0.893   0.000
  0.000   0.000   0.000   0.000   7.374   0.000   0.000  -2.514
  0.000   0.000  -2.514   0.000   0.000   0.871   0.000   0.000
  0.000   0.000  -0.000  -0.893   0.000   0.000   0.247   0.000
  0.000   0.000   0.000   0.000  -2.514   0.000  -0.000   0.871


------------------------ aborting loop because EDIFF is reached ----------------------------------------


    CHARGE:  cpu time    0.1650: real time    0.1653
    FORLOC:  cpu time    0.0010: real time    0.0032
    FORNL :  cpu time    0.0850: real time    0.0950
    STRESS:  cpu time    1.1718: real time    1.1825
    FORCOR:  cpu time    0.0170: real time    0.0231
    FORHAR:  cpu time    0.0040: real time    0.0129
    MIXING:  cpu time    0.0040: real time    0.0354
    OFIELD:  cpu time    0.0000: real time    0.0020

  DFT-D2 method for vdW energy calculation
  -------------------------------------------------------------------

  Parameters of vdW forcefield:
         C6(Jnm^6/mol)     R0(A)
   -----------------------------
   C        1.750          1.452

  IVDW =   1
  VDW_RADIUS =    50.000 A
  VDW_S6 =     0.750
  VDW_SR =     1.000
  VDW_D =    20.000
  LVDW_EWALD = F

  Number of pair interactions contributing to vdW energy:   10180
  Edisp (eV):   -0.10827
    FORVDW:  cpu time    0.0110: real time    0.0244

  FORCE on cell =-STRESS in cart. coord.  units (eV):
  Direction    XX          YY          ZZ          XY          YZ          ZX
  --------------------------------------------------------------------------------------
  Alpha Z     1.37229     1.37229     1.37229
  Ewald    2500.61079  2500.60688 -2769.21835     0.00000     0.00000     0.00000
  Hartree  2462.27882  2462.27883 -2450.96223     0.00000    -0.00000    -0.00000
  E(xc)     -32.39927   -32.39926   -33.35834    -0.00000     0.00000     0.00000
  Local   -5078.44669 -5078.44508  5090.48737     0.00000    -0.00000     0.00000
  n-local     8.25882     8.25887     6.83000     0.20086     0.00000    -0.00000
  augment     0.14272     0.14272     0.11789     0.00000     0.00000    -0.00000
  Kinetic   138.00160   138.03270   154.68467    -1.27604    -0.00000    -0.00000
  Fock        0.00000     0.00000     0.00000     0.00000     0.00000     0.00000
  vdW        -0.00385    -0.00385    -0.00007     0.00000     0.00000     0.00000
  -------------------------------------------------------------------------------------
  Total      -0.17033    -0.17033    -0.04676     0.00000     0.00000     0.00000
  in kB      -1.70780    -1.70781    -0.46882     0.00000     0.00000     0.00000
  external pressure =       -1.29 kB  Pullay stress =        0.00 kB


 VOLUME and BASIS-vectors are now :
 -----------------------------------------------------------------------------
  energy-cutoff  :      875.00
  volume of cell :      159.79
      direct lattice vectors                 reciprocal lattice vectors
     1.234206912 -2.137714457  0.000000000     0.405118457 -0.233894662  0.000000000
     1.234206912  2.137714457  0.000000000     0.405118457  0.233894662  0.000000000
     0.000000000  0.000000000 30.282393743     0.000000000  0.000000000  0.033022489

  length of vectors
     2.468418482  2.468418482 30.282393743     0.467790206  0.467790206  0.033022489


 FORCES acting on ions
    electron-ion (+dipol)            ewald-force                    non-local-force                 convergence-correction
 -----------------------------------------------------------------------------------------------
   -.484E-08 0.132E-02 0.371E-07   -.938E-14 0.200E-02 0.000E+00   0.106E-15 0.470E-17 0.000E+00   0.983E-15 -.186E-09 -.649E-12
   -.489E-08 -.464E-03 0.320E-07   0.561E-14 -.200E-02 0.000E+00   -.111E-15 -.513E-17 0.000E+00   0.754E-15 0.732E-10 -.646E-12
 -----------------------------------------------------------------------------------------------
   -.973E-08 0.854E-03 0.690E-07   -.377E-14 0.511E-15 0.000E+00   -.487E-17 -.434E-18 0.000E+00   0.174E-14 -.113E-09 -.129E-11
 
 
 POSITION                                       TOTAL-FORCE (eV/Angst)
 -----------------------------------------------------------------------------------
      1.23421      2.13770     15.14120         0.000000     -0.000000      0.000000
      1.23421     -0.71257     15.14120        -0.000000      0.000000      0.000000
 -----------------------------------------------------------------------------------
    total drift:                               -0.000000      0.000854      0.000000


--------------------------------------------------------------------------------------------------------



  FREE ENERGIE OF THE ION-ELECTRON SYSTEM (eV)
  ---------------------------------------------------
  free  energy   TOTEN  =       -18.59540201 eV

  energy  without entropy=      -18.59540201  energy(sigma->0) =      -18.59540201
 


--------------------------------------------------------------------------------------------------------


    POTLOK:  cpu time    0.0230: real time    0.0260


--------------------------------------------------------------------------------------------------------


 stress matrix after NEB project (eV)
     -0.17033      0.00000      0.00000
      0.00000     -0.17033      0.00000
     -0.00000      0.00000     -0.04676
  FORCES: max atom, RMS     0.000000    0.000000
  FORCE total and by dimension    0.000000    0.000000
  Stress total and by dimension    0.245376    0.170328


--------------------------------------------------------------------------------------------------------


  
 reached required accuracy - stopping structural energy minimisation
     LOOP+:  cpu time   80.7617: real time   81.8458
    4ORBIT:  cpu time    0.0000: real time    0.0000

 total amount of memory used by VASP MPI-rank0    72099. kBytes
=======================================================================

   base      :      30000. kBytes
   nonl-proj :      25785. kBytes
   fftplans  :       1683. kBytes
   grid      :       8239. kBytes
   one-center:          6. kBytes
   wavefun   :       6386. kBytes
 
  
  
 General timing and accounting informations for this job:
 ========================================================
  
                  Total CPU time used (sec):       82.891
                            User time (sec):       81.725
                          System time (sec):        1.167
                         Elapsed time (sec):       84.716
  
                   Maximum memory used (kb):      176664.
                   Average memory used (kb):           0.
  
                          Minor page faults:       125637
                          Major page faults:          305
                 Voluntary context switches:         9528
