<?xml version="1.0" encoding="ISO-8859-1"?>
<modeling>
 <generator>
  <i name="program" type="string">vasp </i>
  <i name="version" type="string">5.4.4.18Apr17-6-g9f103f2a35  </i>
  <i name="subversion" type="string">(build Jan 14 2019 14:48:31) complex            parallel </i>
  <i name="platform" type="string">LinuxIFC </i>
  <i name="date" type="string">2019 09 10 </i>
  <i name="time" type="string">15:54:32 </i>
 </generator>
 <incar>
  <i type="int" name="ISTART">     1</i>
  <i type="string" name="PREC">high</i>
  <i type="string" name="ALGO">very</i>
  <i type="int" name="NELM">    40</i>
  <i type="int" name="IBRION">     2</i>
  <i name="EDIFF">      0.00000010</i>
  <i name="EDIFFG">     -0.01000000</i>
  <i type="int" name="NSW">   100</i>
  <i type="logical" name="LREAL"> F  </i>
  <i type="int" name="ISMEAR">     0</i>
  <i name="SIGMA">      0.05000000</i>
  <i type="logical" name="LWAVE"> F  </i>
  <i type="logical" name="LCHARG"> F  </i>
  <v type="int" name="KPOINT_BSE">    -1     0     0     0</v>
  <i type="int" name="NELM">    40</i>
 </incar>
 <structure name="primitive_cell" >
  <crystal>
   <varray name="basis" >
    <v>       1.23420691      -2.13771446       0.00000000 </v>
    <v>       1.23420691       2.13771446       0.00000000 </v>
    <v>       0.00000000       0.00000000      30.28239374 </v>
   </varray>
   <i name="volume">    159.79304260 </i>
   <varray name="rec_basis" >
    <v>       0.40511846      -0.23389466       0.00000000 </v>
    <v>       0.40511846       0.23389466       0.00000000 </v>
    <v>       0.00000000       0.00000000       0.03302249 </v>
   </varray>
  </crystal>
  <varray name="positions" >
   <v>       0.00000262      -0.00000262      -0.50000000 </v>
   <v>      -0.33333262       0.33333262      -0.50000000 </v>
  </varray>
 </structure>
 <varray name="primitive_index" >
  <v type="int" >        1 </v>
  <v type="int" >        2 </v>
 </varray>
 <kpoints>
  <generation param="Monkhorst-Pack">
   <v type="int" name="divisions">      12       12        1 </v>
   <v name="usershift">      0.00000000       0.00000000       0.00000000 </v>
   <v name="genvec1">      0.08333333      -0.00000000       0.00000000 </v>
   <v name="genvec2">     -0.00000000       0.08333333       0.00000000 </v>
   <v name="genvec3">      0.00000000       0.00000000       1.00000000 </v>
   <v name="shift">      0.50000000       0.50000000       0.00000000 </v>
  </generation>
  <varray name="kpointlist" >
   <v>       0.04166667       0.04166667       0.00000000 </v>
   <v>       0.12500000       0.04166667       0.00000000 </v>
   <v>       0.20833333       0.04166667       0.00000000 </v>
   <v>       0.29166667       0.04166667       0.00000000 </v>
   <v>       0.37500000       0.04166667       0.00000000 </v>
   <v>       0.45833333       0.04166667       0.00000000 </v>
   <v>      -0.45833333       0.04166667       0.00000000 </v>
   <v>      -0.37500000       0.04166667       0.00000000 </v>
   <v>      -0.29166667       0.04166667       0.00000000 </v>
   <v>      -0.20833333       0.04166667       0.00000000 </v>
   <v>      -0.12500000       0.04166667       0.00000000 </v>
   <v>      -0.04166667       0.04166667       0.00000000 </v>
   <v>       0.12500000       0.12500000       0.00000000 </v>
   <v>       0.20833333       0.12500000       0.00000000 </v>
   <v>       0.29166667       0.12500000       0.00000000 </v>
   <v>       0.37500000       0.12500000       0.00000000 </v>
   <v>       0.45833333       0.12500000       0.00000000 </v>
   <v>      -0.45833333       0.12500000       0.00000000 </v>
   <v>      -0.37500000       0.12500000       0.00000000 </v>
   <v>      -0.29166667       0.12500000       0.00000000 </v>
   <v>      -0.20833333       0.12500000       0.00000000 </v>
   <v>      -0.12500000       0.12500000       0.00000000 </v>
   <v>       0.20833333       0.20833333       0.00000000 </v>
   <v>       0.29166667       0.20833333       0.00000000 </v>
   <v>       0.37500000       0.20833333       0.00000000 </v>
   <v>       0.45833333       0.20833333       0.00000000 </v>
   <v>      -0.45833333       0.20833333       0.00000000 </v>
   <v>      -0.37500000       0.20833333       0.00000000 </v>
   <v>      -0.29166667       0.20833333       0.00000000 </v>
   <v>      -0.20833333       0.20833333       0.00000000 </v>
   <v>       0.29166667       0.29166667       0.00000000 </v>
   <v>       0.37500000       0.29166667       0.00000000 </v>
   <v>       0.45833333       0.29166667       0.00000000 </v>
   <v>      -0.45833333       0.29166667       0.00000000 </v>
   <v>      -0.37500000       0.29166667       0.00000000 </v>
   <v>      -0.29166667       0.29166667       0.00000000 </v>
   <v>       0.37500000       0.37500000       0.00000000 </v>
   <v>       0.45833333       0.37500000       0.00000000 </v>
   <v>      -0.45833333       0.37500000       0.00000000 </v>
   <v>      -0.37500000       0.37500000       0.00000000 </v>
   <v>       0.45833333       0.45833333       0.00000000 </v>
   <v>      -0.45833333       0.45833333       0.00000000 </v>
  </varray>
  <varray name="weights" >
   <v>       0.01388889 </v>
   <v>       0.02777778 </v>
   <v>       0.02777778 </v>
   <v>       0.02777778 </v>
   <v>       0.02777778 </v>
   <v>       0.02777778 </v>
   <v>       0.02777778 </v>
   <v>       0.02777778 </v>
   <v>       0.02777778 </v>
   <v>       0.02777778 </v>
   <v>       0.02777778 </v>
   <v>       0.01388889 </v>
   <v>       0.01388889 </v>
   <v>       0.02777778 </v>
   <v>       0.02777778 </v>
   <v>       0.02777778 </v>
   <v>       0.02777778 </v>
   <v>       0.02777778 </v>
   <v>       0.02777778 </v>
   <v>       0.02777778 </v>
   <v>       0.02777778 </v>
   <v>       0.01388889 </v>
   <v>       0.01388889 </v>
   <v>       0.02777778 </v>
   <v>       0.02777778 </v>
   <v>       0.02777778 </v>
   <v>       0.02777778 </v>
   <v>       0.02777778 </v>
   <v>       0.02777778 </v>
   <v>       0.01388889 </v>
   <v>       0.01388889 </v>
   <v>       0.02777778 </v>
   <v>       0.02777778 </v>
   <v>       0.02777778 </v>
   <v>       0.02777778 </v>
   <v>       0.01388889 </v>
   <v>       0.01388889 </v>
   <v>       0.02777778 </v>
   <v>       0.02777778 </v>
   <v>       0.01388889 </v>
   <v>       0.01388889 </v>
   <v>       0.01388889 </v>
  </varray>
 </kpoints>
 <parameters>
  <separator name="general" >
   <i type="string" name="SYSTEM">unknown system</i>
   <i type="logical" name="LCOMPAT"> F  </i>
  </separator>
  <separator name="electronic" >
   <i type="string" name="PREC">high</i>
   <i name="ENMAX">    875.00000000</i>
   <i name="ENAUG">    946.76800000</i>
   <i name="EDIFF">      0.00000010</i>
   <i type="int" name="IALGO">    48</i>
   <i type="int" name="IWAVPR">    11</i>
   <i type="int" name="NBANDS">    24</i>
   <i name="NELECT">      8.00000000</i>
   <i type="int" name="TURBO">     0</i>
   <i type="int" name="IRESTART">     0</i>
   <i type="int" name="NREBOOT">     0</i>
   <i type="int" name="NMIN">     0</i>
   <i name="EREF">      0.00000000</i>
   <separator name="electronic smearing" >
    <i type="int" name="ISMEAR">     0</i>
    <i name="SIGMA">      0.05000000</i>
    <i name="KSPACING">      0.50000000</i>
    <i type="logical" name="KGAMMA"> T  </i>
   </separator>
   <separator name="electronic projectors" >
    <i type="logical" name="LREAL"> F  </i>
    <v name="ROPT">      0.00000000</v>
    <i type="int" name="LMAXPAW">  -100</i>
    <i type="int" name="LMAXMIX">     2</i>
    <i type="logical" name="NLSPLINE"> F  </i>
   </separator>
   <separator name="electronic startup" >
    <i type="int" name="ISTART">     0</i>
    <i type="int" name="ICHARG">     2</i>
    <i type="int" name="INIWAV">     1</i>
   </separator>
   <separator name="electronic spin" >
    <i type="int" name="ISPIN">     1</i>
    <i type="logical" name="LNONCOLLINEAR"> F  </i>
    <v name="MAGMOM">      1.00000000      1.00000000</v>
    <i name="NUPDOWN">     -1.00000000</i>
    <i type="logical" name="LSORBIT"> F  </i>
    <v name="SAXIS">      0.00000000      0.00000000      1.00000000</v>
    <i type="logical" name="LSPIRAL"> F  </i>
    <v name="QSPIRAL">      0.00000000      0.00000000      0.00000000</v>
    <i type="logical" name="LZEROZ"> F  </i>
   </separator>
   <separator name="electronic exchange-correlation" >
    <i type="logical" name="LASPH"> F  </i>
    <i type="logical" name="LMETAGGA"> F  </i>
   </separator>
   <separator name="electronic convergence" >
    <i type="int" name="NELM">    40</i>
    <i type="int" name="NELMDL">     0</i>
    <i type="int" name="NELMIN">     2</i>
    <i name="ENINI">    875.00000000</i>
    <separator name="electronic convergence detail" >
     <i type="logical" name="LDIAG"> T  </i>
     <i type="logical" name="LSUBROT"> F  </i>
     <i name="WEIMIN">      0.00100000</i>
     <i name="EBREAK">      0.00000000</i>
     <i name="DEPER">      0.30000000</i>
     <i type="int" name="NRMM">     4</i>
     <i name="TIME">      0.40000000</i>
    </separator>
   </separator>
   <separator name="electronic mixer" >
    <i name="AMIX">      0.40000000</i>
    <i name="BMIX">      1.00000000</i>
    <i name="AMIN">      0.10000000</i>
    <i name="AMIX_MAG">      1.60000000</i>
    <i name="BMIX_MAG">      1.00000000</i>
    <separator name="electronic mixer details" >
     <i type="int" name="IMIX">     4</i>
     <i type="logical" name="MIXFIRST"> F  </i>
     <i type="int" name="MAXMIX">   -45</i>
     <i name="WC">    100.00000000</i>
     <i type="int" name="INIMIX">     1</i>
     <i type="int" name="MIXPRE">     1</i>
     <i type="int" name="MREMOVE">     5</i>
    </separator>
   </separator>
   <separator name="electronic dipolcorrection" >
    <i type="logical" name="LDIPOL"> F  </i>
    <i type="logical" name="LMONO"> F  </i>
    <i type="int" name="IDIPOL">     0</i>
    <i name="EPSILON">      1.00000000</i>
    <v name="DIPOL">   -100.00000000   -100.00000000   -100.00000000</v>
    <i name="EFIELD">      0.00000000</i>
   </separator>
  </separator>
  <separator name="grids" >
   <i type="int" name="NGX">    24</i>
   <i type="int" name="NGY">    24</i>
   <i type="int" name="NGZ">   294</i>
   <i type="int" name="NGXF">    36</i>
   <i type="int" name="NGYF">    36</i>
   <i type="int" name="NGZF">   420</i>
   <i type="logical" name="ADDGRID"> F  </i>
  </separator>
  <separator name="ionic" >
   <i type="int" name="NSW">   100</i>
   <i type="int" name="IBRION">     2</i>
   <i type="int" name="MDALGO">     0</i>
   <i type="int" name="ISIF">     2</i>
   <i name="PSTRESS">      0.00000000</i>
   <i name="EDIFFG">     -0.01000000</i>
   <i type="int" name="NFREE">     1</i>
   <i name="POTIM">      0.50000000</i>
   <i name="SMASS">     -3.00000000</i>
   <i name="SCALEE">      1.00000000</i>
  </separator>
  <separator name="ionic md" >
   <i name="TEBEG">      0.00010000</i>
   <i name="TEEND">      0.00010000</i>
   <i type="int" name="NBLOCK">     1</i>
   <i type="int" name="KBLOCK">   100</i>
   <i type="int" name="NPACO">   256</i>
   <i name="APACO">     16.00000000</i>
  </separator>
  <separator name="symmetry" >
   <i type="int" name="ISYM">     2</i>
   <i name="SYMPREC">      0.00001000</i>
  </separator>
  <separator name="dos" >
   <i type="int" name="LORBIT">     0</i>
   <v name="RWIGS">     -1.00000000</v>
   <i type="int" name="NEDOS">   301</i>
   <i name="EMIN">     10.00000000</i>
   <i name="EMAX">    -10.00000000</i>
   <i name="EFERMI">      0.00000000</i>
  </separator>
  <separator name="writing" >
   <i type="int" name="NWRITE">     2</i>
   <i type="logical" name="LWAVE"> F  </i>
   <i type="logical" name="LDOWNSAMPLE"> F  </i>
   <i type="logical" name="LCHARG"> F  </i>
   <i type="logical" name="LPARD"> F  </i>
   <i type="logical" name="LVTOT"> F  </i>
   <i type="logical" name="LVHAR"> F  </i>
   <i type="logical" name="LELF"> F  </i>
   <i type="logical" name="LOPTICS"> F  </i>
   <v name="STM">      0.00000000      0.00000000      0.00000000      0.00000000      0.00000000      0.00000000      0.00000000</v>
  </separator>
  <separator name="performance" >
   <i type="int" name="NPAR">    24</i>
   <i type="int" name="NSIM">     4</i>
   <i type="int" name="NBLK">    -1</i>
   <i type="logical" name="LPLANE"> T  </i>
   <i type="logical" name="LSCALAPACK"> T  </i>
   <i type="logical" name="LSCAAWARE"> F  </i>
   <i type="logical" name="LSCALU"> F  </i>
   <i type="logical" name="LASYNC"> F  </i>
   <i type="logical" name="LORBITALREAL"> F  </i>
  </separator>
  <separator name="miscellaneous" >
   <i type="int" name="IDIOT">     3</i>
   <i type="int" name="ISPECIAL">     0</i>
   <i type="logical" name="LMUSIC"> F  </i>
   <v name="POMASS">     12.01100000</v>
   <v name="DARWINR">      0.00000000</v>
   <v name="DARWINV">      1.00000000</v>
   <i type="logical" name="LCORR"> T  </i>
  </separator>
  <i type="logical" name="GGA_COMPAT"> T  </i>
  <i type="logical" name="LBERRY"> F  </i>
  <i type="int" name="ICORELEVEL">     0</i>
  <i type="logical" name="LDAU"> F  </i>
  <i type="int" name="I_CONSTRAINED_M">     0</i>
  <separator name="electronic exchange-correlation" >
   <i type="string" name="GGA">--</i>
   <i type="int" name="VOSKOWN">     0</i>
   <i type="logical" name="LHFCALC"> F  </i>
   <i type="string" name="PRECFOCK"></i>
   <i type="logical" name="LSYMGRAD"> F  </i>
   <i type="logical" name="LHFONE"> F  </i>
   <i type="logical" name="LRHFCALC"> F  </i>
   <i type="logical" name="LTHOMAS"> F  </i>
   <i type="logical" name="LMODELHF"> F  </i>
   <i name="ENCUT4O">     -1.00000000</i>
   <i type="int" name="EXXOEP">     0</i>
   <i type="int" name="FOURORBIT">     0</i>
   <i name="AEXX">      0.00000000</i>
   <i name="HFALPHA">      0.00000000</i>
   <i name="MCALPHA">      0.00000000</i>
   <i name="ALDAX">      1.00000000</i>
   <i name="AGGAX">      1.00000000</i>
   <i name="ALDAC">      1.00000000</i>
   <i name="AGGAC">      1.00000000</i>
   <i type="int" name="NKREDX">     1</i>
   <i type="int" name="NKREDY">     1</i>
   <i type="int" name="NKREDZ">     1</i>
   <i type="logical" name="SHIFTRED"> F  </i>
   <i type="logical" name="ODDONLY"> F  </i>
   <i type="logical" name="EVENONLY"> F  </i>
   <i type="int" name="LMAXFOCK">     0</i>
   <i type="int" name="NMAXFOCKAE">     0</i>
   <i type="logical" name="LFOCKAEDFT"> F  </i>
   <i name="HFSCREEN">      0.00000000</i>
   <i name="HFSCREENC">      0.00000000</i>
   <i type="int" name="NBANDSGWLOW">     0</i>
  </separator>
  <separator name="vdW DFT" >
   <i type="logical" name="LUSE_VDW"> F  </i>
   <i name="Zab_VDW">     -0.84910000</i>
   <i name="PARAM1">      0.12340000</i>
   <i name="PARAM2">      1.00000000</i>
   <i name="PARAM3">      0.00000000</i>
  </separator>
  <separator name="model GW" >
   <i type="int" name="MODEL_GW">     0</i>
   <i name="MODEL_EPS0">     47.93791278</i>
   <i name="MODEL_ALPHA">      1.00000000</i>
  </separator>
  <separator name="linear response parameters" >
   <i type="logical" name="LEPSILON"> F  </i>
   <i type="logical" name="LRPA"> F  </i>
   <i type="logical" name="LNABLA"> F  </i>
   <i type="logical" name="LVEL"> F  </i>
   <i type="int" name="KINTER">     0</i>
   <i name="CSHIFT">      0.10000000</i>
   <i name="OMEGAMAX">     -1.00000000</i>
   <i name="DEG_THRESHOLD">      0.00200000</i>
   <i name="RTIME">     -0.10000000</i>
   <i name="WPLASMAI">      0.00000000</i>
   <v name="DFIELD">      0.00000000      0.00000000      0.00000000</v>
   <v name="WPLASMA">      0.00000000      0.00000000      0.00000000      0.00000000      0.00000000      0.00000000      0.00000000      0.00000000      0.00000000</v>
  </separator>
  <separator name="orbital magnetization" >
   <i type="logical" name="NUCIND"> F  </i>
   <v name="MAGPOS">      0.00000000      0.00000000      0.00000000</v>
   <i type="logical" name="LNICSALL"> T  </i>
   <i type="logical" name="ORBITALMAG"> F  </i>
   <i type="logical" name="LMAGBLOCH"> F  </i>
   <i type="logical" name="LCHIMAG"> F  </i>
   <i type="logical" name="LGAUGE"> T  </i>
   <i type="int" name="MAGATOM">     0</i>
   <v name="MAGDIPOL">      0.00000000      0.00000000      0.00000000</v>
   <v name="AVECCONST">      0.00000000      0.00000000      0.00000000</v>
  </separator>
  <separator name="response functions" >
   <i type="logical" name="LADDER"> F  </i>
   <i type="logical" name="LRPAFORCE"> F  </i>
   <i type="logical" name="LFXC"> F  </i>
   <i type="logical" name="LHARTREE"> T  </i>
   <i type="int" name="IBSE">     0</i>
   <v type="int" name="KPOINT">    -1     0     0     0</v>
   <i type="logical" name="LTCTE"> F  </i>
   <i type="logical" name="LTETE"> F  </i>
   <i type="logical" name="LTRIPLET"> F  </i>
   <i type="logical" name="LFXCEPS"> F  </i>
   <i type="logical" name="LFXHEG"> F  </i>
   <i type="int" name="NATURALO">     2</i>
   <i type="logical" name="L2ORDER"> F  </i>
   <i type="logical" name="LMP2LT"> F  </i>
   <i type="logical" name="LUSEW"> F  </i>
   <i name="ENCUTGW">     -2.00000000</i>
   <i name="ENCUTGWSOFT">     -2.00000000</i>
   <i name="ENCUTLF">     -1.00000000</i>
   <i type="int" name="LMAXMP2">    -1</i>
   <i name="SCISSOR">      0.00000000</i>
   <i type="int" name="NOMEGA">     0</i>
   <i type="int" name="NOMEGAR">     0</i>
   <i type="int" name="NBANDSGW">    -1</i>
   <i type="int" name="NBANDSO">    -1</i>
   <i type="int" name="NBANDSV">    -1</i>
   <i type="int" name="NELM">    40</i>
   <i type="int" name="NELMHF">     1</i>
   <i type="int" name="DIM">     3</i>
   <i type="int" name="ANTIRES">     0</i>
   <i name="OMEGAMAX">    -30.00000000</i>
   <i name="OMEGAMIN">    -30.00000000</i>
   <i name="OMEGATL">   -200.00000000</i>
   <i type="int" name="OMEGAGRID">   140</i>
   <i name="CSHIFT">     -0.10000000</i>
   <i type="logical" name="SELFENERGY"> F  </i>
   <i type="logical" name="LSPECTRAL"> F  </i>
   <i type="logical" name="LSPECTRALGW"> F  </i>
   <i type="logical" name="LSINGLES"> F  </i>
   <i type="logical" name="LFERMIGW"> F  </i>
   <i type="logical" name="ODDONLYGW"> F  </i>
   <i type="logical" name="EVENONLYGW"> F  </i>
   <i type="int" name="NKREDLFX">     1</i>
   <i type="int" name="NKREDLFY">     1</i>
   <i type="int" name="NKREDLFZ">     1</i>
   <i type="int" name="MAXMEM">  2800</i>
   <i type="int" name="TELESCOPE">     0</i>
   <i type="int" name="TAUPAR">     1</i>
   <i type="int" name="OMEGAPAR">    -1</i>
   <i name="LAMBDA">      1.00000000</i>
  </separator>
  <separator name="External order field" >
   <i name="OFIELD_KAPPA">      0.00000000</i>
   <v name="OFIELD_K">      0.00000000      0.00000000      0.00000000</v>
   <i name="OFIELD_Q6_NEAR">      0.00000000</i>
   <i name="OFIELD_Q6_FAR">      0.00000000</i>
   <i name="OFIELD_A">      0.00000000</i>
  </separator>
 </parameters>
 <atominfo>
  <atoms>       2 </atoms>
  <types>       1 </types>
  <array name="atoms" >
   <dimension dim="1">ion</dimension>
   <field type="string">element</field>
   <field type="int">atomtype</field>
   <set>
    <rc><c>C </c><c>   1</c></rc>
    <rc><c>C </c><c>   1</c></rc>
   </set>
  </array>
  <array name="atomtypes" >
   <dimension dim="1">type</dimension>
   <field type="int">atomspertype</field>
   <field type="string">element</field>
   <field>mass</field>
   <field>valence</field>
   <field type="string">pseudopotential</field>
   <set>
    <rc><c>   2</c><c>C </c><c>     12.01100000</c><c>      4.00000000</c><c>  PAW_PBE C_h 06Feb2004                 </c></rc>
   </set>
  </array>
 </atominfo>
 <structure name="initialpos" >
  <crystal>
   <varray name="basis" >
    <v>       1.23420691      -2.13771446       0.00000000 </v>
    <v>       1.23420691       2.13771446       0.00000000 </v>
    <v>       0.00000000       0.00000000      30.28239374 </v>
   </varray>
   <i name="volume">    159.79304260 </i>
   <varray name="rec_basis" >
    <v>       0.40511846      -0.23389466       0.00000000 </v>
    <v>       0.40511846       0.23389466       0.00000000 </v>
    <v>       0.00000000       0.00000000       0.03302249 </v>
   </varray>
  </crystal>
  <varray name="positions" >
   <v>       0.00000262       0.99999738       0.50000000 </v>
   <v>       0.66666738       0.33333262       0.50000000 </v>
  </varray>
 </structure>
 <calculation>
  <scstep>
   <time name="diag">    0.65    0.78</time>
   <time name="diis">    1.20    1.22</time>
   <time name="orth">    0.03    0.03</time>
   <time name="total">    1.93    2.13</time>
   <energy>
    <i name="alphaZ">      1.37229364 </i>
    <i name="ewald">   2231.99941425 </i>
    <i name="hartreedc">  -2438.22213201 </i>
    <i name="XCdc">     14.48577738 </i>
    <i name="pawpsdc">    228.69403340 </i>
    <i name="pawaedc">   -218.18290438 </i>
    <i name="eentropy">     -0.00158473 </i>
    <i name="bandstr">    -13.43640841 </i>
    <i name="atom">    294.30319316 </i>
    <i name="e_fr_energy">    101.01168232 </i>
    <i name="e_wo_entrp">    101.01326705 </i>
    <i name="e_0_energy">    101.01247468 </i>
   </energy>
  </scstep>
  <scstep>
   <time name="diag">    0.62    0.63</time>
   <time name="diis">    1.20    1.20</time>
   <time name="orth">    0.03    0.03</time>
   <time name="total">    1.85    1.87</time>
   <energy>
    <i name="e_fr_energy">     52.37720279 </i>
    <i name="e_wo_entrp">     52.38234290 </i>
    <i name="e_0_energy">     52.37977284 </i>
   </energy>
  </scstep>
  <scstep>
   <time name="diag">    0.62    0.63</time>
   <time name="diis">    1.19    1.19</time>
   <time name="orth">    0.03    0.03</time>
   <time name="total">    1.84    1.86</time>
   <energy>
    <i name="e_fr_energy">     10.64474322 </i>
    <i name="e_wo_entrp">     10.64606516 </i>
    <i name="e_0_energy">     10.64540419 </i>
   </energy>
  </scstep>
  <scstep>
   <time name="diag">    0.62    0.64</time>
   <time name="diis">    1.19    1.20</time>
   <time name="orth">    0.03    0.03</time>
   <time name="total">    1.85    1.86</time>
   <energy>
    <i name="e_fr_energy">    -13.24359146 </i>
    <i name="e_wo_entrp">    -13.24312928 </i>
    <i name="e_0_energy">    -13.24336037 </i>
   </energy>
  </scstep>
  <scstep>
   <time name="diag">    0.62    0.63</time>
   <time name="diis">    1.20    1.20</time>
   <time name="orth">    0.03    0.03</time>
   <time name="total">    1.85    1.87</time>
   <energy>
    <i name="e_fr_energy">    -18.34001102 </i>
    <i name="e_wo_entrp">    -18.34001102 </i>
    <i name="e_0_energy">    -18.34001102 </i>
   </energy>
  </scstep>
  <scstep>
   <time name="diag">    0.62    0.64</time>
   <time name="diis">    1.20    1.20</time>
   <time name="orth">    0.03    0.03</time>
   <time name="total">    1.85    1.87</time>
   <energy>
    <i name="e_fr_energy">    -19.40265464 </i>
    <i name="e_wo_entrp">    -19.40265464 </i>
    <i name="e_0_energy">    -19.40265464 </i>
   </energy>
  </scstep>
  <scstep>
   <time name="diag">    0.62    0.63</time>
   <time name="diis">    1.20    1.20</time>
   <time name="orth">    0.03    0.03</time>
   <time name="total">    1.85    1.87</time>
   <energy>
    <i name="e_fr_energy">    -19.63832170 </i>
    <i name="e_wo_entrp">    -19.63832170 </i>
    <i name="e_0_energy">    -19.63832170 </i>
   </energy>
  </scstep>
  <scstep>
   <time name="diag">    0.62    0.63</time>
   <time name="diis">    1.21    1.21</time>
   <time name="orth">    0.03    0.03</time>
   <time name="total">    1.86    1.88</time>
   <energy>
    <i name="e_fr_energy">    -19.70051695 </i>
    <i name="e_wo_entrp">    -19.70051695 </i>
    <i name="e_0_energy">    -19.70051695 </i>
   </energy>
  </scstep>
  <scstep>
   <time name="diag">    0.62    0.63</time>
   <time name="diis">    2.27    2.31</time>
   <time name="orth">    0.03    0.03</time>
   <time name="total">    2.92    2.97</time>
   <energy>
    <i name="e_fr_energy">    -19.72302144 </i>
    <i name="e_wo_entrp">    -19.72302144 </i>
    <i name="e_0_energy">    -19.72302144 </i>
   </energy>
  </scstep>
  <scstep>
   <time name="diag">    0.62    0.63</time>
   <time name="diis">    2.59    2.60</time>
   <time name="orth">    0.03    0.03</time>
   <time name="total">    3.25    3.26</time>
   <energy>
    <i name="e_fr_energy">    -19.72721084 </i>
    <i name="e_wo_entrp">    -19.72721084 </i>
    <i name="e_0_energy">    -19.72721084 </i>
   </energy>
  </scstep>
  <scstep>
   <time name="diag">    0.63    0.63</time>
   <time name="diis">    2.30    2.31</time>
   <time name="orth">    0.03    0.03</time>
   <time name="total">    2.96    2.97</time>
   <energy>
    <i name="e_fr_energy">    -19.72736999 </i>
    <i name="e_wo_entrp">    -19.72736999 </i>
    <i name="e_0_energy">    -19.72736999 </i>
   </energy>
  </scstep>
  <scstep>
   <time name="diag">    0.62    0.63</time>
   <time name="diis">    2.51    2.52</time>
   <time name="orth">    0.03    0.03</time>
   <time name="total">    3.34    3.41</time>
   <energy>
    <i name="e_fr_energy">    -19.72739900 </i>
    <i name="e_wo_entrp">    -19.72739900 </i>
    <i name="e_0_energy">    -19.72739900 </i>
   </energy>
  </scstep>
  <scstep>
   <time name="diag">    0.62    0.62</time>
   <time name="diis">    2.22    2.23</time>
   <time name="orth">    0.03    0.03</time>
   <time name="total">    3.06    3.09</time>
   <energy>
    <i name="e_fr_energy">    -18.84228091 </i>
    <i name="e_wo_entrp">    -18.84228091 </i>
    <i name="e_0_energy">    -18.84228091 </i>
   </energy>
  </scstep>
  <scstep>
   <time name="diag">    0.61    0.61</time>
   <time name="diis">    2.21    2.22</time>
   <time name="orth">    0.03    0.03</time>
   <time name="total">    3.04    3.07</time>
   <energy>
    <i name="e_fr_energy">    -18.50923704 </i>
    <i name="e_wo_entrp">    -18.50923704 </i>
    <i name="e_0_energy">    -18.50923704 </i>
   </energy>
  </scstep>
  <scstep>
   <time name="diag">    0.61    0.61</time>
   <time name="diis">    2.30    2.31</time>
   <time name="orth">    0.03    0.03</time>
   <time name="total">    3.14    3.16</time>
   <energy>
    <i name="e_fr_energy">    -18.48861474 </i>
    <i name="e_wo_entrp">    -18.48861474 </i>
    <i name="e_0_energy">    -18.48861474 </i>
   </energy>
  </scstep>
  <scstep>
   <time name="diag">    0.61    0.61</time>
   <time name="diis">    2.36    2.36</time>
   <time name="orth">    0.03    0.03</time>
   <time name="total">    3.19    3.21</time>
   <energy>
    <i name="e_fr_energy">    -18.48705428 </i>
    <i name="e_wo_entrp">    -18.48705428 </i>
    <i name="e_0_energy">    -18.48705428 </i>
   </energy>
  </scstep>
  <scstep>
   <time name="diag">    0.61    0.61</time>
   <time name="diis">    2.24    2.26</time>
   <time name="orth">    0.03    0.03</time>
   <time name="total">    3.07    3.11</time>
   <energy>
    <i name="e_fr_energy">    -18.48573952 </i>
    <i name="e_wo_entrp">    -18.48573952 </i>
    <i name="e_0_energy">    -18.48573952 </i>
   </energy>
  </scstep>
  <scstep>
   <time name="diag">    0.62    0.65</time>
   <time name="diis">    2.16    2.28</time>
   <time name="orth">    0.03    0.03</time>
   <time name="total">    3.02    3.18</time>
   <energy>
    <i name="e_fr_energy">    -18.48567646 </i>
    <i name="e_wo_entrp">    -18.48567646 </i>
    <i name="e_0_energy">    -18.48567646 </i>
   </energy>
  </scstep>
  <scstep>
   <time name="diag">    0.61    0.61</time>
   <time name="diis">    2.23    2.24</time>
   <time name="orth">    0.03    0.03</time>
   <time name="total">    3.06    3.08</time>
   <energy>
    <i name="e_fr_energy">    -18.48614534 </i>
    <i name="e_wo_entrp">    -18.48614534 </i>
    <i name="e_0_energy">    -18.48614534 </i>
   </energy>
  </scstep>
  <scstep>
   <time name="diag">    0.61    0.61</time>
   <time name="diis">    2.33    2.34</time>
   <time name="orth">    0.03    0.03</time>
   <time name="total">    3.16    3.18</time>
   <energy>
    <i name="e_fr_energy">    -18.48643741 </i>
    <i name="e_wo_entrp">    -18.48643741 </i>
    <i name="e_0_energy">    -18.48643741 </i>
   </energy>
  </scstep>
  <scstep>
   <time name="diag">    0.61    0.61</time>
   <time name="diis">    2.25    2.26</time>
   <time name="orth">    0.03    0.03</time>
   <time name="total">    3.09    3.11</time>
   <energy>
    <i name="e_fr_energy">    -18.48699532 </i>
    <i name="e_wo_entrp">    -18.48699532 </i>
    <i name="e_0_energy">    -18.48699532 </i>
   </energy>
  </scstep>
  <scstep>
   <time name="diag">    0.62    0.62</time>
   <time name="diis">    2.19    2.20</time>
   <time name="orth">    0.03    0.03</time>
   <time name="total">    3.04    3.05</time>
   <energy>
    <i name="e_fr_energy">    -18.48709063 </i>
    <i name="e_wo_entrp">    -18.48709063 </i>
    <i name="e_0_energy">    -18.48709063 </i>
   </energy>
  </scstep>
  <scstep>
   <time name="diag">    0.61    0.61</time>
   <time name="diis">    2.26    2.27</time>
   <time name="orth">    0.03    0.03</time>
   <time name="total">    3.09    3.13</time>
   <energy>
    <i name="e_fr_energy">    -18.48711047 </i>
    <i name="e_wo_entrp">    -18.48711047 </i>
    <i name="e_0_energy">    -18.48711047 </i>
   </energy>
  </scstep>
  <scstep>
   <time name="diag">    0.61    0.61</time>
   <time name="diis">    2.17    2.18</time>
   <time name="orth">    0.03    0.03</time>
   <time name="total">    3.00    3.02</time>
   <energy>
    <i name="e_fr_energy">    -18.48712450 </i>
    <i name="e_wo_entrp">    -18.48712450 </i>
    <i name="e_0_energy">    -18.48712450 </i>
   </energy>
  </scstep>
  <scstep>
   <time name="diag">    0.61    0.61</time>
   <time name="diis">    2.18    2.19</time>
   <time name="orth">    0.03    0.03</time>
   <time name="total">    3.02    3.03</time>
   <energy>
    <i name="e_fr_energy">    -18.48712631 </i>
    <i name="e_wo_entrp">    -18.48712631 </i>
    <i name="e_0_energy">    -18.48712631 </i>
   </energy>
  </scstep>
  <scstep>
   <time name="diag">    0.61    0.61</time>
   <time name="diis">    2.17    2.18</time>
   <time name="orth">    0.03    0.03</time>
   <time name="total">    3.01    3.03</time>
   <energy>
    <i name="e_fr_energy">    -18.48712836 </i>
    <i name="e_wo_entrp">    -18.48712836 </i>
    <i name="e_0_energy">    -18.48712836 </i>
   </energy>
  </scstep>
  <scstep>
   <time name="diag">    0.61    0.61</time>
   <time name="diis">    2.20    2.20</time>
   <time name="orth">    0.03    0.03</time>
   <time name="total">    3.03    3.05</time>
   <energy>
    <i name="e_fr_energy">    -18.48712921 </i>
    <i name="e_wo_entrp">    -18.48712921 </i>
    <i name="e_0_energy">    -18.48712921 </i>
   </energy>
  </scstep>
  <scstep>
   <time name="diag">    0.61    0.61</time>
   <time name="diis">    2.17    2.18</time>
   <time name="orth">    0.03    0.03</time>
   <time name="total">    3.00    3.02</time>
   <energy>
    <i name="e_fr_energy">    -18.48712943 </i>
    <i name="e_wo_entrp">    -18.48712943 </i>
    <i name="e_0_energy">    -18.48712943 </i>
   </energy>
  </scstep>
  <scstep>
   <time name="diag">    0.61    0.61</time>
   <time name="diis">    2.18    2.18</time>
   <time name="orth">    0.03    0.03</time>
   <time name="total">    2.84    2.85</time>
   <energy>
    <i name="alphaZ">      1.37229364 </i>
    <i name="ewald">   2231.99941425 </i>
    <i name="hartreedc">  -2473.59525224 </i>
    <i name="XCdc">     15.61695306 </i>
    <i name="pawpsdc">   4099.57237051 </i>
    <i name="pawaedc">  -4089.23107901 </i>
    <i name="eentropy">     -0.00000000 </i>
    <i name="bandstr">    -98.52502285 </i>
    <i name="atom">    294.30319316 </i>
    <i name="e_fr_energy">    -18.48712947 </i>
    <i name="e_wo_entrp">    -18.48712947 </i>
    <i name="e_0_energy">    -18.48712947 </i>
   </energy>
  </scstep>
  <structure>
   <crystal>
    <varray name="basis" >
     <v>       1.23420691      -2.13771446       0.00000000 </v>
     <v>       1.23420691       2.13771446       0.00000000 </v>
     <v>       0.00000000       0.00000000      30.28239374 </v>
    </varray>
    <i name="volume">    159.79304260 </i>
    <varray name="rec_basis" >
     <v>       0.40511846      -0.23389466       0.00000000 </v>
     <v>       0.40511846       0.23389466       0.00000000 </v>
     <v>       0.00000000       0.00000000       0.03302249 </v>
    </varray>
   </crystal>
   <varray name="positions" >
    <v>       0.00000262       0.99999738       0.50000000 </v>
    <v>       0.66666738       0.33333262       0.50000000 </v>
   </varray>
  </structure>
  <varray name="forces" >
   <v>       0.00000000      -0.00000000       0.00000000 </v>
   <v>      -0.00000000       0.00000000       0.00000000 </v>
  </varray>
  <varray name="stress" >
   <v>      -1.70780129       0.00000000       0.00000000 </v>
   <v>       0.00000000      -1.70780988       0.00000000 </v>
   <v>      -0.00000000       0.00000000      -0.46882236 </v>
  </varray>
  <energy>
   <i name="e_fr_energy">    -18.59540201 </i>
   <i name="e_wo_entrp">    -18.59540201 </i>
   <i name="e_0_energy">     -0.00000000 </i>
  </energy>
  <time name="totalsc">   80.76   81.85</time>
  <eigenvalues>
   <array>
    <dimension dim="1">band</dimension>
    <dimension dim="2">kpoint</dimension>
    <dimension dim="3">spin</dimension>
    <field>eigene</field>
    <field>occ</field>
    <set>
     <set comment="spin 1">
      <set comment="kpoint 1">
       <r>  -22.5547    1.0000 </r>
       <r>  -10.6256    1.0000 </r>
       <r>   -6.7198    1.0000 </r>
       <r>   -6.5016    1.0000 </r>
       <r>    0.2631    0.0000 </r>
       <r>    1.0284    0.0000 </r>
       <r>    1.2497    0.0000 </r>
       <r>    1.5625    0.0000 </r>
       <r>    1.7696    0.0000 </r>
       <r>    2.4154    0.0000 </r>
       <r>    2.7165    0.0000 </r>
       <r>    3.6650    0.0000 </r>
       <r>    4.0171    0.0000 </r>
       <r>    5.1934    0.0000 </r>
       <r>    5.2609    0.0000 </r>
       <r>    5.6104    0.0000 </r>
       <r>    5.6862    0.0000 </r>
       <r>    7.2004    0.0000 </r>
       <r>    7.7006    0.0000 </r>
       <r>    7.7980    0.0000 </r>
       <r>    9.4799    0.0000 </r>
       <r>    9.4825    0.0000 </r>
       <r>   10.0681    0.0000 </r>
       <r>   12.0933    0.0000 </r>
      </set>
      <set comment="kpoint 2">
       <r>  -22.1468    1.0000 </r>
       <r>  -10.1403    1.0000 </r>
       <r>   -8.0999    1.0000 </r>
       <r>   -7.2441    1.0000 </r>
       <r>    0.8187    0.0000 </r>
       <r>    1.5918    0.0000 </r>
       <r>    1.8208    0.0000 </r>
       <r>    2.1309    0.0000 </r>
       <r>    2.3387    0.0000 </r>
       <r>    2.9821    0.0000 </r>
       <r>    3.2829    0.0000 </r>
       <r>    4.2291    0.0000 </r>
       <r>    4.5764    0.0000 </r>
       <r>    5.2938    0.0000 </r>
       <r>    5.8208    0.0000 </r>
       <r>    6.2538    0.0000 </r>
       <r>    6.5174    0.0000 </r>
       <r>    7.0329    0.0000 </r>
       <r>    7.7569    0.0000 </r>
       <r>    8.2659    0.0000 </r>
       <r>   10.0279    0.0000 </r>
       <r>   10.3443    0.0000 </r>
       <r>   10.6325    0.0000 </r>
       <r>   12.6363    0.0000 </r>
      </set>
      <set comment="kpoint 3">
       <r>  -21.4174    1.0000 </r>
       <r>  -10.0791    1.0000 </r>
       <r>   -9.2822    1.0000 </r>
       <r>   -8.1475    1.0000 </r>
       <r>    1.8175    0.0000 </r>
       <r>    2.5998    0.0000 </r>
       <r>    2.8487    0.0000 </r>
       <r>    3.1515    0.0000 </r>
       <r>    3.3629    0.0000 </r>
       <r>    3.9937    0.0000 </r>
       <r>    4.2996    0.0000 </r>
       <r>    4.5687    0.0000 </r>
       <r>    5.0810    0.0000 </r>
       <r>    5.2526    0.0000 </r>
       <r>    5.6189    0.0000 </r>
       <r>    6.8316    0.0000 </r>
       <r>    7.2652    0.0000 </r>
       <r>    8.7522    0.0000 </r>
       <r>    9.2236    0.0000 </r>
       <r>    9.2934    0.0000 </r>
       <r>   10.9996    0.0000 </r>
       <r>   11.6285    0.0000 </r>
       <r>   11.8283    0.0000 </r>
       <r>   13.5408    0.0000 </r>
      </set>
      <set comment="kpoint 4">
       <r>  -20.3769    1.0000 </r>
       <r>  -12.2544    1.0000 </r>
       <r>   -8.9382    1.0000 </r>
       <r>   -8.0904    1.0000 </r>
       <r>    2.2695    0.0000 </r>
       <r>    3.2527    0.0000 </r>
       <r>    4.0823    0.0000 </r>
       <r>    4.3327    0.0000 </r>
       <r>    4.6347    0.0000 </r>
       <r>    4.7387    0.0000 </r>
       <r>    4.8670    0.0000 </r>
       <r>    5.4767    0.0000 </r>
       <r>    5.7856    0.0000 </r>
       <r>    6.7088    0.0000 </r>
       <r>    7.0744    0.0000 </r>
       <r>    8.2763    0.0000 </r>
       <r>    8.7246    0.0000 </r>
       <r>   10.1654    0.0000 </r>
       <r>   10.7280    0.0000 </r>
       <r>   11.6349    0.0000 </r>
       <r>   12.3230    0.0000 </r>
       <r>   13.0785    0.0000 </r>
       <r>   13.2452    0.0000 </r>
       <r>   14.3115    0.0000 </r>
      </set>
      <set comment="kpoint 5">
       <r>  -19.0489    1.0000 </r>
       <r>  -14.3817    1.0000 </r>
       <r>   -9.4842    1.0000 </r>
       <r>   -6.6809    1.0000 </r>
       <r>    0.0711    0.0000 </r>
       <r>    4.4656    0.0000 </r>
       <r>    5.1538    0.0000 </r>
       <r>    5.9696    0.0000 </r>
       <r>    6.2752    0.0000 </r>
       <r>    6.5611    0.0000 </r>
       <r>    6.7789    0.0000 </r>
       <r>    7.3915    0.0000 </r>
       <r>    7.7059    0.0000 </r>
       <r>    8.6026    0.0000 </r>
       <r>    8.9857    0.0000 </r>
       <r>   10.1205    0.0000 </r>
       <r>   10.6239    0.0000 </r>
       <r>   11.2801    0.0000 </r>
       <r>   11.7490    0.0000 </r>
       <r>   12.4462    0.0000 </r>
       <r>   12.6182    0.0000 </r>
       <r>   13.1208    0.0000 </r>
       <r>   13.3128    0.0000 </r>
       <r>   13.5405    0.0000 </r>
      </set>
      <set comment="kpoint 6">
       <r>  -17.5904    1.0000 </r>
       <r>  -16.1987    1.0000 </r>
       <r>   -9.7268    1.0000 </r>
       <r>   -5.5559    1.0000 </r>
       <r>   -1.4223    0.0000 </r>
       <r>    4.3545    0.0000 </r>
       <r>    7.4131    0.0000 </r>
       <r>    8.2564    0.0000 </r>
       <r>    8.6697    0.0000 </r>
       <r>    8.6940    0.0000 </r>
       <r>    8.9283    0.0000 </r>
       <r>    9.1639    0.0000 </r>
       <r>    9.5072    0.0000 </r>
       <r>    9.7752    0.0000 </r>
       <r>   10.0424    0.0000 </r>
       <r>   10.0729    0.0000 </r>
       <r>   10.2853    0.0000 </r>
       <r>   10.5223    0.0000 </r>
       <r>   10.8677    0.0000 </r>
       <r>   11.1166    0.0000 </r>
       <r>   11.3299    0.0000 </r>
       <r>   11.4161    0.0000 </r>
       <r>   12.0736    0.0000 </r>
       <r>   12.5580    0.0000 </r>
      </set>
      <set comment="kpoint 7">
       <r>  -18.3013    1.0000 </r>
       <r>  -15.3673    1.0000 </r>
       <r>   -9.6454    1.0000 </r>
       <r>   -6.0111    1.0000 </r>
       <r>   -0.8423    0.0000 </r>
       <r>    4.3950    0.0000 </r>
       <r>    6.2316    0.0000 </r>
       <r>    7.0704    0.0000 </r>
       <r>    7.4170    0.0000 </r>
       <r>    7.6922    0.0000 </r>
       <r>    7.9148    0.0000 </r>
       <r>    8.5103    0.0000 </r>
       <r>    8.8341    0.0000 </r>
       <r>    9.6896    0.0000 </r>
       <r>   10.0007    0.0000 </r>
       <r>   10.1160    0.0000 </r>
       <r>   10.7815    0.0000 </r>
       <r>   11.3005    0.0000 </r>
       <r>   11.5251    0.0000 </r>
       <r>   11.7364    0.0000 </r>
       <r>   11.7593    0.0000 </r>
       <r>   11.9854    0.0000 </r>
       <r>   12.4496    0.0000 </r>
       <r>   12.8748    0.0000 </r>
      </set>
      <set comment="kpoint 8">
       <r>  -19.7461    1.0000 </r>
       <r>  -13.3353    1.0000 </r>
       <r>   -9.2466    1.0000 </r>
       <r>   -7.3984    1.0000 </r>
       <r>    1.1398    0.0000 </r>
       <r>    4.1164    0.0000 </r>
       <r>    4.6322    0.0000 </r>
       <r>    4.9707    0.0000 </r>
       <r>    5.2478    0.0000 </r>
       <r>    5.5414    0.0000 </r>
       <r>    5.7565    0.0000 </r>
       <r>    6.3790    0.0000 </r>
       <r>    6.6888    0.0000 </r>
       <r>    7.6033    0.0000 </r>
       <r>    7.9746    0.0000 </r>
       <r>    9.1548    0.0000 </r>
       <r>    9.6206    0.0000 </r>
       <r>   11.0013    0.0000 </r>
       <r>   11.6150    0.0000 </r>
       <r>   12.0963    0.0000 </r>
       <r>   12.8917    0.0000 </r>
       <r>   13.8364    0.0000 </r>
       <r>   13.8920    0.0000 </r>
       <r>   14.7624    0.0000 </r>
      </set>
      <set comment="kpoint 9">
       <r>  -20.9351    1.0000 </r>
       <r>  -11.1604    1.0000 </r>
       <r>   -8.7238    1.0000 </r>
       <r>   -8.5675    1.0000 </r>
       <r>    2.4815    0.0000 </r>
       <r>    3.1942    0.0000 </r>
       <r>    3.5054    0.0000 </r>
       <r>    3.5338    0.0000 </r>
       <r>    3.8517    0.0000 </r>
       <r>    4.0446    0.0000 </r>
       <r>    4.6881    0.0000 </r>
       <r>    4.8776    0.0000 </r>
       <r>    5.0362    0.0000 </r>
       <r>    5.9235    0.0000 </r>
       <r>    6.2871    0.0000 </r>
       <r>    7.5002    0.0000 </r>
       <r>    7.9391    0.0000 </r>
       <r>    9.4093    0.0000 </r>
       <r>    9.9458    0.0000 </r>
       <r>   10.4825    0.0000 </r>
       <r>   11.6296    0.0000 </r>
       <r>   12.3001    0.0000 </r>
       <r>   12.6070    0.0000 </r>
       <r>   14.0580    0.0000 </r>
      </set>
      <set comment="kpoint 10">
       <r>  -21.8218    1.0000 </r>
       <r>   -9.7562    1.0000 </r>
       <r>   -9.0439    1.0000 </r>
       <r>   -7.6971    1.0000 </r>
       <r>    1.2629    0.0000 </r>
       <r>    2.0414    0.0000 </r>
       <r>    2.2776    0.0000 </r>
       <r>    2.5852    0.0000 </r>
       <r>    2.7940    0.0000 </r>
       <r>    3.4346    0.0000 </r>
       <r>    3.7357    0.0000 </r>
       <r>    4.6779    0.0000 </r>
       <r>    5.0029    0.0000 </r>
       <r>    5.2558    0.0000 </r>
       <r>    5.6017    0.0000 </r>
       <r>    6.2740    0.0000 </r>
       <r>    6.7034    0.0000 </r>
       <r>    8.0660    0.0000 </r>
       <r>    8.2003    0.0000 </r>
       <r>    8.7164    0.0000 </r>
       <r>   10.4626    0.0000 </r>
       <r>   11.0171    0.0000 </r>
       <r>   11.0977    0.0000 </r>
       <r>   13.0403    0.0000 </r>
      </set>
      <set comment="kpoint 11">
       <r>  -22.3913    1.0000 </r>
       <r>  -10.4308    1.0000 </r>
       <r>   -7.3037    1.0000 </r>
       <r>   -6.8282    1.0000 </r>
       <r>    0.4853    0.0000 </r>
       <r>    1.2539    0.0000 </r>
       <r>    1.4781    0.0000 </r>
       <r>    1.7899    0.0000 </r>
       <r>    1.9972    0.0000 </r>
       <r>    2.6422    0.0000 </r>
       <r>    2.9431    0.0000 </r>
       <r>    3.8908    0.0000 </r>
       <r>    4.2414    0.0000 </r>
       <r>    5.2713    0.0000 </r>
       <r>    5.4854    0.0000 </r>
       <r>    5.9151    0.0000 </r>
       <r>    6.1988    0.0000 </r>
       <r>    7.2634    0.0000 </r>
       <r>    7.4235    0.0000 </r>
       <r>    7.9272    0.0000 </r>
       <r>    9.6996    0.0000 </r>
       <r>    9.8174    0.0000 </r>
       <r>   10.2938    0.0000 </r>
       <r>   12.3068    0.0000 </r>
      </set>
      <set comment="kpoint 12">
       <r>  -22.6365    1.0000 </r>
       <r>  -10.7233    1.0000 </r>
       <r>   -6.4040    1.0000 </r>
       <r>   -6.3243    1.0000 </r>
       <r>    0.1520    0.0000 </r>
       <r>    0.9155    0.0000 </r>
       <r>    1.1355    0.0000 </r>
       <r>    1.4488    0.0000 </r>
       <r>    1.6557    0.0000 </r>
       <r>    2.3020    0.0000 </r>
       <r>    2.6032    0.0000 </r>
       <r>    3.5520    0.0000 </r>
       <r>    3.9049    0.0000 </r>
       <r>    5.1364    0.0000 </r>
       <r>    5.1486    0.0000 </r>
       <r>    5.2929    0.0000 </r>
       <r>    5.5700    0.0000 </r>
       <r>    7.0889    0.0000 </r>
       <r>    7.5870    0.0000 </r>
       <r>    8.0778    0.0000 </r>
       <r>    9.3280    0.0000 </r>
       <r>    9.3698    0.0000 </r>
       <r>    9.9551    0.0000 </r>
       <r>   12.0000    0.0000 </r>
      </set>
      <set comment="kpoint 13">
       <r>  -21.5790    1.0000 </r>
       <r>   -9.4702    1.0000 </r>
       <r>   -9.4138    1.0000 </r>
       <r>   -8.3320    1.0000 </r>
       <r>    1.5966    0.0000 </r>
       <r>    2.3786    0.0000 </r>
       <r>    2.6203    0.0000 </r>
       <r>    2.9260    0.0000 </r>
       <r>    3.1357    0.0000 </r>
       <r>    3.7744    0.0000 </r>
       <r>    4.0765    0.0000 </r>
       <r>    5.0155    0.0000 </r>
       <r>    5.0172    0.0000 </r>
       <r>    5.3625    0.0000 </r>
       <r>    6.0113    0.0000 </r>
       <r>    6.6029    0.0000 </r>
       <r>    7.0473    0.0000 </r>
       <r>    7.6240    0.0000 </r>
       <r>    8.5264    0.0000 </r>
       <r>    9.0547    0.0000 </r>
       <r>   10.7772    0.0000 </r>
       <r>   11.4160    0.0000 </r>
       <r>   11.9589    0.0000 </r>
       <r>   13.6456    0.0000 </r>
      </set>
      <set comment="kpoint 14">
       <r>  -20.6957    1.0000 </r>
       <r>  -11.1920    1.0000 </r>
       <r>   -9.4206    1.0000 </r>
       <r>   -8.4447    1.0000 </r>
       <r>    2.8157    0.0000 </r>
       <r>    3.0607    0.0000 </r>
       <r>    3.6192    0.0000 </r>
       <r>    3.8766    0.0000 </r>
       <r>    4.1755    0.0000 </r>
       <r>    4.3875    0.0000 </r>
       <r>    5.0174    0.0000 </r>
       <r>    5.3206    0.0000 </r>
       <r>    6.1812    0.0000 </r>
       <r>    6.2501    0.0000 </r>
       <r>    6.6393    0.0000 </r>
       <r>    7.8184    0.0000 </r>
       <r>    8.2758    0.0000 </r>
       <r>    9.0567    0.0000 </r>
       <r>    9.7076    0.0000 </r>
       <r>   10.2886    0.0000 </r>
       <r>   11.8605    0.0000 </r>
       <r>   12.6417    0.0000 </r>
       <r>   13.9112    0.0000 </r>
       <r>   14.2495    0.0000 </r>
      </set>
      <set comment="kpoint 15">
       <r>  -19.5130    1.0000 </r>
       <r>  -13.2183    1.0000 </r>
       <r>  -10.1838    1.0000 </r>
       <r>   -7.1254    1.0000 </r>
       <r>    0.9543    0.0000 </r>
       <r>    4.4660    0.0000 </r>
       <r>    5.2776    0.0000 </r>
       <r>    5.5890    0.0000 </r>
       <r>    5.8736    0.0000 </r>
       <r>    5.9396    0.0000 </r>
       <r>    6.1084    0.0000 </r>
       <r>    6.7025    0.0000 </r>
       <r>    7.0296    0.0000 </r>
       <r>    7.9103    0.0000 </r>
       <r>    8.3115    0.0000 </r>
       <r>    9.4197    0.0000 </r>
       <r>    9.9510    0.0000 </r>
       <r>   10.8992    0.0000 </r>
       <r>   11.1043    0.0000 </r>
       <r>   11.9605    0.0000 </r>
       <r>   12.4735    0.0000 </r>
       <r>   14.0269    0.0000 </r>
       <r>   14.1792    0.0000 </r>
       <r>   14.3200    0.0000 </r>
      </set>
      <set comment="kpoint 16">
       <r>  -18.0796    1.0000 </r>
       <r>  -15.1857    1.0000 </r>
       <r>  -10.6094    1.0000 </r>
       <r>   -5.7297    1.0000 </r>
       <r>   -0.9435    0.0000 </r>
       <r>    5.7357    0.0000 </r>
       <r>    6.5553    0.0000 </r>
       <r>    7.3192    0.0000 </r>
       <r>    7.7594    0.0000 </r>
       <r>    8.0108    0.0000 </r>
       <r>    8.2545    0.0000 </r>
       <r>    8.7895    0.0000 </r>
       <r>    9.1691    0.0000 </r>
       <r>    9.8246    0.0000 </r>
       <r>   10.1795    0.0000 </r>
       <r>   10.4442    0.0000 </r>
       <r>   10.6599    0.0000 </r>
       <r>   11.6264    0.0000 </r>
       <r>   11.8636    0.0000 </r>
       <r>   12.0548    0.0000 </r>
       <r>   12.0624    0.0000 </r>
       <r>   12.2936    0.0000 </r>
       <r>   12.5481    0.0000 </r>
       <r>   13.1706    0.0000 </r>
      </set>
      <set comment="kpoint 17">
       <r>  -17.3771    1.0000 </r>
       <r>  -15.9998    1.0000 </r>
       <r>  -10.6949    1.0000 </r>
       <r>   -5.2605    1.0000 </r>
       <r>   -1.5187    0.0000 </r>
       <r>    5.6994    0.0000 </r>
       <r>    7.7177    0.0000 </r>
       <r>    8.3699    0.0000 </r>
       <r>    8.9638    0.0000 </r>
       <r>    9.0167    0.0000 </r>
       <r>    9.2001    0.0000 </r>
       <r>    9.5017    0.0000 </r>
       <r>    9.5952    0.0000 </r>
       <r>   10.1117    0.0000 </r>
       <r>   10.3834    0.0000 </r>
       <r>   10.4035    0.0000 </r>
       <r>   10.5777    0.0000 </r>
       <r>   10.8544    0.0000 </r>
       <r>   11.0187    0.0000 </r>
       <r>   11.4453    0.0000 </r>
       <r>   11.6442    0.0000 </r>
       <r>   11.7332    0.0000 </r>
       <r>   12.0775    0.0000 </r>
       <r>   12.8503    0.0000 </r>
      </set>
      <set comment="kpoint 18">
       <r>  -18.8206    1.0000 </r>
       <r>  -14.2262    1.0000 </r>
       <r>  -10.4389    1.0000 </r>
       <r>   -6.4071    1.0000 </r>
       <r>   -0.0596    0.0000 </r>
       <r>    5.4320    0.0000 </r>
       <r>    5.8568    0.0000 </r>
       <r>    6.2594    0.0000 </r>
       <r>    6.6179    0.0000 </r>
       <r>    6.8891    0.0000 </r>
       <r>    7.1199    0.0000 </r>
       <r>    7.7032    0.0000 </r>
       <r>    8.0440    0.0000 </r>
       <r>    8.8762    0.0000 </r>
       <r>    9.3196    0.0000 </r>
       <r>   10.2596    0.0000 </r>
       <r>   10.9236    0.0000 </r>
       <r>   11.0947    0.0000 </r>
       <r>   11.4483    0.0000 </r>
       <r>   12.6868    0.0000 </r>
       <r>   12.9338    0.0000 </r>
       <r>   13.3776    0.0000 </r>
       <r>   13.5541    0.0000 </r>
       <r>   13.6527    0.0000 </r>
      </set>
      <set comment="kpoint 19">
       <r>  -20.1402    1.0000 </r>
       <r>  -12.1956    1.0000 </r>
       <r>   -9.8446    1.0000 </r>
       <r>   -7.8148    1.0000 </r>
       <r>    2.0126    0.0000 </r>
       <r>    3.5882    0.0000 </r>
       <r>    4.3937    0.0000 </r>
       <r>    4.6760    0.0000 </r>
       <r>    4.9685    0.0000 </r>
       <r>    5.1830    0.0000 </r>
       <r>    5.8055    0.0000 </r>
       <r>    6.0283    0.0000 </r>
       <r>    6.1743    0.0000 </r>
       <r>    7.0292    0.0000 </r>
       <r>    7.4143    0.0000 </r>
       <r>    8.5787    0.0000 </r>
       <r>    9.0585    0.0000 </r>
       <r>   10.0404    0.0000 </r>
       <r>   10.4177    0.0000 </r>
       <r>   11.0715    0.0000 </r>
       <r>   12.3423    0.0000 </r>
       <r>   13.4162    0.0000 </r>
       <r>   13.7748    0.0000 </r>
       <r>   14.8757    0.0000 </r>
      </set>
      <set comment="kpoint 20">
       <r>  -21.1761    1.0000 </r>
       <r>  -10.2497    1.0000 </r>
       <r>   -8.9994    1.0000 </r>
       <r>   -8.9121    1.0000 </r>
       <r>    2.1514    0.0000 </r>
       <r>    2.9377    0.0000 </r>
       <r>    3.1913    0.0000 </r>
       <r>    3.4929    0.0000 </r>
       <r>    3.7048    0.0000 </r>
       <r>    4.0823    0.0000 </r>
       <r>    4.3413    0.0000 </r>
       <r>    4.6429    0.0000 </r>
       <r>    5.5786    0.0000 </r>
       <r>    5.9099    0.0000 </r>
       <r>    6.2396    0.0000 </r>
       <r>    7.1576    0.0000 </r>
       <r>    7.6063    0.0000 </r>
       <r>    8.1913    0.0000 </r>
       <r>    9.0691    0.0000 </r>
       <r>    9.6160    0.0000 </r>
       <r>   11.2918    0.0000 </r>
       <r>   11.9741    0.0000 </r>
       <r>   12.9776    0.0000 </r>
       <r>   13.7317    0.0000 </r>
      </set>
      <set comment="kpoint 21">
       <r>  -21.9030    1.0000 </r>
       <r>   -9.8517    1.0000 </r>
       <r>   -8.7011    1.0000 </r>
       <r>   -7.7409    1.0000 </r>
       <r>    1.1522    0.0000 </r>
       <r>    1.9293    0.0000 </r>
       <r>    2.1634    0.0000 </r>
       <r>    2.4717    0.0000 </r>
       <r>    2.6803    0.0000 </r>
       <r>    3.3218    0.0000 </r>
       <r>    3.6230    0.0000 </r>
       <r>    4.5671    0.0000 </r>
       <r>    4.9135    0.0000 </r>
       <r>    5.6189    0.0000 </r>
       <r>    5.8381    0.0000 </r>
       <r>    6.1584    0.0000 </r>
       <r>    6.5944    0.0000 </r>
       <r>    7.3281    0.0000 </r>
       <r>    8.0878    0.0000 </r>
       <r>    8.6046    0.0000 </r>
       <r>   10.3520    0.0000 </r>
       <r>   10.9657    0.0000 </r>
       <r>   11.0266    0.0000 </r>
       <r>   12.9431    0.0000 </r>
      </set>
      <set comment="kpoint 22">
       <r>  -22.3097    1.0000 </r>
       <r>  -10.3337    1.0000 </r>
       <r>   -7.6138    1.0000 </r>
       <r>   -6.9349    1.0000 </r>
       <r>    0.5964    0.0000 </r>
       <r>    1.3666    0.0000 </r>
       <r>    1.5923    0.0000 </r>
       <r>    1.9036    0.0000 </r>
       <r>    2.1110    0.0000 </r>
       <r>    2.7555    0.0000 </r>
       <r>    3.0563    0.0000 </r>
       <r>    4.0036    0.0000 </r>
       <r>    4.3528    0.0000 </r>
       <r>    5.1846    0.0000 </r>
       <r>    5.5974    0.0000 </r>
       <r>    6.0273    0.0000 </r>
       <r>    6.6094    0.0000 </r>
       <r>    7.0051    0.0000 </r>
       <r>    7.5354    0.0000 </r>
       <r>    8.0400    0.0000 </r>
       <r>    9.8095    0.0000 </r>
       <r>    9.9640    0.0000 </r>
       <r>   10.4070    0.0000 </r>
       <r>   12.4157    0.0000 </r>
      </set>
      <set comment="kpoint 23">
       <r>  -19.6696    1.0000 </r>
       <r>  -12.4055    1.0000 </r>
       <r>  -10.8997    1.0000 </r>
       <r>   -7.2797    1.0000 </r>
       <r>    1.3531    0.0000 </r>
       <r>    4.2497    0.0000 </r>
       <r>    5.0350    0.0000 </r>
       <r>    5.3613    0.0000 </r>
       <r>    5.6414    0.0000 </r>
       <r>    5.8666    0.0000 </r>
       <r>    6.4675    0.0000 </r>
       <r>    6.7927    0.0000 </r>
       <r>    7.6699    0.0000 </r>
       <r>    7.8024    0.0000 </r>
       <r>    8.1260    0.0000 </r>
       <r>    8.8785    0.0000 </r>
       <r>    9.1646    0.0000 </r>
       <r>    9.7391    0.0000 </r>
       <r>   10.8013    0.0000 </r>
       <r>   11.7347    0.0000 </r>
       <r>   12.1888    0.0000 </r>
       <r>   13.9106    0.0000 </r>
       <r>   14.0722    0.0000 </r>
       <r>   15.7028    0.0000 </r>
      </set>
      <set comment="kpoint 24">
       <r>  -18.3681    1.0000 </r>
       <r>  -14.0075    1.0000 </r>
       <r>  -11.8217    1.0000 </r>
       <r>   -5.8812    1.0000 </r>
       <r>   -0.4436    0.0000 </r>
       <r>    6.0999    0.0000 </r>
       <r>    6.7857    0.0000 </r>
       <r>    7.3021    0.0000 </r>
       <r>    7.5372    0.0000 </r>
       <r>    7.7888    0.0000 </r>
       <r>    7.9871    0.0000 </r>
       <r>    8.2852    0.0000 </r>
       <r>    8.7218    0.0000 </r>
       <r>    9.2623    0.0000 </r>
       <r>    9.9686    0.0000 </r>
       <r>   10.2659    0.0000 </r>
       <r>   10.2747    0.0000 </r>
       <r>   11.5774    0.0000 </r>
       <r>   11.6243    0.0000 </r>
       <r>   13.3089    0.0000 </r>
       <r>   13.5095    0.0000 </r>
       <r>   13.6665    0.0000 </r>
       <r>   14.0860    0.0000 </r>
       <r>   14.2281    0.0000 </r>
      </set>
      <set comment="kpoint 25">
       <r>  -16.9536    1.0000 </r>
       <r>  -15.6430    1.0000 </r>
       <r>  -12.1571    1.0000 </r>
       <r>   -4.6770    1.0000 </r>
       <r>   -1.8349    0.0000 </r>
       <r>    7.8222    0.0000 </r>
       <r>    8.0205    0.0000 </r>
       <r>    8.3192    0.0000 </r>
       <r>    9.4627    0.0000 </r>
       <r>    9.6821    0.0000 </r>
       <r>    9.6996    0.0000 </r>
       <r>   10.0818    0.0000 </r>
       <r>   10.1750    0.0000 </r>
       <r>   10.7890    0.0000 </r>
       <r>   11.0500    0.0000 </r>
       <r>   11.0692    0.0000 </r>
       <r>   11.1585    0.0000 </r>
       <r>   11.5036    0.0000 </r>
       <r>   11.5095    0.0000 </r>
       <r>   12.1161    0.0000 </r>
       <r>   12.2172    0.0000 </r>
       <r>   12.3461    0.0000 </r>
       <r>   12.4834    0.0000 </r>
       <r>   13.3056    0.0000 </r>
      </set>
      <set comment="kpoint 26">
       <r>  -17.6410    1.0000 </r>
       <r>  -14.8763    1.0000 </r>
       <r>  -12.0489    1.0000 </r>
       <r>   -5.1862    1.0000 </r>
       <r>   -1.2619    0.0000 </r>
       <r>    7.1595    0.0000 </r>
       <r>    7.5952    0.0000 </r>
       <r>    7.9010    0.0000 </r>
       <r>    8.4443    0.0000 </r>
       <r>    8.6122    0.0000 </r>
       <r>    8.9330    0.0000 </r>
       <r>    9.1729    0.0000 </r>
       <r>    9.8322    0.0000 </r>
       <r>    9.9128    0.0000 </r>
       <r>   10.3123    0.0000 </r>
       <r>   11.0089    0.0000 </r>
       <r>   11.1000    0.0000 </r>
       <r>   12.2925    0.0000 </r>
       <r>   12.5053    0.0000 </r>
       <r>   12.6471    0.0000 </r>
       <r>   12.6771    0.0000 </r>
       <r>   12.8054    0.0000 </r>
       <r>   13.0141    0.0000 </r>
       <r>   13.3893    0.0000 </r>
      </set>
      <set comment="kpoint 27">
       <r>  -19.0501    1.0000 </r>
       <r>  -13.1598    1.0000 </r>
       <r>  -11.4498    1.0000 </r>
       <r>   -6.5986    1.0000 </r>
       <r>    0.4502    0.0000 </r>
       <r>    5.1251    0.0000 </r>
       <r>    5.8861    0.0000 </r>
       <r>    6.2747    0.0000 </r>
       <r>    6.5387    0.0000 </r>
       <r>    6.7754    0.0000 </r>
       <r>    7.3437    0.0000 </r>
       <r>    7.6872    0.0000 </r>
       <r>    8.0651    0.0000 </r>
       <r>    8.4944    0.0000 </r>
       <r>    8.9865    0.0000 </r>
       <r>    9.5063    0.0000 </r>
       <r>    9.8168    0.0000 </r>
       <r>   10.6310    0.0000 </r>
       <r>   11.0470    0.0000 </r>
       <r>   12.5486    0.0000 </r>
       <r>   12.6158    0.0000 </r>
       <r>   14.6054    0.0000 </r>
       <r>   14.8319    0.0000 </r>
       <r>   15.1282    0.0000 </r>
      </set>
      <set comment="kpoint 28">
       <r>  -20.2195    1.0000 </r>
       <r>  -11.7656    1.0000 </r>
       <r>  -10.1901    1.0000 </r>
       <r>   -7.8995    1.0000 </r>
       <r>    2.2327    0.0000 </r>
       <r>    3.4790    0.0000 </r>
       <r>    4.2725    0.0000 </r>
       <r>    4.5618    0.0000 </r>
       <r>    4.8525    0.0000 </r>
       <r>    5.0704    0.0000 </r>
       <r>    5.6889    0.0000 </r>
       <r>    6.0010    0.0000 </r>
       <r>    6.9116    0.0000 </r>
       <r>    7.0182    0.0000 </r>
       <r>    7.3308    0.0000 </r>
       <r>    8.4589    0.0000 </r>
       <r>    8.8521    0.0000 </r>
       <r>    8.9734    0.0000 </r>
       <r>   10.2906    0.0000 </r>
       <r>   10.9574    0.0000 </r>
       <r>   12.1867    0.0000 </r>
       <r>   13.3054    0.0000 </r>
       <r>   13.6418    0.0000 </r>
       <r>   15.5135    0.0000 </r>
      </set>
      <set comment="kpoint 29">
       <r>  -21.0956    1.0000 </r>
       <r>  -10.6348    1.0000 </r>
       <r>   -8.9073    1.0000 </r>
       <r>   -8.7081    1.0000 </r>
       <r>    2.2614    0.0000 </r>
       <r>    3.0414    0.0000 </r>
       <r>    3.3055    0.0000 </r>
       <r>    3.5972    0.0000 </r>
       <r>    3.8182    0.0000 </r>
       <r>    3.8697    0.0000 </r>
       <r>    4.4601    0.0000 </r>
       <r>    4.7528    0.0000 </r>
       <r>    5.5014    0.0000 </r>
       <r>    5.6949    0.0000 </r>
       <r>    6.0702    0.0000 </r>
       <r>    7.2728    0.0000 </r>
       <r>    7.7149    0.0000 </r>
       <r>    9.1838    0.0000 </r>
       <r>    9.2251    0.0000 </r>
       <r>    9.7307    0.0000 </r>
       <r>   11.4068    0.0000 </r>
       <r>   12.0845    0.0000 </r>
       <r>   12.8371    0.0000 </r>
       <r>   13.8438    0.0000 </r>
      </set>
      <set comment="kpoint 30">
       <r>  -21.6598    1.0000 </r>
       <r>   -9.5659    1.0000 </r>
       <r>   -9.5355    1.0000 </r>
       <r>   -7.8062    1.0000 </r>
       <r>    1.4846    0.0000 </r>
       <r>    2.2651    0.0000 </r>
       <r>    2.5060    0.0000 </r>
       <r>    2.8119    0.0000 </r>
       <r>    3.0215    0.0000 </r>
       <r>    3.6597    0.0000 </r>
       <r>    3.9610    0.0000 </r>
       <r>    4.8887    0.0000 </r>
       <r>    4.9718    0.0000 </r>
       <r>    5.1799    0.0000 </r>
       <r>    5.2912    0.0000 </r>
       <r>    6.4983    0.0000 </r>
       <r>    6.9277    0.0000 </r>
       <r>    8.4229    0.0000 </r>
       <r>    8.8483    0.0000 </r>
       <r>    8.9398    0.0000 </r>
       <r>   10.6805    0.0000 </r>
       <r>   11.1869    0.0000 </r>
       <r>   11.3232    0.0000 </r>
       <r>   13.2484    0.0000 </r>
      </set>
      <set comment="kpoint 31">
       <r>  -17.0075    1.0000 </r>
       <r>  -14.8402    1.0000 </r>
       <r>  -13.1696    1.0000 </r>
       <r>   -4.4715    1.0000 </r>
       <r>   -1.8860    0.0000 </r>
       <r>    7.5639    0.0000 </r>
       <r>    8.0803    0.0000 </r>
       <r>    9.4689    0.0000 </r>
       <r>    9.4852    0.0000 </r>
       <r>    9.7654    0.0000 </r>
       <r>    9.8886    0.0000 </r>
       <r>    9.9132    0.0000 </r>
       <r>   10.0555    0.0000 </r>
       <r>   10.7368    0.0000 </r>
       <r>   10.8513    0.0000 </r>
       <r>   11.9365    0.0000 </r>
       <r>   12.0608    0.0000 </r>
       <r>   13.0559    0.0000 </r>
       <r>   13.1718    0.0000 </r>
       <r>   13.1766    0.0000 </r>
       <r>   13.3475    0.0000 </r>
       <r>   13.5997    0.0000 </r>
       <r>   13.6653    0.0000 </r>
       <r>   13.7009    0.0000 </r>
      </set>
      <set comment="kpoint 32">
       <r>  -16.3377    1.0000 </r>
       <r>  -15.3891    1.0000 </r>
       <r>  -13.4625    1.0000 </r>
       <r>   -3.8454    1.0000 </r>
       <r>   -2.5134    0.0000 </r>
       <r>    7.5130    0.0000 </r>
       <r>    9.0809    0.0000 </r>
       <r>    9.6813    0.0000 </r>
       <r>   10.1037    0.0000 </r>
       <r>   10.5985    0.0000 </r>
       <r>   10.7244    0.0000 </r>
       <r>   11.0645    0.0000 </r>
       <r>   11.1722    0.0000 </r>
       <r>   11.8047    0.0000 </r>
       <r>   11.9587    0.0000 </r>
       <r>   12.0573    0.0000 </r>
       <r>   12.0795    0.0000 </r>
       <r>   12.3468    0.0000 </r>
       <r>   12.4354    0.0000 </r>
       <r>   12.8470    0.0000 </r>
       <r>   12.9605    0.0000 </r>
       <r>   13.0815    0.0000 </r>
       <r>   13.1866    0.0000 </r>
       <r>   13.4602    0.0000 </r>
      </set>
      <set comment="kpoint 33">
       <r>  -17.7068    1.0000 </r>
       <r>  -14.3855    1.0000 </r>
       <r>  -12.5887    1.0000 </r>
       <r>   -5.1844    1.0000 </r>
       <r>   -1.1652    0.0000 </r>
       <r>    7.0573    0.0000 </r>
       <r>    7.4004    0.0000 </r>
       <r>    8.3292    0.0000 </r>
       <r>    8.4866    0.0000 </r>
       <r>    8.8084    0.0000 </r>
       <r>    9.0320    0.0000 </r>
       <r>    9.0630    0.0000 </r>
       <r>    9.7167    0.0000 </r>
       <r>    9.7931    0.0000 </r>
       <r>   10.0379    0.0000 </r>
       <r>   10.9266    0.0000 </r>
       <r>   10.9959    0.0000 </r>
       <r>   12.4219    0.0000 </r>
       <r>   12.5884    0.0000 </r>
       <r>   13.3192    0.0000 </r>
       <r>   13.6249    0.0000 </r>
       <r>   13.8374    0.0000 </r>
       <r>   14.1287    0.0000 </r>
       <r>   14.3625    0.0000 </r>
      </set>
      <set comment="kpoint 34">
       <r>  -18.9732    1.0000 </r>
       <r>  -13.6306    1.0000 </r>
       <r>  -10.9908    1.0000 </r>
       <r>   -6.5334    1.0000 </r>
       <r>    0.2639    0.0000 </r>
       <r>    5.2329    0.0000 </r>
       <r>    6.0137    0.0000 </r>
       <r>    6.3886    0.0000 </r>
       <r>    6.6562    0.0000 </r>
       <r>    6.8531    0.0000 </r>
       <r>    6.9405    0.0000 </r>
       <r>    7.4651    0.0000 </r>
       <r>    7.8204    0.0000 </r>
       <r>    8.6254    0.0000 </r>
       <r>    9.0949    0.0000 </r>
       <r>    9.9743    0.0000 </r>
       <r>   10.5191    0.0000 </r>
       <r>   10.7691    0.0000 </r>
       <r>   11.2026    0.0000 </r>
       <r>   12.6328    0.0000 </r>
       <r>   12.7254    0.0000 </r>
       <r>   13.9044    0.0000 </r>
       <r>   14.3833    0.0000 </r>
       <r>   14.6439    0.0000 </r>
      </set>
      <set comment="kpoint 35">
       <r>  -19.9820    1.0000 </r>
       <r>  -12.7589    1.0000 </r>
       <r>   -9.4758    1.0000 </r>
       <r>   -7.6469    1.0000 </r>
       <r>    1.6261    0.0000 </r>
       <r>    3.8047    0.0000 </r>
       <r>    4.6282    0.0000 </r>
       <r>    4.9035    0.0000 </r>
       <r>    5.1986    0.0000 </r>
       <r>    5.2029    0.0000 </r>
       <r>    5.4237    0.0000 </r>
       <r>    6.0364    0.0000 </r>
       <r>    6.3509    0.0000 </r>
       <r>    7.2610    0.0000 </r>
       <r>    7.6372    0.0000 </r>
       <r>    8.8129    0.0000 </r>
       <r>    9.2840    0.0000 </r>
       <r>   10.6600    0.0000 </r>
       <r>   11.2109    0.0000 </r>
       <r>   11.3554    0.0000 </r>
       <r>   12.6095    0.0000 </r>
       <r>   13.6368    0.0000 </r>
       <r>   13.9371    0.0000 </r>
       <r>   14.0550    0.0000 </r>
      </set>
      <set comment="kpoint 36">
       <r>  -20.6951    1.0000 </r>
       <r>  -11.7145    1.0000 </r>
       <r>   -8.6295    1.0000 </r>
       <r>   -8.4507    1.0000 </r>
       <r>    2.8117    0.0000 </r>
       <r>    2.8577    0.0000 </r>
       <r>    3.6542    0.0000 </r>
       <r>    3.8763    0.0000 </r>
       <r>    4.1838    0.0000 </r>
       <r>    4.3799    0.0000 </r>
       <r>    4.6639    0.0000 </r>
       <r>    5.0269    0.0000 </r>
       <r>    5.3352    0.0000 </r>
       <r>    6.2620    0.0000 </r>
       <r>    6.6239    0.0000 </r>
       <r>    7.8360    0.0000 </r>
       <r>    8.2759    0.0000 </r>
       <r>    9.7397    0.0000 </r>
       <r>   10.2833    0.0000 </r>
       <r>   11.5818    0.0000 </r>
       <r>   11.9462    0.0000 </r>
       <r>   12.4419    0.0000 </r>
       <r>   12.6626    0.0000 </r>
       <r>   14.3003    0.0000 </r>
      </set>
      <set comment="kpoint 37">
       <r>  -16.5067    1.0000 </r>
       <r>  -15.6241    1.0000 </r>
       <r>  -12.9098    1.0000 </r>
       <r>   -4.1919    1.0000 </r>
       <r>   -2.2252    0.0000 </r>
       <r>    7.7273    0.0000 </r>
       <r>    8.8857    0.0000 </r>
       <r>    9.1033    0.0000 </r>
       <r>    9.4361    0.0000 </r>
       <r>   10.4826    0.0000 </r>
       <r>   10.8246    0.0000 </r>
       <r>   10.8438    0.0000 </r>
       <r>   10.9033    0.0000 </r>
       <r>   11.1145    0.0000 </r>
       <r>   11.2479    0.0000 </r>
       <r>   11.3095    0.0000 </r>
       <r>   11.3691    0.0000 </r>
       <r>   11.9468    0.0000 </r>
       <r>   12.0071    0.0000 </r>
       <r>   12.1636    0.0000 </r>
       <r>   12.2316    0.0000 </r>
       <r>   12.9685    0.0000 </r>
       <r>   13.1872    0.0000 </r>
       <r>   13.3342    0.0000 </r>
      </set>
      <set comment="kpoint 38">
       <r>  -17.5191    1.0000 </r>
       <r>  -15.4690    1.0000 </r>
       <r>  -11.3644    1.0000 </r>
       <r>   -5.2040    1.0000 </r>
       <r>   -1.4047    0.0000 </r>
       <r>    6.7226    0.0000 </r>
       <r>    7.4025    0.0000 </r>
       <r>    7.9375    0.0000 </r>
       <r>    8.6722    0.0000 </r>
       <r>    8.8568    0.0000 </r>
       <r>    9.1586    0.0000 </r>
       <r>    9.4282    0.0000 </r>
       <r>    9.7657    0.0000 </r>
       <r>   10.0705    0.0000 </r>
       <r>   10.0886    0.0000 </r>
       <r>   11.0348    0.0000 </r>
       <r>   11.3131    0.0000 </r>
       <r>   11.4082    0.0000 </r>
       <r>   11.5316    0.0000 </r>
       <r>   11.8420    0.0000 </r>
       <r>   11.9091    0.0000 </r>
       <r>   12.5748    0.0000 </r>
       <r>   12.6229    0.0000 </r>
       <r>   12.9614    0.0000 </r>
      </set>
      <set comment="kpoint 39">
       <r>  -18.5948    1.0000 </r>
       <r>  -14.8192    1.0000 </r>
       <r>   -9.9600    1.0000 </r>
       <r>   -6.2283    1.0000 </r>
       <r>   -0.4501    0.0000 </r>
       <r>    4.9566    0.0000 </r>
       <r>    5.8019    0.0000 </r>
       <r>    6.6135    0.0000 </r>
       <r>    6.9602    0.0000 </r>
       <r>    7.2349    0.0000 </r>
       <r>    7.4603    0.0000 </r>
       <r>    8.0528    0.0000 </r>
       <r>    8.3826    0.0000 </r>
       <r>    9.2345    0.0000 </r>
       <r>    9.6563    0.0000 </r>
       <r>   10.6243    0.0000 </r>
       <r>   10.6944    0.0000 </r>
       <r>   11.2938    0.0000 </r>
       <r>   11.5031    0.0000 </r>
       <r>   12.4342    0.0000 </r>
       <r>   12.4908    0.0000 </r>
       <r>   12.7666    0.0000 </r>
       <r>   12.8563    0.0000 </r>
       <r>   13.3028    0.0000 </r>
      </set>
      <set comment="kpoint 40">
       <r>  -19.4342    1.0000 </r>
       <r>  -13.8828    1.0000 </r>
       <r>   -9.2394    1.0000 </r>
       <r>   -7.0742    1.0000 </r>
       <r>    0.6090    0.0000 </r>
       <r>    4.3048    0.0000 </r>
       <r>    4.6361    0.0000 </r>
       <r>    5.4189    0.0000 </r>
       <r>    5.7043    0.0000 </r>
       <r>    5.9958    0.0000 </r>
       <r>    6.2107    0.0000 </r>
       <r>    6.8314    0.0000 </r>
       <r>    7.1409    0.0000 </r>
       <r>    8.0523    0.0000 </r>
       <r>    8.4244    0.0000 </r>
       <r>    9.5966    0.0000 </r>
       <r>   10.0679    0.0000 </r>
       <r>   11.4151    0.0000 </r>
       <r>   11.8581    0.0000 </r>
       <r>   12.0737    0.0000 </r>
       <r>   12.8448    0.0000 </r>
       <r>   13.7573    0.0000 </r>
       <r>   13.9360    0.0000 </r>
       <r>   14.2357    0.0000 </r>
      </set>
      <set comment="kpoint 41">
       <r>  -17.3474    1.0000 </r>
       <r>  -16.3006    1.0000 </r>
       <r>  -10.1249    1.0000 </r>
       <r>   -5.3771    1.0000 </r>
       <r>   -1.5358    0.0000 </r>
       <r>    4.8810    0.0000 </r>
       <r>    8.0724    0.0000 </r>
       <r>    8.2357    0.0000 </r>
       <r>    8.7572    0.0000 </r>
       <r>    9.1294    0.0000 </r>
       <r>    9.4609    0.0000 </r>
       <r>    9.4802    0.0000 </r>
       <r>    9.6889    0.0000 </r>
       <r>    9.7474    0.0000 </r>
       <r>    9.9406    0.0000 </r>
       <r>    9.9704    0.0000 </r>
       <r>   10.3997    0.0000 </r>
       <r>   10.5832    0.0000 </r>
       <r>   10.8324    0.0000 </r>
       <r>   10.8746    0.0000 </r>
       <r>   11.4177    0.0000 </r>
       <r>   11.8134    0.0000 </r>
       <r>   12.0703    0.0000 </r>
       <r>   12.1231    0.0000 </r>
      </set>
      <set comment="kpoint 42">
       <r>  -17.9535    1.0000 </r>
       <r>  -15.8421    1.0000 </r>
       <r>   -9.5594    1.0000 </r>
       <r>   -5.7776    1.0000 </r>
       <r>   -1.1809    0.0000 </r>
       <r>    4.1843    0.0000 </r>
       <r>    6.7719    0.0000 </r>
       <r>    7.6238    0.0000 </r>
       <r>    7.9877    0.0000 </r>
       <r>    8.2587    0.0000 </r>
       <r>    8.4821    0.0000 </r>
       <r>    9.0696    0.0000 </r>
       <r>    9.3078    0.0000 </r>
       <r>    9.4062    0.0000 </r>
       <r>   10.0941    0.0000 </r>
       <r>   10.3567    0.0000 </r>
       <r>   10.6654    0.0000 </r>
       <r>   10.7274    0.0000 </r>
       <r>   10.9666    0.0000 </r>
       <r>   11.2004    0.0000 </r>
       <r>   11.6288    0.0000 </r>
       <r>   11.8808    0.0000 </r>
       <r>   12.0816    0.0000 </r>
       <r>   12.2909    0.0000 </r>
      </set>
     </set>
    </set>
   </array>
  </eigenvalues>
  <separator name="orbital magnetization" >
   <v name="MAGDIPOLOUT">      0.00000000      0.00000000      0.00000000</v>
  </separator>
  <dos>
   <i name="efermi">     -3.58988876 </i>
   <total>
    <array>
     <dimension dim="1">gridpoints</dimension>
     <dimension dim="2">spin</dimension>
     <field>energy</field>
     <field>total</field>
     <field>integrated</field>
     <set>
      <set comment="spin 1">
       <r>   -24.5535     0.0000     0.0000 </r>
       <r>   -24.4129     0.0000     0.0000 </r>
       <r>   -24.2723     0.0000     0.0000 </r>
       <r>   -24.1318     0.0000     0.0000 </r>
       <r>   -23.9912     0.0000     0.0000 </r>
       <r>   -23.8506     0.0000     0.0000 </r>
       <r>   -23.7100     0.0000     0.0000 </r>
       <r>   -23.5695     0.0000     0.0000 </r>
       <r>   -23.4289     0.0000     0.0000 </r>
       <r>   -23.2883     0.0000     0.0000 </r>
       <r>   -23.1477     0.0000     0.0000 </r>
       <r>   -23.0071     0.0000     0.0000 </r>
       <r>   -22.8666     0.0000     0.0000 </r>
       <r>   -22.7260     0.0011     0.0002 </r>
       <r>   -22.5854     0.2199     0.0311 </r>
       <r>   -22.4448     0.1997     0.0591 </r>
       <r>   -22.3043     0.4779     0.1263 </r>
       <r>   -22.1637     0.2144     0.1565 </r>
       <r>   -22.0231     0.2702     0.1945 </r>
       <r>   -21.8825     0.3008     0.2367 </r>
       <r>   -21.7419     0.4868     0.3052 </r>
       <r>   -21.6014     0.2427     0.3393 </r>
       <r>   -21.4608     0.1986     0.3672 </r>
       <r>   -21.3202     0.3507     0.4165 </r>
       <r>   -21.1796     0.1864     0.4427 </r>
       <r>   -21.0391     0.5842     0.5248 </r>
       <r>   -20.8985     0.3568     0.5750 </r>
       <r>   -20.7579     0.0824     0.5866 </r>
       <r>   -20.6173     0.5618     0.6655 </r>
       <r>   -20.4768     0.0089     0.6668 </r>
       <r>   -20.3362     0.3451     0.7153 </r>
       <r>   -20.1956     0.3687     0.7671 </r>
       <r>   -20.0550     0.4754     0.8340 </r>
       <r>   -19.9144     0.3796     0.8873 </r>
       <r>   -19.7739     0.0968     0.9009 </r>
       <r>   -19.6333     0.4767     0.9680 </r>
       <r>   -19.4927     0.3231     1.0134 </r>
       <r>   -19.3521     0.2979     1.0553 </r>
       <r>   -19.2116     0.0020     1.0556 </r>
       <r>   -19.0710     0.2157     1.0859 </r>
       <r>   -18.9304     0.9253     1.2160 </r>
       <r>   -18.7898     0.3638     1.2671 </r>
       <r>   -18.6492     0.1004     1.2812 </r>
       <r>   -18.5087     0.3679     1.3329 </r>
       <r>   -18.3681     0.2122     1.3627 </r>
       <r>   -18.2275     0.5739     1.4434 </r>
       <r>   -18.0869     0.1722     1.4676 </r>
       <r>   -17.9464     0.3448     1.5161 </r>
       <r>   -17.8058     0.0841     1.5279 </r>
       <r>   -17.6652     0.4512     1.5913 </r>
       <r>   -17.5246     0.8941     1.7170 </r>
       <r>   -17.3840     0.4310     1.7776 </r>
       <r>   -17.2435     0.3960     1.8333 </r>
       <r>   -17.1029     0.0010     1.8334 </r>
       <r>   -16.9623     0.3361     1.8807 </r>
       <r>   -16.8217     0.2559     1.9167 </r>
       <r>   -16.6812     0.0000     1.9167 </r>
       <r>   -16.5406     0.0334     1.9214 </r>
       <r>   -16.4000     0.1799     1.9466 </r>
       <r>   -16.2594     0.5646     2.0260 </r>
       <r>   -16.1189     0.4031     2.0827 </r>
       <r>   -15.9783     0.2924     2.1238 </r>
       <r>   -15.8377     0.2160     2.1542 </r>
       <r>   -15.6971     0.1177     2.1707 </r>
       <r>   -15.5565     0.5583     2.2492 </r>
       <r>   -15.4160     0.4962     2.3189 </r>
       <r>   -15.2754     0.6953     2.4167 </r>
       <r>   -15.1348     0.3655     2.4681 </r>
       <r>   -14.9942     0.0298     2.4722 </r>
       <r>   -14.8537     0.4265     2.5322 </r>
       <r>   -14.7131     0.5607     2.6110 </r>
       <r>   -14.5725     0.0006     2.6111 </r>
       <r>   -14.4319     0.0681     2.6207 </r>
       <r>   -14.2913     0.7316     2.7235 </r>
       <r>   -14.1508     0.3794     2.7769 </r>
       <r>   -14.0102     0.1923     2.8039 </r>
       <r>   -13.8696     0.3370     2.8513 </r>
       <r>   -13.7290     0.0711     2.8613 </r>
       <r>   -13.5885     0.3481     2.9102 </r>
       <r>   -13.4479     0.3074     2.9534 </r>
       <r>   -13.3073     0.4468     3.0162 </r>
       <r>   -13.1667     0.7210     3.1176 </r>
       <r>   -13.0261     0.3493     3.1667 </r>
       <r>   -12.8856     0.1489     3.1876 </r>
       <r>   -12.7450     0.3067     3.2307 </r>
       <r>   -12.6044     0.2670     3.2683 </r>
       <r>   -12.4638     0.2751     3.3069 </r>
       <r>   -12.3233     0.1961     3.3345 </r>
       <r>   -12.1827     0.7254     3.4365 </r>
       <r>   -12.0421     0.6794     3.5320 </r>
       <r>   -11.9015     0.1725     3.5562 </r>
       <r>   -11.7610     0.6104     3.6420 </r>
       <r>   -11.6204     0.3721     3.6943 </r>
       <r>   -11.4798     0.0793     3.7055 </r>
       <r>   -11.3392     0.6175     3.7923 </r>
       <r>   -11.1986     0.3178     3.8370 </r>
       <r>   -11.0581     0.5776     3.9181 </r>
       <r>   -10.9175     0.4378     3.9797 </r>
       <r>   -10.7769     0.1612     4.0024 </r>
       <r>   -10.6363     0.9098     4.1302 </r>
       <r>   -10.4958     0.6883     4.2270 </r>
       <r>   -10.3552     0.8007     4.3396 </r>
       <r>   -10.2146     0.6654     4.4331 </r>
       <r>   -10.0740     1.4593     4.6382 </r>
       <r>    -9.9334     0.5145     4.7106 </r>
       <r>    -9.7929     0.8973     4.8367 </r>
       <r>    -9.6523     0.9283     4.9672 </r>
       <r>    -9.5117     0.9203     5.0966 </r>
       <r>    -9.3711     1.4330     5.2981 </r>
       <r>    -9.2306     0.8052     5.4112 </r>
       <r>    -9.0900     0.2763     5.4501 </r>
       <r>    -8.9494     0.9699     5.5864 </r>
       <r>    -8.8088     0.9686     5.7226 </r>
       <r>    -8.6682     1.0665     5.8725 </r>
       <r>    -8.5277     0.6641     5.9659 </r>
       <r>    -8.3871     0.6221     6.0533 </r>
       <r>    -8.2465     0.2128     6.0833 </r>
       <r>    -8.1059     0.6495     6.1746 </r>
       <r>    -7.9654     0.5488     6.2517 </r>
       <r>    -7.8248     0.5927     6.3350 </r>
       <r>    -7.6842     1.0728     6.4859 </r>
       <r>    -7.5436     0.6881     6.5826 </r>
       <r>    -7.4031     0.1834     6.6084 </r>
       <r>    -7.2625     0.8189     6.7235 </r>
       <r>    -7.1219     0.6168     6.8102 </r>
       <r>    -6.9813     0.3801     6.8636 </r>
       <r>    -6.8407     0.3220     6.9089 </r>
       <r>    -6.7002     0.5097     6.9805 </r>
       <r>    -6.5596     0.7785     7.0900 </r>
       <r>    -6.4190     0.7559     7.1962 </r>
       <r>    -6.2784     0.5916     7.2794 </r>
       <r>    -6.1379     0.3817     7.3331 </r>
       <r>    -5.9973     0.2601     7.3696 </r>
       <r>    -5.8567     0.4384     7.4312 </r>
       <r>    -5.7161     0.5400     7.5071 </r>
       <r>    -5.5755     0.2609     7.5438 </r>
       <r>    -5.4350     0.2910     7.5847 </r>
       <r>    -5.2944     0.2553     7.6206 </r>
       <r>    -5.1538     1.3343     7.8082 </r>
       <r>    -5.0132     0.1788     7.8333 </r>
       <r>    -4.8727     0.0000     7.8333 </r>
       <r>    -4.7321     0.0235     7.8366 </r>
       <r>    -4.5915     0.3687     7.8885 </r>
       <r>    -4.4509     0.1453     7.9089 </r>
       <r>    -4.3103     0.0554     7.9167 </r>
       <r>    -4.1698     0.1450     7.9371 </r>
       <r>    -4.0292     0.0525     7.9444 </r>
       <r>    -3.8886     0.0439     7.9506 </r>
       <r>    -3.7480     0.3502     7.9998 </r>
       <r>    -3.6075     0.0012     8.0000 </r>
       <r>    -3.4669     0.0000     8.0000 </r>
       <r>    -3.3263     0.0000     8.0000 </r>
       <r>    -3.1857     0.0000     8.0000 </r>
       <r>    -3.0452     0.0000     8.0000 </r>
       <r>    -2.9046     0.0000     8.0000 </r>
       <r>    -2.7640     0.0000     8.0000 </r>
       <r>    -2.6234     0.0004     8.0001 </r>
       <r>    -2.4828     0.3184     8.0448 </r>
       <r>    -2.3423     0.0765     8.0556 </r>
       <r>    -2.2017     0.1476     8.0763 </r>
       <r>    -2.0611     0.0499     8.0833 </r>
       <r>    -1.9205     0.0356     8.0883 </r>
       <r>    -1.7800     0.5332     8.1633 </r>
       <r>    -1.6394     0.0245     8.1667 </r>
       <r>    -1.4988     0.4574     8.2310 </r>
       <r>    -1.3582     0.8755     8.3541 </r>
       <r>    -1.2176     0.4601     8.4188 </r>
       <r>    -1.0771     0.5749     8.4996 </r>
       <r>    -0.9365     0.2329     8.5324 </r>
       <r>    -0.7959     0.5229     8.6059 </r>
       <r>    -0.6553     0.0374     8.6111 </r>
       <r>    -0.5148     0.0221     8.6142 </r>
       <r>    -0.3742     0.7522     8.7200 </r>
       <r>    -0.2336     0.0161     8.7222 </r>
       <r>    -0.0930     0.0681     8.7318 </r>
       <r>     0.0476     0.4267     8.7918 </r>
       <r>     0.1881     0.4725     8.8582 </r>
       <r>     0.3287     0.5942     8.9417 </r>
       <r>     0.4693     0.4265     9.0017 </r>
       <r>     0.6099     0.6118     9.0877 </r>
       <r>     0.7504     0.1772     9.1126 </r>
       <r>     0.8910     0.4393     9.1744 </r>
       <r>     1.0316     0.6392     9.2642 </r>
       <r>     1.1722     0.8797     9.3879 </r>
       <r>     1.3127     1.1729     9.5528 </r>
       <r>     1.4533     0.6551     9.6448 </r>
       <r>     1.5939     1.1924     9.8125 </r>
       <r>     1.7345     0.9973     9.9527 </r>
       <r>     1.8751     1.3425    10.1414 </r>
       <r>     2.0156     1.1523    10.3034 </r>
       <r>     2.1562     1.4795    10.5114 </r>
       <r>     2.2968     2.1100    10.8080 </r>
       <r>     2.4374     1.2173    10.9791 </r>
       <r>     2.5779     1.2887    11.1603 </r>
       <r>     2.7185     1.7060    11.4001 </r>
       <r>     2.8591     1.7686    11.6487 </r>
       <r>     2.9997     1.6725    11.8839 </r>
       <r>     3.1403     1.5257    12.0983 </r>
       <r>     3.2808     1.7217    12.3404 </r>
       <r>     3.4214     1.4854    12.5492 </r>
       <r>     3.5620     2.0183    12.8329 </r>
       <r>     3.7026     2.3613    13.1648 </r>
       <r>     3.8431     1.8332    13.4226 </r>
       <r>     3.9837     2.1419    13.7237 </r>
       <r>     4.1243     2.1310    14.0232 </r>
       <r>     4.2649     2.0482    14.3112 </r>
       <r>     4.4055     3.2426    14.7670 </r>
       <r>     4.5460     2.0751    15.0587 </r>
       <r>     4.6866     3.6679    15.5743 </r>
       <r>     4.8272     1.6429    15.8053 </r>
       <r>     4.9678     2.9998    16.2270 </r>
       <r>     5.1083     3.4155    16.7071 </r>
       <r>     5.2489     3.9388    17.2608 </r>
       <r>     5.3895     3.3262    17.7284 </r>
       <r>     5.5301     2.2257    18.0413 </r>
       <r>     5.6706     3.3539    18.5128 </r>
       <r>     5.8112     3.1338    18.9533 </r>
       <r>     5.9518     3.7462    19.4800 </r>
       <r>     6.0924     3.2609    19.9384 </r>
       <r>     6.2330     3.1438    20.3803 </r>
       <r>     6.3735     3.6171    20.8888 </r>
       <r>     6.5141     1.2775    21.0684 </r>
       <r>     6.6547     3.4964    21.5599 </r>
       <r>     6.7953     3.4794    22.0490 </r>
       <r>     6.9358     2.4851    22.3984 </r>
       <r>     7.0764     3.3578    22.8704 </r>
       <r>     7.2170     2.4606    23.2163 </r>
       <r>     7.3576     3.6325    23.7270 </r>
       <r>     7.4982     3.9883    24.2876 </r>
       <r>     7.6387     3.1096    24.7248 </r>
       <r>     7.7793     4.2725    25.3254 </r>
       <r>     7.9199     3.2133    25.7771 </r>
       <r>     8.0605     4.2647    26.3766 </r>
       <r>     8.2010     2.4285    26.7180 </r>
       <r>     8.3416     4.1216    27.2974 </r>
       <r>     8.4822     2.5820    27.6604 </r>
       <r>     8.6228     2.6517    28.0332 </r>
       <r>     8.7634     3.3116    28.4987 </r>
       <r>     8.9039     3.5299    28.9949 </r>
       <r>     9.0445     3.8361    29.5342 </r>
       <r>     9.1851     4.7542    30.2025 </r>
       <r>     9.3257     3.6497    30.7156 </r>
       <r>     9.4662     2.8972    31.1229 </r>
       <r>     9.6068     2.8080    31.5176 </r>
       <r>     9.7474     4.7108    32.1798 </r>
       <r>     9.8880     3.7101    32.7014 </r>
       <r>    10.0285     4.0398    33.2693 </r>
       <r>    10.1691     5.2377    34.0056 </r>
       <r>    10.3097     3.4071    34.4846 </r>
       <r>    10.4503     3.6075    34.9917 </r>
       <r>    10.5909     2.6128    35.3590 </r>
       <r>    10.7314     4.0449    35.9276 </r>
       <r>    10.8720     3.4994    36.4195 </r>
       <r>    11.0126     4.4390    37.0436 </r>
       <r>    11.1532     5.8135    37.8608 </r>
       <r>    11.2937     3.0812    38.2940 </r>
       <r>    11.4343     3.8607    38.8367 </r>
       <r>    11.5749     3.3072    39.3016 </r>
       <r>    11.7155     3.5672    39.8031 </r>
       <r>    11.8561     3.0256    40.2284 </r>
       <r>    11.9966     3.5211    40.7234 </r>
       <r>    12.1372     5.0544    41.4339 </r>
       <r>    12.2778     2.2095    41.7445 </r>
       <r>    12.4184     3.5778    42.2475 </r>
       <r>    12.5589     4.1699    42.8337 </r>
       <r>    12.6995     5.2668    43.5741 </r>
       <r>    12.8401     2.2198    43.8861 </r>
       <r>    12.9807     3.4824    44.3757 </r>
       <r>    13.1213     2.4377    44.7183 </r>
       <r>    13.2618     2.2178    45.0301 </r>
       <r>    13.4024     3.4348    45.5130 </r>
       <r>    13.5430     1.8020    45.7663 </r>
       <r>    13.6836     2.9523    46.1813 </r>
       <r>    13.8241     1.8549    46.4421 </r>
       <r>    13.9647     2.6125    46.8093 </r>
       <r>    14.1053     1.8351    47.0673 </r>
       <r>    14.2459     1.5009    47.2783 </r>
       <r>    14.3864     1.8678    47.5409 </r>
       <r>    14.5270     0.3076    47.5841 </r>
       <r>    14.6676     0.6716    47.6785 </r>
       <r>    14.8082     0.5804    47.7601 </r>
       <r>    14.9488     0.7107    47.8600 </r>
       <r>    15.0893     0.0616    47.8687 </r>
       <r>    15.2299     0.3407    47.9166 </r>
       <r>    15.3705     0.0008    47.9167 </r>
       <r>    15.5111     0.1869    47.9429 </r>
       <r>    15.6516     0.2229    47.9743 </r>
       <r>    15.7922     0.1818    47.9998 </r>
       <r>    15.9328     0.0011    48.0000 </r>
       <r>    16.0734     0.0000    48.0000 </r>
       <r>    16.2140     0.0000    48.0000 </r>
       <r>    16.3545     0.0000    48.0000 </r>
       <r>    16.4951     0.0000    48.0000 </r>
       <r>    16.6357     0.0000    48.0000 </r>
       <r>    16.7763     0.0000    48.0000 </r>
       <r>    16.9168     0.0000    48.0000 </r>
       <r>    17.0574     0.0000    48.0000 </r>
       <r>    17.1980     0.0000    48.0000 </r>
       <r>    17.3386     0.0000    48.0000 </r>
       <r>    17.4792     0.0000    48.0000 </r>
       <r>    17.6197     0.0000    48.0000 </r>
      </set>
     </set>
    </array>
   </total>
  </dos>
 </calculation>
 <structure name="finalpos" >
  <crystal>
   <varray name="basis" >
    <v>       1.23420691      -2.13771446       0.00000000 </v>
    <v>       1.23420691       2.13771446       0.00000000 </v>
    <v>       0.00000000       0.00000000      30.28239374 </v>
   </varray>
   <i name="volume">    159.79304260 </i>
   <varray name="rec_basis" >
    <v>       0.40511846      -0.23389466       0.00000000 </v>
    <v>       0.40511846       0.23389466       0.00000000 </v>
    <v>       0.00000000       0.00000000       0.03302249 </v>
   </varray>
  </crystal>
  <varray name="positions" >
   <v>       0.00000262       0.99999738       0.50000000 </v>
   <v>       0.66666738       0.33333262       0.50000000 </v>
  </varray>
 </structure>
</modeling>
