 running on   24 total cores
 distrk:  each k-point on   24 cores,    1 groups
 distr:  one band on    8 cores,    3 groups
 using from now: INCAR     
 vasp.5.4.4.18Apr17-6-g9f103f2a35 (build Jan 14 2019 14:48:31) complex          
  
 POSCAR found type information on POSCAR  Au
 POSCAR found :  1 types and       4 ions
 scaLAPACK will be used
 LDA part: xc-table for Pade appr. of Perdew
 POSCAR found type information on POSCAR  Au
 POSCAR found :  1 types and       4 ions
 POSCAR, INCAR and KPOINTS ok, starting setup
 FFT: planning ...
 WAVECAR not read
 entering main loop
       N       E                     dE             d eps       ncg     rms          rms(c)
DAV:   1     0.273757934360E+03    0.27376E+03   -0.22598E+04 91899   0.152E+03
DAV:   2    -0.893735108751E+01   -0.28270E+03   -0.27485E+03105462   0.327E+02
DAV:   3    -0.139086666710E+02   -0.49713E+01   -0.49380E+01101574   0.455E+01
DAV:   4    -0.139378721995E+02   -0.29206E-01   -0.29191E-01105003   0.361E+00
DAV:   5    -0.139381450757E+02   -0.27288E-03   -0.27287E-03106722   0.364E-01    0.160E+01
RMM:   6    -0.129556043644E+02    0.98254E+00   -0.25555E+00 91152   0.105E+01    0.104E+01
RMM:   7    -0.128952060007E+02    0.60398E-01   -0.31962E-01 91196   0.355E+00    0.480E+00
RMM:   8    -0.128868586694E+02    0.83473E-02   -0.14929E-02 91212   0.793E-01    0.531E-01
RMM:   9    -0.128867458903E+02    0.11278E-03   -0.25046E-04 91188   0.885E-02    0.404E-02
RMM:  10    -0.128867606464E+02   -0.14756E-04   -0.16657E-05 90806   0.322E-02    0.333E-02
RMM:  11    -0.128867626740E+02   -0.20277E-05   -0.59875E-07 50223   0.444E-03    0.687E-04
RMM:  12    -0.128867625898E+02    0.84251E-07   -0.12406E-07 42527   0.224E-03
   1 F= -.12886763E+02 E0= -.12884686E+02  d E =-.128868E+02
 curvature:   0.00 expect dE= 0.000E+00 dE for cont linesearch  0.000E+00
 trial: gam= 0.00000 g(F)=  0.534E-14 g(S)=  0.000E+00 ort = 0.000E+00 (trialstep = 0.100E+01)
 search vector abs. value=  0.100E-09
 reached required accuracy - stopping structural energy minimisation
