   4   4   0   0
  0.1743207E+02  0.4040137E-09  0.4154382E-09  0.4154382E-09  0.2000000E-15
  1.000000000000000E-004
  CAR 
 unknown system                          
     19.82055135     -1.51695613  301      9.12926106      1.00000000
     -1.517  0.0000E+00  0.0000E+00
     -1.446  0.0000E+00  0.0000E+00
     -1.375  0.0000E+00  0.0000E+00
     -1.304  0.0000E+00  0.0000E+00
     -1.232  0.0000E+00  0.0000E+00
     -1.161  0.0000E+00  0.0000E+00
     -1.090  0.2313E-19  0.1645E-20
     -1.019  0.5285E-16  0.3760E-17
     -0.948  0.4785E-13  0.3407E-14
     -0.877  0.1652E-10  0.1178E-11
     -0.806  0.2238E-08  0.1603E-09
     -0.735  0.1244E-06  0.9006E-08
     -0.663  0.3010E-05  0.2231E-06
     -0.592  0.3391E-04  0.2635E-05
     -0.521  0.1887E-03  0.1605E-04
     -0.450  0.5489E-03  0.5509E-04
     -0.379  0.9466E-03  0.1224E-03
     -0.308  0.1322E-02  0.2165E-03
     -0.237  0.1745E-02  0.3406E-03
     -0.166  0.1807E-02  0.4691E-03
     -0.094  0.1931E-02  0.6064E-03
     -0.023  0.2454E-02  0.7809E-03
      0.048  0.2646E-02  0.9692E-03
      0.119  0.2720E-02  0.1163E-02
      0.190  0.2843E-02  0.1365E-02
      0.261  0.2737E-02  0.1560E-02
      0.332  0.3263E-02  0.1792E-02
      0.403  0.3915E-02  0.2070E-02
      0.475  0.4032E-02  0.2357E-02
      0.546  0.3677E-02  0.2618E-02
      0.617  0.3218E-02  0.2847E-02
      0.688  0.3999E-02  0.3132E-02
      0.759  0.5088E-02  0.3494E-02
      0.830  0.5201E-02  0.3863E-02
      0.901  0.4782E-02  0.4204E-02
      0.972  0.4654E-02  0.4535E-02
      1.044  0.5280E-02  0.4910E-02
      1.115  0.5710E-02  0.5316E-02
      1.186  0.5688E-02  0.5721E-02
      1.257  0.5813E-02  0.6134E-02
      1.328  0.6790E-02  0.6617E-02
      1.399  0.7785E-02  0.7171E-02
      1.470  0.7555E-02  0.7708E-02
      1.541  0.7034E-02  0.8209E-02
      1.613  0.7077E-02  0.8712E-02
      1.684  0.8622E-02  0.9325E-02
      1.755  0.1115E-01  0.1012E-01
      1.826  0.1180E-01  0.1096E-01
      1.897  0.1147E-01  0.1177E-01
      1.968  0.1521E-01  0.1285E-01
      2.039  0.2165E-01  0.1439E-01
      2.110  0.2610E-01  0.1625E-01
      2.182  0.2752E-01  0.1821E-01
      2.253  0.2824E-01  0.2022E-01
      2.324  0.3298E-01  0.2256E-01
      2.395  0.4007E-01  0.2541E-01
      2.466  0.4558E-01  0.2865E-01
      2.537  0.5082E-01  0.3227E-01
      2.608  0.5723E-01  0.3634E-01
      2.679  0.6574E-01  0.4101E-01
      2.751  0.7292E-01  0.4620E-01
      2.822  0.7633E-01  0.5163E-01
      2.893  0.7661E-01  0.5708E-01
      2.964  0.7581E-01  0.6247E-01
      3.035  0.7401E-01  0.6773E-01
      3.106  0.6918E-01  0.7266E-01
      3.177  0.6815E-01  0.7750E-01
      3.248  0.6840E-01  0.8237E-01
      3.320  0.6467E-01  0.8697E-01
      3.391  0.6182E-01  0.9136E-01
      3.462  0.5685E-01  0.9541E-01
      3.533  0.5042E-01  0.9899E-01
      3.604  0.5136E-01  0.1026E+00
      3.675  0.5683E-01  0.1067E+00
      3.746  0.6270E-01  0.1111E+00
      3.817  0.6928E-01  0.1161E+00
      3.889  0.7641E-01  0.1215E+00
      3.960  0.8094E-01  0.1273E+00
      4.031  0.8222E-01  0.1331E+00
      4.102  0.8055E-01  0.1388E+00
      4.173  0.8012E-01  0.1445E+00
      4.244  0.8427E-01  0.1505E+00
      4.315  0.8756E-01  0.1568E+00
      4.386  0.8849E-01  0.1631E+00
      4.458  0.8714E-01  0.1693E+00
      4.529  0.8667E-01  0.1754E+00
      4.600  0.9429E-01  0.1821E+00
      4.671  0.1103E+00  0.1900E+00
      4.742  0.1235E+00  0.1988E+00
      4.813  0.1263E+00  0.2077E+00
      4.884  0.1208E+00  0.2163E+00
      4.955  0.1098E+00  0.2242E+00
      5.027  0.9794E-01  0.2311E+00
      5.098  0.8513E-01  0.2372E+00
      5.169  0.7501E-01  0.2425E+00
      5.240  0.7028E-01  0.2475E+00
      5.311  0.6852E-01  0.2524E+00
      5.382  0.6721E-01  0.2572E+00
      5.453  0.6745E-01  0.2620E+00
      5.524  0.7126E-01  0.2670E+00
      5.596  0.7731E-01  0.2725E+00
      5.667  0.8339E-01  0.2785E+00
      5.738  0.8503E-01  0.2845E+00
      5.809  0.8564E-01  0.2906E+00
      5.880  0.8946E-01  0.2970E+00
      5.951  0.8838E-01  0.3032E+00
      6.022  0.8026E-01  0.3090E+00
      6.093  0.7564E-01  0.3143E+00
      6.165  0.7754E-01  0.3198E+00
      6.236  0.7703E-01  0.3253E+00
      6.307  0.7149E-01  0.3304E+00
      6.378  0.6490E-01  0.3350E+00
      6.449  0.6364E-01  0.3396E+00
      6.520  0.6890E-01  0.3445E+00
      6.591  0.7292E-01  0.3496E+00
      6.662  0.7004E-01  0.3546E+00
      6.734  0.6969E-01  0.3596E+00
      6.805  0.7862E-01  0.3652E+00
      6.876  0.8502E-01  0.3712E+00
      6.947  0.9127E-01  0.3777E+00
      7.018  0.1083E+00  0.3854E+00
      7.089  0.1227E+00  0.3941E+00
      7.160  0.1139E+00  0.4022E+00
      7.231  0.8944E-01  0.4086E+00
      7.303  0.6525E-01  0.4132E+00
      7.374  0.4690E-01  0.4166E+00
      7.445  0.3776E-01  0.4193E+00
      7.516  0.3077E-01  0.4214E+00
      7.587  0.1903E-01  0.4228E+00
      7.658  0.9228E-02  0.4235E+00
      7.729  0.6751E-02  0.4239E+00
      7.800  0.9110E-02  0.4246E+00
      7.872  0.1267E-01  0.4255E+00
      7.943  0.1445E-01  0.4265E+00
      8.014  0.1336E-01  0.4275E+00
      8.085  0.1059E-01  0.4282E+00
      8.156  0.9357E-02  0.4289E+00
      8.227  0.1045E-01  0.4296E+00
      8.298  0.1168E-01  0.4305E+00
      8.369  0.1238E-01  0.4313E+00
      8.441  0.1256E-01  0.4322E+00
      8.512  0.1191E-01  0.4331E+00
      8.583  0.1120E-01  0.4339E+00
      8.654  0.1083E-01  0.4346E+00
      8.725  0.1065E-01  0.4354E+00
      8.796  0.1119E-01  0.4362E+00
      8.867  0.1243E-01  0.4371E+00
      8.938  0.1228E-01  0.4380E+00
      9.010  0.1098E-01  0.4387E+00
      9.081  0.1045E-01  0.4395E+00
      9.152  0.1075E-01  0.4402E+00
      9.223  0.1139E-01  0.4411E+00
      9.294  0.1180E-01  0.4419E+00
      9.365  0.1230E-01  0.4428E+00
      9.436  0.1298E-01  0.4437E+00
      9.507  0.1218E-01  0.4446E+00
      9.579  0.1089E-01  0.4453E+00
      9.650  0.9969E-02  0.4460E+00
      9.721  0.9598E-02  0.4467E+00
      9.792  0.1016E-01  0.4474E+00
      9.863  0.1084E-01  0.4482E+00
      9.934  0.1122E-01  0.4490E+00
     10.005  0.1207E-01  0.4499E+00
     10.076  0.1363E-01  0.4508E+00
     10.148  0.1293E-01  0.4518E+00
     10.219  0.1080E-01  0.4525E+00
     10.290  0.1066E-01  0.4533E+00
     10.361  0.1054E-01  0.4540E+00
     10.432  0.1016E-01  0.4548E+00
     10.503  0.1055E-01  0.4555E+00
     10.574  0.1109E-01  0.4563E+00
     10.645  0.1115E-01  0.4571E+00
     10.717  0.1055E-01  0.4578E+00
     10.788  0.1038E-01  0.4586E+00
     10.859  0.1052E-01  0.4593E+00
     10.930  0.1083E-01  0.4601E+00
     11.001  0.1189E-01  0.4609E+00
     11.072  0.1182E-01  0.4618E+00
     11.143  0.1018E-01  0.4625E+00
     11.214  0.9505E-02  0.4632E+00
     11.286  0.9839E-02  0.4639E+00
     11.357  0.9548E-02  0.4646E+00
     11.428  0.9663E-02  0.4653E+00
     11.499  0.1068E-01  0.4660E+00
     11.570  0.1073E-01  0.4668E+00
     11.641  0.9270E-02  0.4674E+00
     11.712  0.8497E-02  0.4680E+00
     11.783  0.9058E-02  0.4687E+00
     11.855  0.9664E-02  0.4694E+00
     11.926  0.1069E-01  0.4701E+00
     11.997  0.1342E-01  0.4711E+00
     12.068  0.1810E-01  0.4724E+00
     12.139  0.1991E-01  0.4738E+00
     12.210  0.1715E-01  0.4750E+00
     12.281  0.1500E-01  0.4761E+00
     12.352  0.1474E-01  0.4771E+00
     12.424  0.1555E-01  0.4782E+00
     12.495  0.1536E-01  0.4793E+00
     12.566  0.1415E-01  0.4803E+00
     12.637  0.1342E-01  0.4813E+00
     12.708  0.1193E-01  0.4821E+00
     12.779  0.1028E-01  0.4829E+00
     12.850  0.1024E-01  0.4836E+00
     12.921  0.1107E-01  0.4844E+00
     12.993  0.1110E-01  0.4852E+00
     13.064  0.1108E-01  0.4860E+00
     13.135  0.1178E-01  0.4868E+00
     13.206  0.1182E-01  0.4876E+00
     13.277  0.1052E-01  0.4884E+00
     13.348  0.9427E-02  0.4891E+00
     13.419  0.9901E-02  0.4898E+00
     13.490  0.1033E-01  0.4905E+00
     13.562  0.9970E-02  0.4912E+00
     13.633  0.1057E-01  0.4920E+00
     13.704  0.1199E-01  0.4928E+00
     13.775  0.1254E-01  0.4937E+00
     13.846  0.1284E-01  0.4946E+00
     13.917  0.1361E-01  0.4956E+00
     13.988  0.1486E-01  0.4966E+00
     14.059  0.1537E-01  0.4977E+00
     14.131  0.1379E-01  0.4987E+00
     14.202  0.1131E-01  0.4995E+00
     14.273  0.1054E-01  0.5003E+00
     14.344  0.1208E-01  0.5011E+00
     14.415  0.1338E-01  0.5021E+00
     14.486  0.1509E-01  0.5032E+00
     14.557  0.1607E-01  0.5043E+00
     14.628  0.1556E-01  0.5054E+00
     14.700  0.1610E-01  0.5065E+00
     14.771  0.1631E-01  0.5077E+00
     14.842  0.1495E-01  0.5088E+00
     14.913  0.1283E-01  0.5097E+00
     14.984  0.1013E-01  0.5104E+00
     15.055  0.9025E-02  0.5110E+00
     15.126  0.1125E-01  0.5118E+00
     15.197  0.1362E-01  0.5128E+00
     15.269  0.1236E-01  0.5137E+00
     15.340  0.9174E-02  0.5143E+00
     15.411  0.8643E-02  0.5150E+00
     15.482  0.9938E-02  0.5157E+00
     15.553  0.1116E-01  0.5165E+00
     15.624  0.1242E-01  0.5173E+00
     15.695  0.1237E-01  0.5182E+00
     15.766  0.1163E-01  0.5191E+00
     15.838  0.1068E-01  0.5198E+00
     15.909  0.9850E-02  0.5205E+00
     15.980  0.1009E-01  0.5212E+00
     16.051  0.1123E-01  0.5220E+00
     16.122  0.1253E-01  0.5229E+00
     16.193  0.1178E-01  0.5238E+00
     16.264  0.9514E-02  0.5244E+00
     16.335  0.7955E-02  0.5250E+00
     16.407  0.8350E-02  0.5256E+00
     16.478  0.9655E-02  0.5263E+00
     16.549  0.1026E-01  0.5270E+00
     16.620  0.1103E-01  0.5278E+00
     16.691  0.1255E-01  0.5287E+00
     16.762  0.1487E-01  0.5297E+00
     16.833  0.1539E-01  0.5308E+00
     16.904  0.1166E-01  0.5317E+00
     16.976  0.8367E-02  0.5323E+00
     17.047  0.7956E-02  0.5328E+00
     17.118  0.7986E-02  0.5334E+00
     17.189  0.8536E-02  0.5340E+00
     17.260  0.9083E-02  0.5346E+00
     17.331  0.1004E-01  0.5354E+00
     17.402  0.1091E-01  0.5361E+00
     17.473  0.9415E-02  0.5368E+00
     17.545  0.6804E-02  0.5373E+00
     17.616  0.4364E-02  0.5376E+00
     17.687  0.2355E-02  0.5378E+00
     17.758  0.2588E-02  0.5380E+00
     17.829  0.4607E-02  0.5383E+00
     17.900  0.5118E-02  0.5386E+00
     17.971  0.3373E-02  0.5389E+00
     18.042  0.2182E-02  0.5390E+00
     18.114  0.2321E-02  0.5392E+00
     18.185  0.2189E-02  0.5394E+00
     18.256  0.1787E-02  0.5395E+00
     18.327  0.2081E-02  0.5396E+00
     18.398  0.2034E-02  0.5398E+00
     18.469  0.1209E-02  0.5399E+00
     18.540  0.4262E-03  0.5399E+00
     18.611  0.1089E-03  0.5399E+00
     18.683  0.1703E-03  0.5399E+00
     18.754  0.4152E-03  0.5399E+00
     18.825  0.4533E-03  0.5400E+00
     18.896  0.2204E-03  0.5400E+00
     18.967  0.4919E-04  0.5400E+00
     19.038  0.5044E-05  0.5400E+00
     19.109  0.2288E-06  0.5400E+00
     19.180  0.4345E-08  0.5400E+00
     19.252  0.3292E-10  0.5400E+00
     19.323  0.9635E-13  0.5400E+00
     19.394  0.1067E-15  0.5400E+00
     19.465  0.3700E-19  0.5400E+00
     19.536  0.0000E+00  0.5400E+00
     19.607  0.0000E+00  0.5400E+00
     19.678  0.0000E+00  0.5400E+00
     19.749  0.0000E+00  0.5400E+00
     19.821  0.0000E+00  0.5400E+00
