Automatically generated mesh
      84
Reciprocal lattice
    0.03571428571429    0.03571428571429    0.03571428571429             8
    0.10714285714286    0.03571428571429    0.03571428571429            24
    0.17857142857143    0.03571428571429    0.03571428571429            24
    0.25000000000000    0.03571428571429    0.03571428571429            24
    0.32142857142857    0.03571428571429    0.03571428571429            24
    0.39285714285714    0.03571428571429    0.03571428571429            24
    0.46428571428571    0.03571428571429    0.03571428571429            24
    0.10714285714286    0.10714285714286    0.03571428571429            24
    0.17857142857143    0.10714285714286    0.03571428571429            48
    0.25000000000000    0.10714285714286    0.03571428571429            48
    0.32142857142857    0.10714285714286    0.03571428571429            48
    0.39285714285714    0.10714285714286    0.03571428571429            48
    0.46428571428571    0.10714285714286    0.03571428571429            48
    0.17857142857143    0.17857142857143    0.03571428571429            24
    0.25000000000000    0.17857142857143    0.03571428571429            48
    0.32142857142857    0.17857142857143    0.03571428571429            48
    0.39285714285714    0.17857142857143    0.03571428571429            48
    0.46428571428571    0.17857142857143    0.03571428571429            48
    0.25000000000000    0.25000000000000    0.03571428571429            24
    0.32142857142857    0.25000000000000    0.03571428571429            48
    0.39285714285714    0.25000000000000    0.03571428571429            48
    0.46428571428571    0.25000000000000    0.03571428571429            48
    0.32142857142857    0.32142857142857    0.03571428571429            24
    0.39285714285714    0.32142857142857    0.03571428571429            48
    0.46428571428571    0.32142857142857    0.03571428571429            48
    0.39285714285714    0.39285714285714    0.03571428571429            24
    0.46428571428571    0.39285714285714    0.03571428571429            48
    0.46428571428571    0.46428571428571    0.03571428571429            24
    0.10714285714286    0.10714285714286    0.10714285714286             8
    0.17857142857143    0.10714285714286    0.10714285714286            24
    0.25000000000000    0.10714285714286    0.10714285714286            24
    0.32142857142857    0.10714285714286    0.10714285714286            24
    0.39285714285714    0.10714285714286    0.10714285714286            24
    0.46428571428571    0.10714285714286    0.10714285714286            24
    0.17857142857143    0.17857142857143    0.10714285714286            24
    0.25000000000000    0.17857142857143    0.10714285714286            48
    0.32142857142857    0.17857142857143    0.10714285714286            48
    0.39285714285714    0.17857142857143    0.10714285714286            48
    0.46428571428571    0.17857142857143    0.10714285714286            48
    0.25000000000000    0.25000000000000    0.10714285714286            24
    0.32142857142857    0.25000000000000    0.10714285714286            48
    0.39285714285714    0.25000000000000    0.10714285714286            48
    0.46428571428571    0.25000000000000    0.10714285714286            48
    0.32142857142857    0.32142857142857    0.10714285714286            24
    0.39285714285714    0.32142857142857    0.10714285714286            48
    0.46428571428571    0.32142857142857    0.10714285714286            48
    0.39285714285714    0.39285714285714    0.10714285714286            24
    0.46428571428571    0.39285714285714    0.10714285714286            48
    0.46428571428571    0.46428571428571    0.10714285714286            24
    0.17857142857143    0.17857142857143    0.17857142857143             8
    0.25000000000000    0.17857142857143    0.17857142857143            24
    0.32142857142857    0.17857142857143    0.17857142857143            24
    0.39285714285714    0.17857142857143    0.17857142857143            24
    0.46428571428571    0.17857142857143    0.17857142857143            24
    0.25000000000000    0.25000000000000    0.17857142857143            24
    0.32142857142857    0.25000000000000    0.17857142857143            48
    0.39285714285714    0.25000000000000    0.17857142857143            48
    0.46428571428571    0.25000000000000    0.17857142857143            48
    0.32142857142857    0.32142857142857    0.17857142857143            24
    0.39285714285714    0.32142857142857    0.17857142857143            48
    0.46428571428571    0.32142857142857    0.17857142857143            48
    0.39285714285714    0.39285714285714    0.17857142857143            24
    0.46428571428571    0.39285714285714    0.17857142857143            48
    0.46428571428571    0.46428571428571    0.17857142857143            24
    0.25000000000000    0.25000000000000    0.25000000000000             8
    0.32142857142857    0.25000000000000    0.25000000000000            24
    0.39285714285714    0.25000000000000    0.25000000000000            24
    0.46428571428571    0.25000000000000    0.25000000000000            24
    0.32142857142857    0.32142857142857    0.25000000000000            24
    0.39285714285714    0.32142857142857    0.25000000000000            48
    0.46428571428571    0.32142857142857    0.25000000000000            48
    0.39285714285714    0.39285714285714    0.25000000000000            24
    0.46428571428571    0.39285714285714    0.25000000000000            48
    0.46428571428571    0.46428571428571    0.25000000000000            24
    0.32142857142857    0.32142857142857    0.32142857142857             8
    0.39285714285714    0.32142857142857    0.32142857142857            24
    0.46428571428571    0.32142857142857    0.32142857142857            24
    0.39285714285714    0.39285714285714    0.32142857142857            24
    0.46428571428571    0.39285714285714    0.32142857142857            48
    0.46428571428571    0.46428571428571    0.32142857142857            24
    0.39285714285714    0.39285714285714    0.39285714285714             8
    0.46428571428571    0.39285714285714    0.39285714285714            24
    0.46428571428571    0.46428571428571    0.39285714285714            24
    0.46428571428571    0.46428571428571    0.46428571428571             8
