 vasp.5.4.4.18Apr17-6-g9f103f2a35 (build Jan 14 2019 14:48:31) complex          
  
 executed on             LinuxIFC date 2019.08.26  21:11:35
 running on   24 total cores
 distrk:  each k-point on   24 cores,    1 groups
 distr:  one band on NCORES_PER_BAND=   1 cores,   24 groups


--------------------------------------------------------------------------------------------------------


 INCAR:
 POTCAR:    PAW_PBE C_h 06Feb2004                 

 ----------------------------------------------------------------------------- 
|                                                                             |
|           W    W    AA    RRRRR   N    N  II  N    N   GGGG   !!!           |
|           W    W   A  A   R    R  NN   N  II  NN   N  G    G  !!!           |
|           W    W  A    A  R    R  N N  N  II  N N  N  G       !!!           |
|           W WW W  AAAAAA  RRRRR   N  N N  II  N  N N  G  GGG   !            |
|           WW  WW  A    A  R   R   N   NN  II  N   NN  G    G                |
|           W    W  A    A  R    R  N    N  II  N    N   GGGG   !!!           |
|                                                                             |
|      For optimal performance we recommend to set                            |
|        NCORE= 4 - approx SQRT( number of cores)                             |
|      NCORE specifies how many cores store one orbital (NPAR=cpu/NCORE).     |
|      This setting can  greatly improve the performance of VASP for DFT.     |
|      The default,   NCORE=1            might be grossly inefficient         |
|      on modern multi-core architectures or massively parallel machines.     |
|      Do your own testing !!!!                                               |
|      Unfortunately you need to use the default for GW and RPA calculations. |
|      (for HF NCORE is supported but not extensively tested yet)             |
|                                                                             |
 ----------------------------------------------------------------------------- 

 POTCAR:    PAW_PBE C_h 06Feb2004                 
   VRHFIN =C: s2p2                                                              
   LEXCH  = PE                                                                  
   EATOM  =   147.1560 eV,   10.8157 Ry                                         
                                                                                
   TITEL  = PAW_PBE C_h 06Feb2004                                               
   LULTRA =        F    use ultrasoft PP ?                                      
   IUNSCR =        1    unscreen: 0-lin 1-nonlin 2-no                           
   RPACOR =    0.800    partial core radius                                     
   POMASS =   12.011; ZVAL   =    4.000    mass and valenz                      
   RCORE  =    1.100    outmost cutoff radius                                   
   RWIGS  =    1.630; RWIGS  =    0.863    wigner-seitz radius (au A)           
   ENMAX  =  700.000; ENMIN  =  500.000 eV                                      
   ICORE  =        2    local potential                                         
   LCOR   =        T    correct aug charges                                     
   LPAW   =        T    paw PP                                                  
   EAUG   =  946.768                                                            
   DEXC   =    0.000                                                            
   RMAX   =    1.128    core radius for proj-oper                               
   RAUG   =    1.300    factor for augmentation sphere                          
   RDEP   =    1.162    radius for radial grids                                 
   RDEPT  =    1.088    core radius for aug-charge                              
                                                                                
   Atomic configuration                                                         
    4 entries                                                                   
     n  l   j            E        occ.                                          
     1  0  0.50      -273.3789   2.0000                                         
     2  0  0.50       -13.7508   2.0000                                         
     2  1  0.50        -5.2854   2.0000                                         
     3  2  1.50        -5.4423   0.0000                                         
   Description                                                                  
     l       E           TYP  RCUT    TYP  RCUT                                 
     0    -13.7508458     23  1.100                                             
     0     -8.2022199     23  1.100                                             
     1     -5.2854383     23  1.100                                             
     1      1.1560700     23  1.100                                             
     2     -5.4423304      7  1.100                                             
  local pseudopotential read in
  partial core-charges read in
  partial kinetic energy density read in
  atomic valenz-charges read in
  non local Contribution for L=           0  read in
    real space projection operators read in
  non local Contribution for L=           0  read in
    real space projection operators read in
  non local Contribution for L=           1  read in
    real space projection operators read in
  non local Contribution for L=           1  read in
    real space projection operators read in
    PAW grid and wavefunctions read in
 
   number of l-projection  operators is LMAX  =           4
   number of lm-projection operators is LMMAX =           8
 
  PAW_PBE C_h 06Feb2004                 :
 energy of atom  1       EATOM= -147.1560
 kinetic energy error for atom=    0.0044 (will be added to EATOM!!)
 
 
 POSCAR: C8                                      
  positions in direct lattice
  velocities in cartesian coordinates
 exchange correlation table for  LEXCH =        8
   RHO(1)=    0.500       N(1)  =     2000
   RHO(2)=  100.500       N(2)  =     4000

 VTST: version 3.1, (03/28/14)

 CHAIN: initializing optimizer
 
 OPT: Using VASP Conjugate-Gradient optimizer
 CHAIN: Read ICHAIN            0
 
 POSCAR: C8                                      
  positions in direct lattice
  velocities in cartesian coordinates
 


--------------------------------------------------------------------------------------------------------


 ion  position               nearest neighbor table
   1  0.250  0.250  0.250-   2 1.55   4 1.55   6 1.55   8 1.55
   2  0.000  0.000  0.000-   1 1.55   3 1.55   5 1.55   7 1.55
   3  0.250  0.750  0.750-   2 1.55   4 1.55   6 1.55   8 1.55
   4  0.000  0.500  0.500-   1 1.55   3 1.55   5 1.55   7 1.55
   5  0.750  0.250  0.750-   2 1.55   4 1.55   6 1.55   8 1.55
   6  0.500  0.000  0.500-   1 1.55   3 1.55   5 1.55   7 1.55
   7  0.750  0.750  0.250-   2 1.55   4 1.55   6 1.55   8 1.55
   8  0.500  0.500  0.000-   1 1.55   3 1.55   5 1.55   7 1.55
 
  LATTYP: Found a simple cubic cell.
 ALAT       =     3.5736050710
  
  Lattice vectors:
  
 A1 = (   3.5736050710,   0.0000000000,   0.0000000000)
 A2 = (   0.0000000000,   3.5736050710,   0.0000000000)
 A3 = (   0.0000000000,   0.0000000000,   3.5736050710)


Analysis of symmetry for initial positions (statically):
=====================================================================
 Subroutine PRICEL returns following result:
 
  LATTYP: Found a face centered cubic cell.
 ALAT       =     3.5736050710
  
  Lattice vectors:
  
 A1 = (   1.7868025355,   1.7868025355,  -0.0000000000)
 A2 = (   1.7868025355,   0.0000000000,  -1.7868025355)
 A3 = (   0.0000000000,   1.7868025355,  -1.7868025355)
 
   4 primitive cells build up your supercell.
 

 Routine SETGRP: Setting up the symmetry group for a 
 simple cubic supercell.


 Subroutine GETGRP returns: Found 48 space group operations
 (whereof 24 operations were pure point group operations)
 out of a pool of 48 trial point group operations.


The static configuration has the point symmetry T_d .
 The point group associated with its full space group is O_h .


Analysis of symmetry for dynamics (positions and initial velocities):
=====================================================================
 Subroutine PRICEL returns following result:
 
  LATTYP: Found a face centered cubic cell.
 ALAT       =     3.5736050710
  
  Lattice vectors:
  
 A1 = (   1.7868025355,   1.7868025355,  -0.0000000000)
 A2 = (   1.7868025355,   0.0000000000,  -1.7868025355)
 A3 = (   0.0000000000,   1.7868025355,  -1.7868025355)
 
   4 primitive cells build up your supercell.
 

 Routine SETGRP: Setting up the symmetry group for a 
 simple cubic supercell.


 Subroutine GETGRP returns: Found 48 space group operations
 (whereof 24 operations were pure point group operations)
 out of a pool of 48 trial point group operations.


The dynamic configuration has the point symmetry T_d .
 The point group associated with its full space group is O_h .


 Subroutine INISYM returns: Found 48 space group operations
 (whereof 24 operations are pure point group operations),
 and found     4 'primitive' translations

 
 
 KPOINTS: K-Mesh Generated with KP-Resolved Value 

Automatic generation of k-mesh.
Space group operators:
 irot       det(A)        alpha          n_x          n_y          n_z        tau_x        tau_y        tau_z
    1     1.000000     0.000000     1.000000     0.000000     0.000000     0.000000     0.000000     0.000000
    2     1.000000   120.000000    -0.577350    -0.577350    -0.577350     0.000000     0.000000     0.000000
    3     1.000000   120.000000     0.577350     0.577350     0.577350     0.000000     0.000000     0.000000
    4    -1.000000    90.000000     0.000000     0.000000    -1.000000     0.000000     0.000000     0.000000
    5    -1.000000   180.000000     0.000000     0.707107     0.707107     0.000000     0.000000     0.000000
    6    -1.000000    90.000000     0.000000     1.000000     0.000000     0.000000     0.000000     0.000000
    7     1.000000   179.999999     0.000000     0.000000     1.000000     0.000000     0.000000     0.000000
    8     1.000000   120.000000    -0.577350     0.577350     0.577350     0.000000     0.000000     0.000000
    9     1.000000   120.000000    -0.577350     0.577350    -0.577350     0.000000     0.000000     0.000000
   10    -1.000000    90.000000     0.000000     0.000000     1.000000     0.000000     0.000000     0.000000
   11    -1.000000    90.000000    -1.000000     0.000000     0.000000     0.000000     0.000000     0.000000
   12    -1.000000   180.000000     0.707107     0.000000     0.707107     0.000000     0.000000     0.000000
   13     1.000000   120.000000     0.577350    -0.577350     0.577350     0.000000     0.000000     0.000000
   14     1.000000   120.000000    -0.577350    -0.577350     0.577350     0.000000     0.000000     0.000000
   15     1.000000   180.000000     1.000000     0.000000     0.000000     0.000000     0.000000     0.000000
   16    -1.000000    90.000000     0.000000    -1.000000     0.000000     0.000000     0.000000     0.000000
   17    -1.000000   180.000000     0.707107     0.707107     0.000000     0.000000     0.000000     0.000000
   18    -1.000000    90.000000     1.000000     0.000000     0.000000     0.000000     0.000000     0.000000
   19     1.000000   120.000000     0.577350    -0.577350    -0.577350     0.000000     0.000000     0.000000
   20     1.000000   180.000000     0.000000     1.000000     0.000000     0.000000     0.000000     0.000000
   21     1.000000   120.000000     0.577350     0.577350    -0.577350     0.000000     0.000000     0.000000
   22    -1.000000   180.000000     0.000000    -0.707107     0.707107     0.000000     0.000000     0.000000
   23    -1.000000   180.000000     0.707107    -0.707107     0.000000     0.000000     0.000000     0.000000
   24    -1.000000   180.000000     0.707107     0.000000    -0.707107     0.000000     0.000000     0.000000
   25    -1.000000     0.000000     1.000000     0.000000     0.000000     0.750000     0.750000    -0.750000
   26    -1.000000   120.000000    -0.577350    -0.577350    -0.577350     0.750000     0.750000    -0.750000
   27    -1.000000   120.000000     0.577350     0.577350     0.577350     0.750000     0.750000    -0.750000
   28     1.000000    90.000000     0.000000     0.000000    -1.000000     0.750000     0.750000    -0.750000
   29     1.000000   180.000000     0.000000     0.707107     0.707107     0.750000     0.750000    -0.750000
   30     1.000000    90.000000     0.000000     1.000000     0.000000     0.750000     0.750000    -0.750000
   31    -1.000000   179.999999     0.000000     0.000000     1.000000     0.750000     0.750000    -0.750000
   32    -1.000000   120.000000    -0.577350     0.577350     0.577350     0.750000     0.750000    -0.750000
   33    -1.000000   120.000000    -0.577350     0.577350    -0.577350     0.750000     0.750000    -0.750000
   34     1.000000    90.000000     0.000000     0.000000     1.000000     0.750000     0.750000    -0.750000
   35     1.000000    90.000000    -1.000000     0.000000     0.000000     0.750000     0.750000    -0.750000
   36     1.000000   180.000000     0.707107     0.000000     0.707107     0.750000     0.750000    -0.750000
   37    -1.000000   120.000000     0.577350    -0.577350     0.577350     0.750000     0.750000    -0.750000
   38    -1.000000   120.000000    -0.577350    -0.577350     0.577350     0.750000     0.750000    -0.750000
   39    -1.000000   180.000000     1.000000     0.000000     0.000000     0.750000     0.750000    -0.750000
   40     1.000000    90.000000     0.000000    -1.000000     0.000000     0.750000     0.750000    -0.750000
   41     1.000000   180.000000     0.707107     0.707107     0.000000     0.750000     0.750000    -0.750000
   42     1.000000    90.000000     1.000000     0.000000     0.000000     0.750000     0.750000    -0.750000
   43    -1.000000   120.000000     0.577350    -0.577350    -0.577350     0.750000     0.750000    -0.750000
   44    -1.000000   180.000000     0.000000     1.000000     0.000000     0.750000     0.750000    -0.750000
   45    -1.000000   120.000000     0.577350     0.577350    -0.577350     0.750000     0.750000    -0.750000
   46     1.000000   180.000000     0.000000    -0.707107     0.707107     0.750000     0.750000    -0.750000
   47     1.000000   180.000000     0.707107    -0.707107     0.000000     0.750000     0.750000    -0.750000
   48     1.000000   180.000000     0.707107     0.000000    -0.707107     0.750000     0.750000    -0.750000
 
 Subroutine IBZKPT returns following result:
 ===========================================
 
 Found     84 irreducible k-points:
 
 Following reciprocal coordinates:
            Coordinates               Weight
  0.035714  0.035714  0.035714      8.000000
  0.107143  0.035714  0.035714     24.000000
  0.178571  0.035714  0.035714     24.000000
  0.250000  0.035714  0.035714     24.000000
  0.321429  0.035714  0.035714     24.000000
  0.392857  0.035714  0.035714     24.000000
  0.464286  0.035714  0.035714     24.000000
  0.107143  0.107143  0.035714     24.000000
  0.178571  0.107143  0.035714     48.000000
  0.250000  0.107143  0.035714     48.000000
  0.321429  0.107143  0.035714     48.000000
  0.392857  0.107143  0.035714     48.000000
  0.464286  0.107143  0.035714     48.000000
  0.178571  0.178571  0.035714     24.000000
  0.250000  0.178571  0.035714     48.000000
  0.321429  0.178571  0.035714     48.000000
  0.392857  0.178571  0.035714     48.000000
  0.464286  0.178571  0.035714     48.000000
  0.250000  0.250000  0.035714     24.000000
  0.321429  0.250000  0.035714     48.000000
  0.392857  0.250000  0.035714     48.000000
  0.464286  0.250000  0.035714     48.000000
  0.321429  0.321429  0.035714     24.000000
  0.392857  0.321429  0.035714     48.000000
  0.464286  0.321429  0.035714     48.000000
  0.392857  0.392857  0.035714     24.000000
  0.464286  0.392857  0.035714     48.000000
  0.464286  0.464286  0.035714     24.000000
  0.107143  0.107143  0.107143      8.000000
  0.178571  0.107143  0.107143     24.000000
  0.250000  0.107143  0.107143     24.000000
  0.321429  0.107143  0.107143     24.000000
  0.392857  0.107143  0.107143     24.000000
  0.464286  0.107143  0.107143     24.000000
  0.178571  0.178571  0.107143     24.000000
  0.250000  0.178571  0.107143     48.000000
  0.321429  0.178571  0.107143     48.000000
  0.392857  0.178571  0.107143     48.000000
  0.464286  0.178571  0.107143     48.000000
  0.250000  0.250000  0.107143     24.000000
  0.321429  0.250000  0.107143     48.000000
  0.392857  0.250000  0.107143     48.000000
  0.464286  0.250000  0.107143     48.000000
  0.321429  0.321429  0.107143     24.000000
  0.392857  0.321429  0.107143     48.000000
  0.464286  0.321429  0.107143     48.000000
  0.392857  0.392857  0.107143     24.000000
  0.464286  0.392857  0.107143     48.000000
  0.464286  0.464286  0.107143     24.000000
  0.178571  0.178571  0.178571      8.000000
  0.250000  0.178571  0.178571     24.000000
  0.321429  0.178571  0.178571     24.000000
  0.392857  0.178571  0.178571     24.000000
  0.464286  0.178571  0.178571     24.000000
  0.250000  0.250000  0.178571     24.000000
  0.321429  0.250000  0.178571     48.000000
  0.392857  0.250000  0.178571     48.000000
  0.464286  0.250000  0.178571     48.000000
  0.321429  0.321429  0.178571     24.000000
  0.392857  0.321429  0.178571     48.000000
  0.464286  0.321429  0.178571     48.000000
  0.392857  0.392857  0.178571     24.000000
  0.464286  0.392857  0.178571     48.000000
  0.464286  0.464286  0.178571     24.000000
  0.250000  0.250000  0.250000      8.000000
  0.321429  0.250000  0.250000     24.000000
  0.392857  0.250000  0.250000     24.000000
  0.464286  0.250000  0.250000     24.000000
  0.321429  0.321429  0.250000     24.000000
  0.392857  0.321429  0.250000     48.000000
  0.464286  0.321429  0.250000     48.000000
  0.392857  0.392857  0.250000     24.000000
  0.464286  0.392857  0.250000     48.000000
  0.464286  0.464286  0.250000     24.000000
  0.321429  0.321429  0.321429      8.000000
  0.392857  0.321429  0.321429     24.000000
  0.464286  0.321429  0.321429     24.000000
  0.392857  0.392857  0.321429     24.000000
  0.464286  0.392857  0.321429     48.000000
  0.464286  0.464286  0.321429     24.000000
  0.392857  0.392857  0.392857      8.000000
  0.464286  0.392857  0.392857     24.000000
  0.464286  0.464286  0.392857     24.000000
  0.464286  0.464286  0.464286      8.000000
 
 Following cartesian coordinates:
            Coordinates               Weight
  0.009994  0.009994  0.009994      8.000000
  0.029982  0.009994  0.009994     24.000000
  0.049970  0.009994  0.009994     24.000000
  0.069957  0.009994  0.009994     24.000000
  0.089945  0.009994  0.009994     24.000000
  0.109933  0.009994  0.009994     24.000000
  0.129921  0.009994  0.009994     24.000000
  0.029982  0.029982  0.009994     24.000000
  0.049970  0.029982  0.009994     48.000000
  0.069957  0.029982  0.009994     48.000000
  0.089945  0.029982  0.009994     48.000000
  0.109933  0.029982  0.009994     48.000000
  0.129921  0.029982  0.009994     48.000000
  0.049970  0.049970  0.009994     24.000000
  0.069957  0.049970  0.009994     48.000000
  0.089945  0.049970  0.009994     48.000000
  0.109933  0.049970  0.009994     48.000000
  0.129921  0.049970  0.009994     48.000000
  0.069957  0.069957  0.009994     24.000000
  0.089945  0.069957  0.009994     48.000000
  0.109933  0.069957  0.009994     48.000000
  0.129921  0.069957  0.009994     48.000000
  0.089945  0.089945  0.009994     24.000000
  0.109933  0.089945  0.009994     48.000000
  0.129921  0.089945  0.009994     48.000000
  0.109933  0.109933  0.009994     24.000000
  0.129921  0.109933  0.009994     48.000000
  0.129921  0.129921  0.009994     24.000000
  0.029982  0.029982  0.029982      8.000000
  0.049970  0.029982  0.029982     24.000000
  0.069957  0.029982  0.029982     24.000000
  0.089945  0.029982  0.029982     24.000000
  0.109933  0.029982  0.029982     24.000000
  0.129921  0.029982  0.029982     24.000000
  0.049970  0.049970  0.029982     24.000000
  0.069957  0.049970  0.029982     48.000000
  0.089945  0.049970  0.029982     48.000000
  0.109933  0.049970  0.029982     48.000000
  0.129921  0.049970  0.029982     48.000000
  0.069957  0.069957  0.029982     24.000000
  0.089945  0.069957  0.029982     48.000000
  0.109933  0.069957  0.029982     48.000000
  0.129921  0.069957  0.029982     48.000000
  0.089945  0.089945  0.029982     24.000000
  0.109933  0.089945  0.029982     48.000000
  0.129921  0.089945  0.029982     48.000000
  0.109933  0.109933  0.029982     24.000000
  0.129921  0.109933  0.029982     48.000000
  0.129921  0.129921  0.029982     24.000000
  0.049970  0.049970  0.049970      8.000000
  0.069957  0.049970  0.049970     24.000000
  0.089945  0.049970  0.049970     24.000000
  0.109933  0.049970  0.049970     24.000000
  0.129921  0.049970  0.049970     24.000000
  0.069957  0.069957  0.049970     24.000000
  0.089945  0.069957  0.049970     48.000000
  0.109933  0.069957  0.049970     48.000000
  0.129921  0.069957  0.049970     48.000000
  0.089945  0.089945  0.049970     24.000000
  0.109933  0.089945  0.049970     48.000000
  0.129921  0.089945  0.049970     48.000000
  0.109933  0.109933  0.049970     24.000000
  0.129921  0.109933  0.049970     48.000000
  0.129921  0.129921  0.049970     24.000000
  0.069957  0.069957  0.069957      8.000000
  0.089945  0.069957  0.069957     24.000000
  0.109933  0.069957  0.069957     24.000000
  0.129921  0.069957  0.069957     24.000000
  0.089945  0.089945  0.069957     24.000000
  0.109933  0.089945  0.069957     48.000000
  0.129921  0.089945  0.069957     48.000000
  0.109933  0.109933  0.069957     24.000000
  0.129921  0.109933  0.069957     48.000000
  0.129921  0.129921  0.069957     24.000000
  0.089945  0.089945  0.089945      8.000000
  0.109933  0.089945  0.089945     24.000000
  0.129921  0.089945  0.089945     24.000000
  0.109933  0.109933  0.089945     24.000000
  0.129921  0.109933  0.089945     48.000000
  0.129921  0.129921  0.089945     24.000000
  0.109933  0.109933  0.109933      8.000000
  0.129921  0.109933  0.109933     24.000000
  0.129921  0.129921  0.109933     24.000000
  0.129921  0.129921  0.129921      8.000000
 


--------------------------------------------------------------------------------------------------------




 Dimension of arrays:
   k-points           NKPTS =     84   k-points in BZ     NKDIM =     84   number of bands    NBANDS=     24
   number of dos      NEDOS =    301   number of ions     NIONS =      8
   non local maximal  LDIM  =      4   non local SUM 2l+1 LMDIM =      8
   total plane-waves  NPLWV =  46656
   max r-space proj   IRMAX =      1   max aug-charges    IRDMAX=  16273
   dimension x,y,z NGX =    36 NGY =   36 NGZ =   36
   dimension x,y,z NGXF=    48 NGYF=   48 NGZF=   48
   support grid    NGXF=    96 NGYF=   96 NGZF=   96
   ions per type =               8
   NGX,Y,Z   is equivalent  to a cutoff of  16.75, 16.75, 16.75 a.u.
   NGXF,Y,Z  is equivalent  to a cutoff of  22.33, 22.33, 22.33 a.u.

 SYSTEM =  unknown system                          
 POSCAR =  C8                                      

 Startparameter for this run:
   NWRITE =      2    write-flag & timer
   PREC   = high      normal or accurate (medium, high low for compatibility)
   ISTART =      0    job   : 0-new  1-cont  2-samecut
   ICHARG =      2    charge: 1-file 2-atom 10-const
   ISPIN  =      1    spin polarized calculation?
   LNONCOLLINEAR =      F non collinear calculations
   LSORBIT =      F    spin-orbit coupling
   INIWAV =      1    electr: 0-lowe 1-rand  2-diag
   LASPH  =      F    aspherical Exc in radial PAW
   METAGGA=      F    non-selfconsistent MetaGGA calc.

 Electronic Relaxation 1
   ENCUT  =  875.0 eV  64.31 Ry    8.02 a.u.   8.62  8.62  8.62*2*pi/ulx,y,z
   ENINI  =  875.0     initial cutoff
   ENAUG  =  946.8 eV  augmentation charge cutoff
   NELM   =     40;   NELMIN=  4; NELMDL= -5     # of ELM steps 
   EDIFF  = 0.1E-07   stopping-criterion for ELM
   LREAL  =      F    real-space projection
   NLSPLINE    = F    spline interpolate recip. space projectors
   LCOMPAT=      F    compatible to vasp.4.4
   GGA_COMPAT  = T    GGA compatible to vasp.4.4-vasp.4.6
   LMAXPAW     = -100 max onsite density
   LMAXMIX     =    2 max onsite mixed and CHGCAR
   VOSKOWN=      0    Vosko Wilk Nusair interpolation
   ROPT   =    0.00000
 Ionic relaxation
   EDIFFG = -.1E-01   stopping-criterion for IOM
   NSW    =    100    number of steps for IOM
   NBLOCK =      1;   KBLOCK =    100    inner block; outer block 
   IBRION =      2    ionic relax: 0-MD 1-quasi-New 2-CG
   NFREE  =      1    steps in history (QN), initial steepest desc. (CG)
   ISIF   =      2    stress and relaxation
   IWAVPR =     11    prediction:  0-non 1-charg 2-wave 3-comb
   ISYM   =      2    0-nonsym 1-usesym 2-fastsym
   LCORR  =      T    Harris-Foulkes like correction to forces

   POTIM  = 0.5000    time-step for ionic-motion
   TEIN   =    0.0    initial temperature
   TEBEG  =    0.0;   TEEND  =   0.0 temperature during run
   SMASS  =  -3.00    Nose mass-parameter (am)
   estimated Nose-frequenzy (Omega)   =  0.10E-29 period in steps =****** mass=  -0.292E-27a.u.
   SCALEE = 1.0000    scale energy and forces
   NPACO  =    256;   APACO  = 16.0  distance and # of slots for P.C.
   PSTRESS=    0.0 pullay stress

  Mass of Ions in am
   POMASS =  12.01
  Ionic Valenz
   ZVAL   =   4.00
  Atomic Wigner-Seitz radii
   RWIGS  =  -1.00
  virtual crystal weights 
   VCA    =   1.00
   NELECT =      32.0000    total number of electrons
   NUPDOWN=      -1.0000    fix difference up-down

 DOS related values:
   EMIN   =  10.00;   EMAX   =-10.00  energy-range for DOS
   EFERMI =   0.00
   ISMEAR =     0;   SIGMA  =   0.05  broadening in eV -4-tet -1-fermi 0-gaus

 Electronic relaxation 2 (details)
   IALGO  =     38    algorithm
   LDIAG  =      T    sub-space diagonalisation (order eigenvalues)
   LSUBROT=      F    optimize rotation matrix (better conditioning)
   TURBO    =      0    0=normal 1=particle mesh
   IRESTART =      0    0=no restart 2=restart with 2 vectors
   NREBOOT  =      0    no. of reboots
   NMIN     =      0    reboot dimension
   EREF     =   0.00    reference energy to select bands
   IMIX   =      4    mixing-type and parameters
     AMIX     =   0.40;   BMIX     =  1.00
     AMIX_MAG =   1.60;   BMIX_MAG =  1.00
     AMIN     =   0.10
     WC   =   100.;   INIMIX=   1;  MIXPRE=   1;  MAXMIX= -45

 Intra band minimization:
   WEIMIN = 0.0010     energy-eigenvalue tresh-hold
   EBREAK =  0.10E-09  absolut break condition
   DEPER  =   0.30     relativ break condition  

   TIME   =   0.40     timestep for ELM

  volume/ion in A,a.u.               =       5.70        38.50
  Fermi-wavevector in a.u.,A,eV,Ry     =   1.454404  2.748424 28.780265  2.115290
  Thomas-Fermi vector in A             =   2.571558
 
 Write flags
   LWAVE        =      F    write WAVECAR
   LDOWNSAMPLE  =      F    k-point downsampling of WAVECAR
   LCHARG       =      F    write CHGCAR
   LVTOT        =      F    write LOCPOT, total local potential
   LVHAR        =      F    write LOCPOT, Hartree potential only
   LELF         =      F    write electronic localiz. function (ELF)
   LORBIT       =      0    0 simple, 1 ext, 2 COOP (PROOUT), +10 PAW based schemes


 Dipole corrections
   LMONO  =      F    monopole corrections only (constant potential shift)
   LDIPOL =      F    correct potential (dipole corrections)
   IDIPOL =      0    1-x, 2-y, 3-z, 4-all directions 
   EPSILON=  1.0000000 bulk dielectric constant

 Exchange correlation treatment:
   GGA     =    --    GGA type
   LEXCH   =     8    internal setting for exchange type
   VOSKOWN=      0    Vosko Wilk Nusair interpolation
   LHFCALC =     F    Hartree Fock is set to
   LHFONE  =     F    Hartree Fock one center treatment
   AEXX    =    0.0000 exact exchange contribution

 Linear response parameters
   LEPSILON=     F    determine dielectric tensor
   LRPA    =     F    only Hartree local field effects (RPA)
   LNABLA  =     F    use nabla operator in PAW spheres
   LVEL    =     F    velocity operator in full k-point grid
   LINTERFAST=   F  fast interpolation
   KINTER  =     0    interpolate to denser k-point grid
   CSHIFT  =0.1000    complex shift for real part using Kramers Kronig
   OMEGAMAX=  -1.0    maximum frequency
   DEG_THRESHOLD= 0.2000000E-02 threshold for treating states as degnerate
   RTIME   =   -0.100 relaxation time in fs
  (WPLASMAI=    0.000 imaginary part of plasma frequency in eV, 0.658/RTIME)
   DFIELD  = 0.0000000 0.0000000 0.0000000 field for delta impulse in time
 
 Orbital magnetization related:
   ORBITALMAG=     F  switch on orbital magnetization
   LCHIMAG   =     F  perturbation theory with respect to B field
   DQ        =  0.001000  dq finite difference perturbation B field
   LLRAUG    =     F  two centre corrections for induced B field



--------------------------------------------------------------------------------------------------------


 conjugate gradient relaxation of ions
 charge density and potential will be updated during run
 non-spin polarized calculation
 Variant of blocked Davidson
 Davidson routine will perform the subspace rotation
 perform sub-space diagonalisation
    after iterative eigenvector-optimisation
 modified Broyden-mixing scheme, WC =      100.0
 initial mixing is a Kerker type mixing with AMIX =  0.4000 and BMIX =      1.0000
 Hartree-type preconditioning will be used
 using additional bands            8
 reciprocal scheme for non local part
 use partial core corrections
 calculate Harris-corrections to forces 
   (improved forces if not selfconsistent)
 use gradient corrections 
 use of overlap-Matrix (Vanderbilt PP)
 Gauss-broadening in eV      SIGMA  =   0.05


--------------------------------------------------------------------------------------------------------


  energy-cutoff  :      875.00
  volume of cell :       45.64
      direct lattice vectors                 reciprocal lattice vectors
     3.573605071  0.000000000  0.000000000     0.279829466  0.000000000  0.000000000
     0.000000000  3.573605071  0.000000000     0.000000000  0.279829466  0.000000000
     0.000000000  0.000000000  3.573605071     0.000000000  0.000000000  0.279829466

  length of vectors
     3.573605071  3.573605071  3.573605071     0.279829466  0.279829466  0.279829466


 
 k-points in units of 2pi/SCALE and weight: K-Mesh Generated with KP-Resolved Value 
   0.00999391  0.00999391  0.00999391       0.003
   0.02998173  0.00999391  0.00999391       0.009
   0.04996955  0.00999391  0.00999391       0.009
   0.06995737  0.00999391  0.00999391       0.009
   0.08994519  0.00999391  0.00999391       0.009
   0.10993300  0.00999391  0.00999391       0.009
   0.12992082  0.00999391  0.00999391       0.009
   0.02998173  0.02998173  0.00999391       0.009
   0.04996955  0.02998173  0.00999391       0.017
   0.06995737  0.02998173  0.00999391       0.017
   0.08994519  0.02998173  0.00999391       0.017
   0.10993300  0.02998173  0.00999391       0.017
   0.12992082  0.02998173  0.00999391       0.017
   0.04996955  0.04996955  0.00999391       0.009
   0.06995737  0.04996955  0.00999391       0.017
   0.08994519  0.04996955  0.00999391       0.017
   0.10993300  0.04996955  0.00999391       0.017
   0.12992082  0.04996955  0.00999391       0.017
   0.06995737  0.06995737  0.00999391       0.009
   0.08994519  0.06995737  0.00999391       0.017
   0.10993300  0.06995737  0.00999391       0.017
   0.12992082  0.06995737  0.00999391       0.017
   0.08994519  0.08994519  0.00999391       0.009
   0.10993300  0.08994519  0.00999391       0.017
   0.12992082  0.08994519  0.00999391       0.017
   0.10993300  0.10993300  0.00999391       0.009
   0.12992082  0.10993300  0.00999391       0.017
   0.12992082  0.12992082  0.00999391       0.009
   0.02998173  0.02998173  0.02998173       0.003
   0.04996955  0.02998173  0.02998173       0.009
   0.06995737  0.02998173  0.02998173       0.009
   0.08994519  0.02998173  0.02998173       0.009
   0.10993300  0.02998173  0.02998173       0.009
   0.12992082  0.02998173  0.02998173       0.009
   0.04996955  0.04996955  0.02998173       0.009
   0.06995737  0.04996955  0.02998173       0.017
   0.08994519  0.04996955  0.02998173       0.017
   0.10993300  0.04996955  0.02998173       0.017
   0.12992082  0.04996955  0.02998173       0.017
   0.06995737  0.06995737  0.02998173       0.009
   0.08994519  0.06995737  0.02998173       0.017
   0.10993300  0.06995737  0.02998173       0.017
   0.12992082  0.06995737  0.02998173       0.017
   0.08994519  0.08994519  0.02998173       0.009
   0.10993300  0.08994519  0.02998173       0.017
   0.12992082  0.08994519  0.02998173       0.017
   0.10993300  0.10993300  0.02998173       0.009
   0.12992082  0.10993300  0.02998173       0.017
   0.12992082  0.12992082  0.02998173       0.009
   0.04996955  0.04996955  0.04996955       0.003
   0.06995737  0.04996955  0.04996955       0.009
   0.08994519  0.04996955  0.04996955       0.009
   0.10993300  0.04996955  0.04996955       0.009
   0.12992082  0.04996955  0.04996955       0.009
   0.06995737  0.06995737  0.04996955       0.009
   0.08994519  0.06995737  0.04996955       0.017
   0.10993300  0.06995737  0.04996955       0.017
   0.12992082  0.06995737  0.04996955       0.017
   0.08994519  0.08994519  0.04996955       0.009
   0.10993300  0.08994519  0.04996955       0.017
   0.12992082  0.08994519  0.04996955       0.017
   0.10993300  0.10993300  0.04996955       0.009
   0.12992082  0.10993300  0.04996955       0.017
   0.12992082  0.12992082  0.04996955       0.009
   0.06995737  0.06995737  0.06995737       0.003
   0.08994519  0.06995737  0.06995737       0.009
   0.10993300  0.06995737  0.06995737       0.009
   0.12992082  0.06995737  0.06995737       0.009
   0.08994519  0.08994519  0.06995737       0.009
   0.10993300  0.08994519  0.06995737       0.017
   0.12992082  0.08994519  0.06995737       0.017
   0.10993300  0.10993300  0.06995737       0.009
   0.12992082  0.10993300  0.06995737       0.017
   0.12992082  0.12992082  0.06995737       0.009
   0.08994519  0.08994519  0.08994519       0.003
   0.10993300  0.08994519  0.08994519       0.009
   0.12992082  0.08994519  0.08994519       0.009
   0.10993300  0.10993300  0.08994519       0.009
   0.12992082  0.10993300  0.08994519       0.017
   0.12992082  0.12992082  0.08994519       0.009
   0.10993300  0.10993300  0.10993300       0.003
   0.12992082  0.10993300  0.10993300       0.009
   0.12992082  0.12992082  0.10993300       0.009
   0.12992082  0.12992082  0.12992082       0.003
 
 k-points in reciprocal lattice and weights: K-Mesh Generated with KP-Resolved Value 
   0.03571429  0.03571429  0.03571429       0.003
   0.10714286  0.03571429  0.03571429       0.009
   0.17857143  0.03571429  0.03571429       0.009
   0.25000000  0.03571429  0.03571429       0.009
   0.32142857  0.03571429  0.03571429       0.009
   0.39285714  0.03571429  0.03571429       0.009
   0.46428571  0.03571429  0.03571429       0.009
   0.10714286  0.10714286  0.03571429       0.009
   0.17857143  0.10714286  0.03571429       0.017
   0.25000000  0.10714286  0.03571429       0.017
   0.32142857  0.10714286  0.03571429       0.017
   0.39285714  0.10714286  0.03571429       0.017
   0.46428571  0.10714286  0.03571429       0.017
   0.17857143  0.17857143  0.03571429       0.009
   0.25000000  0.17857143  0.03571429       0.017
   0.32142857  0.17857143  0.03571429       0.017
   0.39285714  0.17857143  0.03571429       0.017
   0.46428571  0.17857143  0.03571429       0.017
   0.25000000  0.25000000  0.03571429       0.009
   0.32142857  0.25000000  0.03571429       0.017
   0.39285714  0.25000000  0.03571429       0.017
   0.46428571  0.25000000  0.03571429       0.017
   0.32142857  0.32142857  0.03571429       0.009
   0.39285714  0.32142857  0.03571429       0.017
   0.46428571  0.32142857  0.03571429       0.017
   0.39285714  0.39285714  0.03571429       0.009
   0.46428571  0.39285714  0.03571429       0.017
   0.46428571  0.46428571  0.03571429       0.009
   0.10714286  0.10714286  0.10714286       0.003
   0.17857143  0.10714286  0.10714286       0.009
   0.25000000  0.10714286  0.10714286       0.009
   0.32142857  0.10714286  0.10714286       0.009
   0.39285714  0.10714286  0.10714286       0.009
   0.46428571  0.10714286  0.10714286       0.009
   0.17857143  0.17857143  0.10714286       0.009
   0.25000000  0.17857143  0.10714286       0.017
   0.32142857  0.17857143  0.10714286       0.017
   0.39285714  0.17857143  0.10714286       0.017
   0.46428571  0.17857143  0.10714286       0.017
   0.25000000  0.25000000  0.10714286       0.009
   0.32142857  0.25000000  0.10714286       0.017
   0.39285714  0.25000000  0.10714286       0.017
   0.46428571  0.25000000  0.10714286       0.017
   0.32142857  0.32142857  0.10714286       0.009
   0.39285714  0.32142857  0.10714286       0.017
   0.46428571  0.32142857  0.10714286       0.017
   0.39285714  0.39285714  0.10714286       0.009
   0.46428571  0.39285714  0.10714286       0.017
   0.46428571  0.46428571  0.10714286       0.009
   0.17857143  0.17857143  0.17857143       0.003
   0.25000000  0.17857143  0.17857143       0.009
   0.32142857  0.17857143  0.17857143       0.009
   0.39285714  0.17857143  0.17857143       0.009
   0.46428571  0.17857143  0.17857143       0.009
   0.25000000  0.25000000  0.17857143       0.009
   0.32142857  0.25000000  0.17857143       0.017
   0.39285714  0.25000000  0.17857143       0.017
   0.46428571  0.25000000  0.17857143       0.017
   0.32142857  0.32142857  0.17857143       0.009
   0.39285714  0.32142857  0.17857143       0.017
   0.46428571  0.32142857  0.17857143       0.017
   0.39285714  0.39285714  0.17857143       0.009
   0.46428571  0.39285714  0.17857143       0.017
   0.46428571  0.46428571  0.17857143       0.009
   0.25000000  0.25000000  0.25000000       0.003
   0.32142857  0.25000000  0.25000000       0.009
   0.39285714  0.25000000  0.25000000       0.009
   0.46428571  0.25000000  0.25000000       0.009
   0.32142857  0.32142857  0.25000000       0.009
   0.39285714  0.32142857  0.25000000       0.017
   0.46428571  0.32142857  0.25000000       0.017
   0.39285714  0.39285714  0.25000000       0.009
   0.46428571  0.39285714  0.25000000       0.017
   0.46428571  0.46428571  0.25000000       0.009
   0.32142857  0.32142857  0.32142857       0.003
   0.39285714  0.32142857  0.32142857       0.009
   0.46428571  0.32142857  0.32142857       0.009
   0.39285714  0.39285714  0.32142857       0.009
   0.46428571  0.39285714  0.32142857       0.017
   0.46428571  0.46428571  0.32142857       0.009
   0.39285714  0.39285714  0.39285714       0.003
   0.46428571  0.39285714  0.39285714       0.009
   0.46428571  0.46428571  0.39285714       0.009
   0.46428571  0.46428571  0.46428571       0.003
 
 position of ions in fractional coordinates (direct lattice) 
   0.25000000  0.25000000  0.25000000
   0.00000000  0.00000000  0.00000000
   0.25000000  0.75000000  0.75000000
   0.00000000  0.50000000  0.50000000
   0.75000000  0.25000000  0.75000000
   0.50000000  0.00000000  0.50000000
   0.75000000  0.75000000  0.25000000
   0.50000000  0.50000000  0.00000000
 
 position of ions in cartesian coordinates  (Angst):
   0.89340127  0.89340127  0.89340127
   0.00000000  0.00000000  0.00000000
   0.89340127  2.68020380  2.68020380
   0.00000000  1.78680254  1.78680254
   2.68020380  0.89340127  2.68020380
   1.78680254  0.00000000  1.78680254
   2.68020380  2.68020380  0.89340127
   1.78680254  1.78680254  0.00000000
 


--------------------------------------------------------------------------------------------------------


 k-point  1 :   0.0357 0.0357 0.0357  plane waves:    2692
 k-point  2 :   0.1071 0.0357 0.0357  plane waves:    2684
 k-point  3 :   0.1786 0.0357 0.0357  plane waves:    2681
 k-point  4 :   0.2500 0.0357 0.0357  plane waves:    2693
 k-point  5 :   0.3214 0.0357 0.0357  plane waves:    2699
 k-point  6 :   0.3929 0.0357 0.0357  plane waves:    2688
 k-point  7 :   0.4643 0.0357 0.0357  plane waves:    2700
 k-point  8 :   0.1071 0.1071 0.0357  plane waves:    2672
 k-point  9 :   0.1786 0.1071 0.0357  plane waves:    2682
 k-point 10 :   0.2500 0.1071 0.0357  plane waves:    2697
 k-point 11 :   0.3214 0.1071 0.0357  plane waves:    2690
 k-point 12 :   0.3929 0.1071 0.0357  plane waves:    2689
 k-point 13 :   0.4643 0.1071 0.0357  plane waves:    2689
 k-point 14 :   0.1786 0.1786 0.0357  plane waves:    2692
 k-point 15 :   0.2500 0.1786 0.0357  plane waves:    2689
 k-point 16 :   0.3214 0.1786 0.0357  plane waves:    2686
 k-point 17 :   0.3929 0.1786 0.0357  plane waves:    2687
 k-point 18 :   0.4643 0.1786 0.0357  plane waves:    2696
 k-point 19 :   0.2500 0.2500 0.0357  plane waves:    2687
 k-point 20 :   0.3214 0.2500 0.0357  plane waves:    2677
 k-point 21 :   0.3929 0.2500 0.0357  plane waves:    2678
 k-point 22 :   0.4643 0.2500 0.0357  plane waves:    2685
 k-point 23 :   0.3214 0.3214 0.0357  plane waves:    2679
 k-point 24 :   0.3929 0.3214 0.0357  plane waves:    2675
 k-point 25 :   0.4643 0.3214 0.0357  plane waves:    2677
 k-point 26 :   0.3929 0.3929 0.0357  plane waves:    2680
 k-point 27 :   0.4643 0.3929 0.0357  plane waves:    2674
 k-point 28 :   0.4643 0.4643 0.0357  plane waves:    2685
 k-point 29 :   0.1071 0.1071 0.1071  plane waves:    2683
 k-point 30 :   0.1786 0.1071 0.1071  plane waves:    2682
 k-point 31 :   0.2500 0.1071 0.1071  plane waves:    2690
 k-point 32 :   0.3214 0.1071 0.1071  plane waves:    2693
 k-point 33 :   0.3929 0.1071 0.1071  plane waves:    2694
 k-point 34 :   0.4643 0.1071 0.1071  plane waves:    2690
 k-point 35 :   0.1786 0.1786 0.1071  plane waves:    2687
 k-point 36 :   0.2500 0.1786 0.1071  plane waves:    2690
 k-point 37 :   0.3214 0.1786 0.1071  plane waves:    2693
 k-point 38 :   0.3929 0.1786 0.1071  plane waves:    2686
 k-point 39 :   0.4643 0.1786 0.1071  plane waves:    2690
 k-point 40 :   0.2500 0.2500 0.1071  plane waves:    2683
 k-point 41 :   0.3214 0.2500 0.1071  plane waves:    2684
 k-point 42 :   0.3929 0.2500 0.1071  plane waves:    2679
 k-point 43 :   0.4643 0.2500 0.1071  plane waves:    2688
 k-point 44 :   0.3214 0.3214 0.1071  plane waves:    2686
 k-point 45 :   0.3929 0.3214 0.1071  plane waves:    2679
 k-point 46 :   0.4643 0.3214 0.1071  plane waves:    2674
 k-point 47 :   0.3929 0.3929 0.1071  plane waves:    2674
 k-point 48 :   0.4643 0.3929 0.1071  plane waves:    2676
 k-point 49 :   0.4643 0.4643 0.1071  plane waves:    2676
 k-point 50 :   0.1786 0.1786 0.1786  plane waves:    2683
 k-point 51 :   0.2500 0.1786 0.1786  plane waves:    2682
 k-point 52 :   0.3214 0.1786 0.1786  plane waves:    2681
 k-point 53 :   0.3929 0.1786 0.1786  plane waves:    2688
 k-point 54 :   0.4643 0.1786 0.1786  plane waves:    2692
 k-point 55 :   0.2500 0.2500 0.1786  plane waves:    2679
 k-point 56 :   0.3214 0.2500 0.1786  plane waves:    2686
 k-point 57 :   0.3929 0.2500 0.1786  plane waves:    2680
 k-point 58 :   0.4643 0.2500 0.1786  plane waves:    2675
 k-point 59 :   0.3214 0.3214 0.1786  plane waves:    2688
 k-point 60 :   0.3929 0.3214 0.1786  plane waves:    2683
 k-point 61 :   0.4643 0.3214 0.1786  plane waves:    2676
 k-point 62 :   0.3929 0.3929 0.1786  plane waves:    2675
 k-point 63 :   0.4643 0.3929 0.1786  plane waves:    2674
 k-point 64 :   0.4643 0.4643 0.1786  plane waves:    2681
 k-point 65 :   0.2500 0.2500 0.2500  plane waves:    2698
 k-point 66 :   0.3214 0.2500 0.2500  plane waves:    2683
 k-point 67 :   0.3929 0.2500 0.2500  plane waves:    2681
 k-point 68 :   0.4643 0.2500 0.2500  plane waves:    2680
 k-point 69 :   0.3214 0.3214 0.2500  plane waves:    2680
 k-point 70 :   0.3929 0.3214 0.2500  plane waves:    2689
 k-point 71 :   0.4643 0.3214 0.2500  plane waves:    2673
 k-point 72 :   0.3929 0.3929 0.2500  plane waves:    2678
 k-point 73 :   0.4643 0.3929 0.2500  plane waves:    2674
 k-point 74 :   0.4643 0.4643 0.2500  plane waves:    2671
 k-point 75 :   0.3214 0.3214 0.3214  plane waves:    2680
 k-point 76 :   0.3929 0.3214 0.3214  plane waves:    2679
 k-point 77 :   0.4643 0.3214 0.3214  plane waves:    2667
 k-point 78 :   0.3929 0.3929 0.3214  plane waves:    2675
 k-point 79 :   0.4643 0.3929 0.3214  plane waves:    2667
 k-point 80 :   0.4643 0.4643 0.3214  plane waves:    2673
 k-point 81 :   0.3929 0.3929 0.3929  plane waves:    2662
 k-point 82 :   0.4643 0.3929 0.3929  plane waves:    2664
 k-point 83 :   0.4643 0.4643 0.3929  plane waves:    2667
 k-point 84 :   0.4643 0.4643 0.4643  plane waves:    2674

 maximum and minimum number of plane-waves per node :      2700     2662

 maximum number of plane-waves:      2700
 maximum index in each direction: 
   IXMAX=    8   IYMAX=    8   IZMAX=    8
   IXMIN=   -9   IYMIN=   -9   IZMIN=   -9


 serial   3D FFT for wavefunctions
 parallel 3D FFT for charge:
    minimum data exchange during FFTs selected (reduces bandwidth)


 total amount of memory used by VASP MPI-rank0    51710. kBytes
=======================================================================

   base      :      30000. kBytes
   nonl-proj :      14926. kBytes
   fftplans  :        905. kBytes
   grid      :       2114. kBytes
   one-center:         24. kBytes
   wavefun   :       3741. kBytes
 
     INWAV:  cpu time    0.0000: real time    0.0002
 Broyden mixing: mesh for mixing (old mesh)
   NGX = 17   NGY = 17   NGZ = 17
  (NGX  = 48   NGY  = 48   NGZ  = 48)
  gives a total of   4913 points

 initial charge density was supplied:
 charge density of overlapping atoms calculated
 number of electron      32.0000000 magnetization 
 keeping initial charge density in first step


--------------------------------------------------------------------------------------------------------


 Maximum index for augmentation-charges          749 (set IRDMAX)


--------------------------------------------------------------------------------------------------------


 First call to EWALD:  gamma=   0.496
 Maximum number of real-space cells 3x 3x 3
 Maximum number of reciprocal cells 3x 3x 3

    FEWALD:  cpu time    0.0020: real time    0.0067


--------------------------------------- Iteration      1(   1)  ---------------------------------------


    POTLOK:  cpu time    0.0160: real time    0.0408
    SETDIJ:  cpu time    0.0190: real time    0.0293
     EDDAV:  cpu time    1.3508: real time    1.4851
       DOS:  cpu time    0.0040: real time    0.0176
    --------------------------------------------
      LOOP:  cpu time    1.3898: real time    1.5733

 eigenvalue-minimisations  :  4032
 total energy-change (2. order) : 0.1014749E+03  (-0.2597841E+04)
 number of electron      32.0000000 magnetization 
 augmentation part       32.0000000 magnetization 

 Free energy of the ion-electron system (eV)
  ---------------------------------------------------
  alpha Z        PSCENC =        76.87855859
  Ewald energy   TEWEN  =     -1389.18538594
  -Hartree energ DENC   =       -70.48055929
  -exchange      EXHF   =         0.00000000
  -V(xc)+E(xc)   XCENC  =        62.04312116
  PAW double counting   =       914.77613359     -872.73161751
  entropy T*S    EENTRO =        -0.00129050
  eigenvalues    EBANDS =       202.96315068
  atomic energy  EATOM  =      1177.21277265
  Solvation  Ediel_sol  =         0.00000000
  ---------------------------------------------------
  free energy    TOTEN  =       101.47488344 eV

  energy without entropy =      101.47617394  energy(sigma->0) =      101.47552869


--------------------------------------------------------------------------------------------------------




--------------------------------------- Iteration      1(   2)  ---------------------------------------


     EDDAV:  cpu time    2.2857: real time    2.3669
       DOS:  cpu time    0.0010: real time    0.0006
    --------------------------------------------
      LOOP:  cpu time    2.2867: real time    2.3672

 eigenvalue-minimisations  :  6480
 total energy-change (2. order) :-0.1739583E+03  (-0.1706543E+03)
 number of electron      32.0000000 magnetization 
 augmentation part       32.0000000 magnetization 

 Free energy of the ion-electron system (eV)
  ---------------------------------------------------
  alpha Z        PSCENC =        76.87855859
  Ewald energy   TEWEN  =     -1389.18538594
  -Hartree energ DENC   =       -70.48055929
  -exchange      EXHF   =         0.00000000
  -V(xc)+E(xc)   XCENC  =        62.04312116
  PAW double counting   =       914.77613359     -872.73161751
  entropy T*S    EENTRO =        -0.00000000
  eigenvalues    EBANDS =        29.00355734
  atomic energy  EATOM  =      1177.21277265
  Solvation  Ediel_sol  =         0.00000000
  ---------------------------------------------------
  free energy    TOTEN  =       -72.48341941 eV

  energy without entropy =      -72.48341941  energy(sigma->0) =      -72.48341941


--------------------------------------------------------------------------------------------------------




--------------------------------------- Iteration      1(   3)  ---------------------------------------


     EDDAV:  cpu time    1.7097: real time    1.7239
       DOS:  cpu time    0.0000: real time    0.0006
    --------------------------------------------
      LOOP:  cpu time    1.7097: real time    1.7246

 eigenvalue-minimisations  :  4920
 total energy-change (2. order) :-0.2782906E+01  (-0.2782906E+01)
 number of electron      32.0000000 magnetization 
 augmentation part       32.0000000 magnetization 

 Free energy of the ion-electron system (eV)
  ---------------------------------------------------
  alpha Z        PSCENC =        76.87855859
  Ewald energy   TEWEN  =     -1389.18538594
  -Hartree energ DENC   =       -70.48055929
  -exchange      EXHF   =         0.00000000
  -V(xc)+E(xc)   XCENC  =        62.04312116
  PAW double counting   =       914.77613359     -872.73161751
  entropy T*S    EENTRO =        -0.00000000
  eigenvalues    EBANDS =        26.22065132
  atomic energy  EATOM  =      1177.21277265
  Solvation  Ediel_sol  =         0.00000000
  ---------------------------------------------------
  free energy    TOTEN  =       -75.26632543 eV

  energy without entropy =      -75.26632543  energy(sigma->0) =      -75.26632543


--------------------------------------------------------------------------------------------------------




--------------------------------------- Iteration      1(   4)  ---------------------------------------


     EDDAV:  cpu time    2.7336: real time    2.7524
       DOS:  cpu time    0.0000: real time    0.0006
    --------------------------------------------
      LOOP:  cpu time    2.7336: real time    2.7530

 eigenvalue-minimisations  :  7272
 total energy-change (2. order) :-0.1710026E-01  (-0.1710026E-01)
 number of electron      32.0000000 magnetization 
 augmentation part       32.0000000 magnetization 

 Free energy of the ion-electron system (eV)
  ---------------------------------------------------
  alpha Z        PSCENC =        76.87855859
  Ewald energy   TEWEN  =     -1389.18538594
  -Hartree energ DENC   =       -70.48055929
  -exchange      EXHF   =         0.00000000
  -V(xc)+E(xc)   XCENC  =        62.04312116
  PAW double counting   =       914.77613359     -872.73161751
  entropy T*S    EENTRO =        -0.00000000
  eigenvalues    EBANDS =        26.20355105
  atomic energy  EATOM  =      1177.21277265
  Solvation  Ediel_sol  =         0.00000000
  ---------------------------------------------------
  free energy    TOTEN  =       -75.28342569 eV

  energy without entropy =      -75.28342569  energy(sigma->0) =      -75.28342569


--------------------------------------------------------------------------------------------------------




--------------------------------------- Iteration      1(   5)  ---------------------------------------


     EDDAV:  cpu time    1.6877: real time    1.7008
       DOS:  cpu time    0.0010: real time    0.0006
    CHARGE:  cpu time    0.0800: real time    0.1097
    MIXING:  cpu time    0.0030: real time    0.0142
    --------------------------------------------
      LOOP:  cpu time    1.7727: real time    1.8254

 eigenvalue-minimisations  :  4848
 total energy-change (2. order) :-0.2902869E-05  (-0.2902870E-05)
 number of electron      32.0000000 magnetization 
 augmentation part       -0.0694838 magnetization 

 Broyden mixing:
  rms(total) = 0.16511E+01    rms(broyden)= 0.16511E+01
  rms(prec ) = 0.26178E+01
  weight for this iteration     100.00

 Free energy of the ion-electron system (eV)
  ---------------------------------------------------
  alpha Z        PSCENC =        76.87855859
  Ewald energy   TEWEN  =     -1389.18538594
  -Hartree energ DENC   =       -70.48055929
  -exchange      EXHF   =         0.00000000
  -V(xc)+E(xc)   XCENC  =        62.04312116
  PAW double counting   =       914.77613359     -872.73161751
  entropy T*S    EENTRO =        -0.00000000
  eigenvalues    EBANDS =        26.20354815
  atomic energy  EATOM  =      1177.21277265
  Solvation  Ediel_sol  =         0.00000000
  ---------------------------------------------------
  free energy    TOTEN  =       -75.28342859 eV

  energy without entropy =      -75.28342859  energy(sigma->0) =      -75.28342859


--------------------------------------------------------------------------------------------------------




--------------------------------------- Iteration      1(   6)  ---------------------------------------


    POTLOK:  cpu time    0.0060: real time    0.0144
    SETDIJ:  cpu time    0.0030: real time    0.0035
     EDDAV:  cpu time    1.6088: real time    1.6136
       DOS:  cpu time    0.0010: real time    0.0007
    CHARGE:  cpu time    0.0730: real time    0.0735
    MIXING:  cpu time    0.0030: real time    0.0311
    --------------------------------------------
      LOOP:  cpu time    1.6937: real time    1.7367

 eigenvalue-minimisations  :  4752
 total energy-change (2. order) : 0.1825700E+01  (-0.1375698E+00)
 number of electron      32.0000000 magnetization 
 augmentation part       -0.0721957 magnetization 

 Broyden mixing:
  rms(total) = 0.10841E+01    rms(broyden)= 0.10841E+01
  rms(prec ) = 0.15429E+01
  weight for this iteration     100.00

 eigenvalues of (default mixing * dielectric matrix)
  average eigenvalue GAMMA=   2.7422
  2.7422

 Free energy of the ion-electron system (eV)
  ---------------------------------------------------
  alpha Z        PSCENC =        76.87855859
  Ewald energy   TEWEN  =     -1389.18538594
  -Hartree energ DENC   =       -85.63345142
  -exchange      EXHF   =         0.00000000
  -V(xc)+E(xc)   XCENC  =        63.29627189
  PAW double counting   =      3695.97032222    -3654.28331380
  entropy T*S    EENTRO =        -0.00000000
  eigenvalues    EBANDS =        42.28649691
  atomic energy  EATOM  =      1177.21277265
  Solvation  Ediel_sol  =         0.00000000
  ---------------------------------------------------
  free energy    TOTEN  =       -73.45772889 eV

  energy without entropy =      -73.45772889  energy(sigma->0) =      -73.45772889


--------------------------------------------------------------------------------------------------------




--------------------------------------- Iteration      1(   7)  ---------------------------------------


    POTLOK:  cpu time    0.0050: real time    0.0130
    SETDIJ:  cpu time    0.0040: real time    0.0035
     EDDAV:  cpu time    1.9917: real time    1.9977
       DOS:  cpu time    0.0010: real time    0.0007
    CHARGE:  cpu time    0.0730: real time    0.0734
    MIXING:  cpu time    0.0020: real time    0.0099
    --------------------------------------------
      LOOP:  cpu time    2.0767: real time    2.0982

 eigenvalue-minimisations  :  5712
 total energy-change (2. order) : 0.6113247E+00  (-0.1785551E+00)
 number of electron      32.0000000 magnetization 
 augmentation part       -0.0758090 magnetization 

 Broyden mixing:
  rms(total) = 0.22885E+00    rms(broyden)= 0.22885E+00
  rms(prec ) = 0.25376E+00
  weight for this iteration     100.00

 eigenvalues of (default mixing * dielectric matrix)
  average eigenvalue GAMMA=   2.1766
  1.9342  2.4190

 Free energy of the ion-electron system (eV)
  ---------------------------------------------------
  alpha Z        PSCENC =        76.87855859
  Ewald energy   TEWEN  =     -1389.18538594
  -Hartree energ DENC   =      -106.64475501
  -exchange      EXHF   =         0.00000000
  -V(xc)+E(xc)   XCENC  =        65.11934406
  PAW double counting   =     12321.17212447   -12279.77049685
  entropy T*S    EENTRO =        -0.00000000
  eigenvalues    EBANDS =        62.37143388
  atomic energy  EATOM  =      1177.21277265
  Solvation  Ediel_sol  =         0.00000000
  ---------------------------------------------------
  free energy    TOTEN  =       -72.84640416 eV

  energy without entropy =      -72.84640416  energy(sigma->0) =      -72.84640416


--------------------------------------------------------------------------------------------------------




--------------------------------------- Iteration      1(   8)  ---------------------------------------


    POTLOK:  cpu time    0.0050: real time    0.0185
    SETDIJ:  cpu time    0.0040: real time    0.0035
     EDDAV:  cpu time    2.4796: real time    2.4848
       DOS:  cpu time    0.0010: real time    0.0007
    CHARGE:  cpu time    0.0730: real time    0.0735
    MIXING:  cpu time    0.0010: real time    0.0039
    --------------------------------------------
      LOOP:  cpu time    2.5636: real time    2.5849

 eigenvalue-minimisations  :  6744
 total energy-change (2. order) : 0.1599832E-02  (-0.2450560E-02)
 number of electron      32.0000000 magnetization 
 augmentation part       -0.0756813 magnetization 

 Broyden mixing:
  rms(total) = 0.11974E-01    rms(broyden)= 0.11974E-01
  rms(prec ) = 0.19369E-01
  weight for this iteration     100.00

 eigenvalues of (default mixing * dielectric matrix)
  average eigenvalue GAMMA=   2.0176
  1.5244  2.2642  2.2642

 Free energy of the ion-electron system (eV)
  ---------------------------------------------------
  alpha Z        PSCENC =        76.87855859
  Ewald energy   TEWEN  =     -1389.18538594
  -Hartree energ DENC   =      -105.67292706
  -exchange      EXHF   =         0.00000000
  -V(xc)+E(xc)   XCENC  =        65.07442304
  PAW double counting   =     14586.03659455   -14544.51968448
  entropy T*S    EENTRO =        -0.00000000
  eigenvalues    EBANDS =        61.33084431
  atomic energy  EATOM  =      1177.21277265
  Solvation  Ediel_sol  =         0.00000000
  ---------------------------------------------------
  free energy    TOTEN  =       -72.84480433 eV

  energy without entropy =      -72.84480433  energy(sigma->0) =      -72.84480433


--------------------------------------------------------------------------------------------------------




--------------------------------------- Iteration      1(   9)  ---------------------------------------


    POTLOK:  cpu time    0.0160: real time    0.0165
    SETDIJ:  cpu time    0.0030: real time    0.0035
     EDDAV:  cpu time    1.9817: real time    1.9865
       DOS:  cpu time    0.0000: real time    0.0006
    CHARGE:  cpu time    0.0740: real time    0.0735
    MIXING:  cpu time    0.0000: real time    0.0005
    --------------------------------------------
      LOOP:  cpu time    2.0757: real time    2.0811

 eigenvalue-minimisations  :  5544
 total energy-change (2. order) :-0.1768039E-03  (-0.4485707E-04)
 number of electron      32.0000000 magnetization 
 augmentation part       -0.0755824 magnetization 

 Broyden mixing:
  rms(total) = 0.61468E-02    rms(broyden)= 0.61468E-02
  rms(prec ) = 0.94171E-02
  weight for this iteration     100.00

 eigenvalues of (default mixing * dielectric matrix)
  average eigenvalue GAMMA=   1.9753
  0.9814  2.0231  2.4484  2.4484

 Free energy of the ion-electron system (eV)
  ---------------------------------------------------
  alpha Z        PSCENC =        76.87855859
  Ewald energy   TEWEN  =     -1389.18538594
  -Hartree energ DENC   =      -105.48240169
  -exchange      EXHF   =         0.00000000
  -V(xc)+E(xc)   XCENC  =        65.05904868
  PAW double counting   =     14520.50365491   -14478.97692797
  entropy T*S    EENTRO =        -0.00000000
  eigenvalues    EBANDS =        61.14569964
  atomic energy  EATOM  =      1177.21277265
  Solvation  Ediel_sol  =         0.00000000
  ---------------------------------------------------
  free energy    TOTEN  =       -72.84498113 eV

  energy without entropy =      -72.84498113  energy(sigma->0) =      -72.84498113


--------------------------------------------------------------------------------------------------------




--------------------------------------- Iteration      1(  10)  ---------------------------------------


    POTLOK:  cpu time    0.0060: real time    0.0139
    SETDIJ:  cpu time    0.0040: real time    0.0036
     EDDAV:  cpu time    2.3876: real time    2.3932
       DOS:  cpu time    0.0010: real time    0.0007
    CHARGE:  cpu time    0.0730: real time    0.0735
    MIXING:  cpu time    0.0010: real time    0.0005
    --------------------------------------------
      LOOP:  cpu time    2.4716: real time    2.4853

 eigenvalue-minimisations  :  6480
 total energy-change (2. order) :-0.1234682E-03  (-0.1172539E-04)
 number of electron      32.0000000 magnetization 
 augmentation part       -0.0755500 magnetization 

 Broyden mixing:
  rms(total) = 0.47489E-03    rms(broyden)= 0.47481E-03
  rms(prec ) = 0.79826E-03
  weight for this iteration     100.00

 eigenvalues of (default mixing * dielectric matrix)
  average eigenvalue GAMMA=   1.9249
  1.0286  2.8214  2.4172  1.3458  2.0115

 Free energy of the ion-electron system (eV)
  ---------------------------------------------------
  alpha Z        PSCENC =        76.87855859
  Ewald energy   TEWEN  =     -1389.18538594
  -Hartree energ DENC   =      -105.57090819
  -exchange      EXHF   =         0.00000000
  -V(xc)+E(xc)   XCENC  =        65.06623418
  PAW double counting   =     14453.72486345   -14412.19576711
  entropy T*S    EENTRO =        -0.00000000
  eigenvalues    EBANDS =        61.22452777
  atomic energy  EATOM  =      1177.21277265
  Solvation  Ediel_sol  =         0.00000000
  ---------------------------------------------------
  free energy    TOTEN  =       -72.84510460 eV

  energy without entropy =      -72.84510460  energy(sigma->0) =      -72.84510460


--------------------------------------------------------------------------------------------------------




--------------------------------------- Iteration      1(  11)  ---------------------------------------


    POTLOK:  cpu time    0.0060: real time    0.0195
    SETDIJ:  cpu time    0.0040: real time    0.0036
     EDDAV:  cpu time    2.2807: real time    2.2855
       DOS:  cpu time    0.0010: real time    0.0007
    CHARGE:  cpu time    0.0740: real time    0.0735
    MIXING:  cpu time    0.0000: real time    0.0006
    --------------------------------------------
      LOOP:  cpu time    2.3656: real time    2.3833

 eigenvalue-minimisations  :  6240
 total energy-change (2. order) :-0.1103504E-05  (-0.1600779E-06)
 number of electron      32.0000000 magnetization 
 augmentation part       -0.0755478 magnetization 

 Broyden mixing:
  rms(total) = 0.29142E-03    rms(broyden)= 0.29141E-03
  rms(prec ) = 0.33112E-03
  weight for this iteration     100.00

 eigenvalues of (default mixing * dielectric matrix)
  average eigenvalue GAMMA=   2.0019
  2.9085  2.6147  2.4173  2.0604  1.0052  1.0052

 Free energy of the ion-electron system (eV)
  ---------------------------------------------------
  alpha Z        PSCENC =        76.87855859
  Ewald energy   TEWEN  =     -1389.18538594
  -Hartree energ DENC   =      -105.57919037
  -exchange      EXHF   =         0.00000000
  -V(xc)+E(xc)   XCENC  =        65.06695661
  PAW double counting   =     14452.98918720   -14411.45990531
  entropy T*S    EENTRO =        -0.00000000
  eigenvalues    EBANDS =        61.23190086
  atomic energy  EATOM  =      1177.21277265
  Solvation  Ediel_sol  =         0.00000000
  ---------------------------------------------------
  free energy    TOTEN  =       -72.84510570 eV

  energy without entropy =      -72.84510570  energy(sigma->0) =      -72.84510570


--------------------------------------------------------------------------------------------------------




--------------------------------------- Iteration      1(  12)  ---------------------------------------


    POTLOK:  cpu time    0.0070: real time    0.0204
    SETDIJ:  cpu time    0.0030: real time    0.0036
     EDDAV:  cpu time    2.2837: real time    2.2887
       DOS:  cpu time    0.0000: real time    0.0006
    CHARGE:  cpu time    0.0740: real time    0.0736
    MIXING:  cpu time    0.0010: real time    0.0006
    --------------------------------------------
      LOOP:  cpu time    2.3686: real time    2.3875

 eigenvalue-minimisations  :  6216
 total energy-change (2. order) :-0.3490186E-06  (-0.6796099E-08)
 number of electron      32.0000000 magnetization 
 augmentation part       -0.0755485 magnetization 

 Broyden mixing:
  rms(total) = 0.16145E-04    rms(broyden)= 0.16145E-04
  rms(prec ) = 0.16473E-04
  weight for this iteration     100.00

 eigenvalues of (default mixing * dielectric matrix)
  average eigenvalue GAMMA=   1.9323
  2.8629  2.6726  2.4122  2.0513  1.0088  0.9711  1.5470

 Free energy of the ion-electron system (eV)
  ---------------------------------------------------
  alpha Z        PSCENC =        76.87855859
  Ewald energy   TEWEN  =     -1389.18538594
  -Hartree energ DENC   =      -105.58031588
  -exchange      EXHF   =         0.00000000
  -V(xc)+E(xc)   XCENC  =        65.06706783
  PAW double counting   =     14455.20309230   -14413.67391212
  entropy T*S    EENTRO =        -0.00000000
  eigenvalues    EBANDS =        61.23301653
  atomic energy  EATOM  =      1177.21277265
  Solvation  Ediel_sol  =         0.00000000
  ---------------------------------------------------
  free energy    TOTEN  =       -72.84510605 eV

  energy without entropy =      -72.84510605  energy(sigma->0) =      -72.84510605


--------------------------------------------------------------------------------------------------------




--------------------------------------- Iteration      1(  13)  ---------------------------------------


    POTLOK:  cpu time    0.0160: real time    0.0168
    SETDIJ:  cpu time    0.0040: real time    0.0035
     EDDAV:  cpu time    2.2717: real time    2.2775
       DOS:  cpu time    0.0010: real time    0.0007
    --------------------------------------------
      LOOP:  cpu time    2.2927: real time    2.2985

 eigenvalue-minimisations  :  6216
 total energy-change (2. order) :-0.8090865E-08  (-0.1145700E-10)
 number of electron      32.0000000 magnetization 
 augmentation part       -0.0755485 magnetization 

 Free energy of the ion-electron system (eV)
  ---------------------------------------------------
  alpha Z        PSCENC =        76.87855859
  Ewald energy   TEWEN  =     -1389.18538594
  -Hartree energ DENC   =      -105.58027988
  -exchange      EXHF   =         0.00000000
  -V(xc)+E(xc)   XCENC  =        65.06706506
  PAW double counting   =     14455.09534960   -14413.56617187
  entropy T*S    EENTRO =        -0.00000000
  eigenvalues    EBANDS =        61.23298573
  atomic energy  EATOM  =      1177.21277265
  Solvation  Ediel_sol  =         0.00000000
  ---------------------------------------------------
  free energy    TOTEN  =       -72.84510606 eV

  energy without entropy =      -72.84510606  energy(sigma->0) =      -72.84510606


--------------------------------------------------------------------------------------------------------




 average (electrostatic) potential at core
  the test charge radii are     0.5770
  (the norm of the test charge is              1.0000)
       1 -71.6791       2 -71.6791       3 -71.6791       4 -71.6791       5 -71.6791
       6 -71.6791       7 -71.6791       8 -71.6791
 
 
 
 E-fermi :  11.0729     XC(G=0): -13.3493     alpha+bet :-18.5300


 k-point     1 :       0.0357    0.0357    0.0357
  band No.  band energies     occupation 
      1     -10.5106      2.00000
      2      -2.4188      2.00000
      3      -2.4188      2.00000
      4      -2.4188      2.00000
      5      -1.2838      2.00000
      6      -1.2838      2.00000
      7      -1.2838      2.00000
      8       4.4768      2.00000
      9       4.4768      2.00000
     10       4.4768      2.00000
     11       4.6199      2.00000
     12       4.6199      2.00000
     13       4.6199      2.00000
     14      10.5967      2.00000
     15      10.7866      2.00000
     16      10.7866      2.00000
     17      15.5224      0.00000
     18      15.5224      0.00000
     19      15.5224      0.00000
     20      15.9048      0.00000
     21      15.9048      0.00000
     22      15.9048      0.00000
     23      16.5189      0.00000
     24      16.5191      0.00000

 k-point     2 :       0.1071    0.0357    0.0357
  band No.  band energies     occupation 
      1     -10.4168      2.00000
      2      -3.5049      2.00000
      3      -2.3544      2.00000
      4      -2.3544      2.00000
      5      -1.2324      2.00000
      6      -1.2324      2.00000
      7      -0.1125      2.00000
      8       4.1524      2.00000
      9       4.1524      2.00000
     10       4.5557      2.00000
     11       4.5557      2.00000
     12       4.5713      2.00000
     13       4.7112      2.00000
     14      10.1447      2.00000
     15      10.4258      2.00000
     16      10.6710      2.00000
     17      15.2881      0.00000
     18      15.8087      0.00000
     19      15.8087      0.00000
     20      16.3573      0.00000
     21      16.3666      0.00000
     22      16.3666      0.00000
     23      16.4498      0.00000
     24      16.9584      0.00000

 k-point     3 :       0.1786    0.0357    0.0357
  band No.  band energies     occupation 
      1     -10.2294      2.00000
      2      -4.5324      2.00000
      3      -2.2303      2.00000
      4      -2.2303      2.00000
      5      -1.1365      2.00000
      6      -1.1365      2.00000
      7       1.0801      2.00000
      8       3.7120      2.00000
      9       3.7120      2.00000
     10       4.3126      2.00000
     11       4.3126      2.00000
     12       4.7608      2.00000
     13       4.8929      2.00000
     14       9.5139      2.00000
     15       9.8341      2.00000
     16      10.2952      2.00000
     17      15.1405      0.00000
     18      16.3118      0.00000
     19      16.4167      0.00000
     20      16.4167      0.00000
     21      16.9410      0.00000
     22      17.1614      0.00000
     23      17.1614      0.00000
     24      17.7066      0.00000

 k-point     4 :       0.2500    0.0357    0.0357
  band No.  band energies     occupation 
      1      -9.9490      2.00000
      2      -5.4931      2.00000
      3      -2.0570      2.00000
      4      -2.0570      2.00000
      5      -1.0112      2.00000
      6      -1.0112      2.00000
      7       2.2758      2.00000
      8       3.2341      2.00000
      9       3.2341      2.00000
     10       3.9577      2.00000
     11       3.9577      2.00000
     12       5.0457      2.00000
     13       5.1637      2.00000
     14       8.7952      2.00000
     15       9.1398      2.00000
     16       9.7163      2.00000
     17      15.0775      0.00000
     18      16.1258      0.00000
     19      17.3025      0.00000
     20      17.3025      0.00000
     21      17.6560      0.00000
     22      18.1891      0.00000
     23      18.1891      0.00000
     24      18.6343      0.00000

 k-point     5 :       0.3214    0.0357    0.0357
  band No.  band energies     occupation 
      1      -9.5763      2.00000
      2      -6.3806      2.00000
      3      -1.8547      2.00000
      4      -1.8547      2.00000
      5      -0.8820      2.00000
      6      -0.8820      2.00000
      7       2.7951      2.00000
      8       2.7951      2.00000
      9       3.4521      2.00000
     10       3.5716      2.00000
     11       3.5716      2.00000
     12       5.4292      2.00000
     13       5.5211      2.00000
     14       8.0459      2.00000
     15       8.4218      2.00000
     16       8.9876      2.00000
     17      15.0906      0.00000
     18      15.9123      0.00000
     19      18.3913      0.00000
     20      18.3913      0.00000
     21      18.5046      0.00000
     22      19.3676      0.00000
     23      19.3682      0.00000
     24      19.6502      0.00000

 k-point     6 :       0.3929    0.0357    0.0357
  band No.  band energies     occupation 
      1      -9.1124      2.00000
      2      -7.1900      2.00000
      3      -1.6598      2.00000
      4      -1.6598      2.00000
      5      -0.7820      2.00000
      6      -0.7820      2.00000
      7       2.4641      2.00000
      8       2.4641      2.00000
      9       3.2371      2.00000
     10       3.2371      2.00000
     11       4.5786      2.00000
     12       5.9200      2.00000
     13       5.9621      2.00000
     14       7.2881      2.00000
     15       7.7241      2.00000
     16       8.1616      2.00000
     17      15.1703      0.00000
     18      15.6919      0.00000
     19      19.4818      0.00000
     20      19.5980      0.00000
     21      19.5980      0.00000
     22      20.6012      0.00000
     23      20.6540      0.00000
     24      20.7158      0.00000

 k-point     7 :       0.4643    0.0357    0.0357
  band No.  band energies     occupation 
      1      -8.5587      2.00000
      2      -7.9170      2.00000
      3      -1.5314      2.00000
      4      -1.5314      2.00000
      5      -0.7338      2.00000
      6      -0.7338      2.00000
      7       2.2902      2.00000
      8       2.2902      2.00000
      9       3.0369      2.00000
     10       3.0369      2.00000
     11       5.6089      2.00000
     12       6.4813      2.00000
     13       6.4999      2.00000
     14       6.5408      2.00000
     15       7.0721      2.00000
     16       7.3098      2.00000
     17      15.3055      0.00000
     18      15.4842      0.00000
     19      20.5658      0.00000
     20      20.7608      0.00000
     21      20.7608      0.00000
     22      21.5738      0.00000
     23      21.5826      0.00000
     24      21.7009      0.00000

 k-point     8 :       0.1071    0.1071    0.0357
  band No.  band energies     occupation 
      1     -10.3231      2.00000
      2      -3.4315      2.00000
      3      -3.4315      2.00000
      4      -2.2962      2.00000
      5      -1.1849      2.00000
      6      -0.0827      2.00000
      7      -0.0827      2.00000
      8       3.6324      2.00000
      9       4.2552      2.00000
     10       4.2552      2.00000
     11       4.6515      2.00000
     12       4.6515      2.00000
     13       4.7759      2.00000
     14       9.5958      2.00000
     15      10.1487      2.00000
     16      10.6754      2.00000
     17      15.6339      0.00000
     18      15.6339      0.00000
     19      15.7666      0.00000
     20      16.7018      0.00000
     21      16.7559      0.00000
     22      16.7559      0.00000
     23      17.0687      0.00000
     24      17.0759      0.00000

 k-point     9 :       0.1786    0.1071    0.0357
  band No.  band energies     occupation 
      1     -10.1359      2.00000
      2      -4.4530      2.00000
      3      -3.2875      2.00000
      4      -2.1879      2.00000
      5      -1.0966      2.00000
      6      -0.0350      2.00000
      7       1.0748      2.00000
      8       3.0747      2.00000
      9       3.8245      2.00000
     10       4.4265      2.00000
     11       4.4620      2.00000
     12       4.7890      2.00000
     13       4.8446      2.00000
     14       8.9124      2.00000
     15       9.5868      2.00000
     16      10.4592      2.00000
     17      15.5070      0.00000
     18      16.0786      0.00000
     19      16.2959      0.00000
     20      16.6627      0.00000
     21      17.3110      0.00000
     22      17.4886      0.00000
     23      17.7067      0.00000
     24      17.8855      0.00000

 k-point    10 :       0.2500    0.1071    0.0357
  band No.  band energies     occupation 
      1      -9.8559      2.00000
      2      -5.4095      2.00000
      3      -3.0791      2.00000
      4      -2.0503      2.00000
      5      -0.9803      2.00000
      6       0.0052      2.00000
      7       2.2118      2.00000
      8       2.5605      2.00000
      9       3.3531      2.00000
     10       4.1132      2.00000
     11       4.6243      2.00000
     12       4.7753      2.00000
     13       5.1410      2.00000
     14       8.1696      2.00000
     15       8.9120      2.00000
     16       9.9989      2.00000
     17      15.4549      0.00000
     18      16.4957      0.00000
     19      16.7333      0.00000
     20      17.2181      0.00000
     21      18.0037      0.00000
     22      18.4661      0.00000
     23      18.6098      0.00000
     24      18.6605      0.00000

 k-point    11 :       0.3214    0.1071    0.0357
  band No.  band energies     occupation 
      1      -9.4836      2.00000
      2      -6.2942      2.00000
      3      -2.8179      2.00000
      4      -1.9268      2.00000
      5      -0.8467      2.00000
      6      -0.0008      2.00000
      7       2.1713      2.00000
      8       2.9023      2.00000
      9       3.2893      2.00000
     10       3.8108      2.00000
     11       4.3477      2.00000
     12       5.1927      2.00000
     13       5.5583      2.00000
     14       7.4099      2.00000
     15       8.2061      2.00000
     16       9.3490      2.00000
     17      15.4743      0.00000
     18      16.2911      0.00000
     19      17.6602      0.00000
     20      18.3318      0.00000
     21      18.8309      0.00000
     22      19.5615      0.00000
     23      19.5933      0.00000
     24      19.6277      0.00000

 k-point    12 :       0.3929    0.1071    0.0357
  band No.  band energies     occupation 
      1      -9.0203      2.00000
      2      -7.1014      2.00000
      3      -2.5239      2.00000
      4      -1.8903      2.00000
      5      -0.6877      2.00000
      6      -0.0904      2.00000
      7       1.9754      2.00000
      8       2.5082      2.00000
      9       3.6206      2.00000
     10       4.0364      2.00000
     11       4.2637      2.00000
     12       5.6939      2.00000
     13       6.1329      2.00000
     14       6.6536      2.00000
     15       7.5136      2.00000
     16       8.5694      2.00000
     17      15.5572      0.00000
     18      16.0762      0.00000
     19      18.7698      0.00000
     20      19.5579      0.00000
     21      19.7857      0.00000
     22      20.5368      0.00000
     23      20.7022      0.00000
     24      20.7190      0.00000

 k-point    13 :       0.4643    0.1071    0.0357
  band No.  band energies     occupation 
      1      -8.4674      2.00000
      2      -7.8269      2.00000
      3      -2.2323      2.00000
      4      -1.9990      2.00000
[...]
     11       6.0663      2.00000
     12       7.0865      2.00000
     13       7.1947      2.00000
     14       7.1947      2.00000
     15       7.5486      2.00000
     16       8.6652      2.00000
     17      18.1591      0.00000
     18      18.5688      0.00000
     19      18.5688      0.00000
     20      19.0747      0.00000
     21      19.4392      0.00000
     22      19.8529      0.00000
     23      20.3220      0.00000
     24      20.3220      0.00000

 k-point    73 :       0.4643    0.3929    0.2500
  band No.  band energies     occupation 
      1      -6.6873      2.00000
      2      -6.0869      2.00000
      3      -4.9778      2.00000
      4      -4.5261      2.00000
      5      -1.5114      2.00000
      6      -1.0734      2.00000
      7      -0.0050      2.00000
      8       0.5742      2.00000
      9       5.5004      2.00000
     10       5.8056      2.00000
     11       6.6210      2.00000
     12       7.1038      2.00000
     13       7.2905      2.00000
     14       7.3177      2.00000
     15       7.8264      2.00000
     16       8.3528      2.00000
     17      18.5994      0.00000
     18      18.8261      0.00000
     19      19.0465      0.00000
     20      19.0830      0.00000
     21      19.5699      0.00000
     22      19.8422      0.00000
     23      19.8741      0.00000
     24      20.4164      0.00000

 k-point    74 :       0.4643    0.4643    0.2500
  band No.  band energies     occupation 
      1      -6.1758      2.00000
      2      -5.5990      2.00000
      3      -5.5990      2.00000
      4      -5.0645      2.00000
      5      -1.1471      2.00000
      6      -0.6304      2.00000
      7      -0.6304      2.00000
      8      -0.0740      2.00000
      9       5.8969      2.00000
     10       6.2728      2.00000
     11       6.2728      2.00000
     12       6.7035      2.00000
     13       7.6768      2.00000
     14       7.8592      2.00000
     15       7.8592      2.00000
     16       8.2231      2.00000
     17      18.7687      0.00000
     18      19.1185      0.00000
     19      19.1185      0.00000
     20      19.2434      0.00000
     21      19.6287      0.00000
     22      19.7860      0.00000
     23      19.7860      0.00000
     24      20.4172      0.00000

 k-point    75 :       0.3214    0.3214    0.3214
  band No.  band energies     occupation 
      1      -7.7485      2.00000
      2      -4.8011      2.00000
      3      -4.8011      2.00000
      4      -4.8011      2.00000
      5      -0.9410      2.00000
      6      -0.9410      2.00000
      7      -0.9410      2.00000
      8       1.9047      2.00000
      9       5.6338      2.00000
     10       5.6338      2.00000
     11       5.6338      2.00000
     12       6.7775      2.00000
     13       6.7775      2.00000
     14       6.7775      2.00000
     15       8.6146      2.00000
     16       8.6146      2.00000
     17      17.7837      0.00000
     18      17.7837      0.00000
     19      17.7837      0.00000
     20      19.0641      0.00000
     21      19.0641      0.00000
     22      19.3153      0.00000
     23      21.8204      0.00000
     24      21.8205      0.00000

 k-point    76 :       0.3929    0.3214    0.3214
  band No.  band energies     occupation 
      1      -7.3029      2.00000
      2      -5.5084      2.00000
      3      -4.5196      2.00000
      4      -4.5196      2.00000
      5      -1.5257      2.00000
      6      -1.5257      2.00000
      7      -0.5697      2.00000
      8       1.1652      2.00000
      9       5.8295      2.00000
     10       5.8295      2.00000
     11       6.6248      2.00000
     12       6.9735      2.00000
     13       6.9735      2.00000
     14       7.0943      2.00000
     15       8.2315      2.00000
     16       8.5354      2.00000
     17      18.0736      0.00000
     18      18.2281      0.00000
     19      18.2281      0.00000
     20      18.8829      0.00000
     21      19.4642      0.00000
     22      19.5294      0.00000
     23      20.9729      0.00000
     24      20.9730      0.00000

 k-point    77 :       0.4643    0.3214    0.3214
  band No.  band energies     occupation 
      1      -6.7759      2.00000
      2      -6.1739      2.00000
      3      -4.3182      2.00000
      4      -4.3182      2.00000
      5      -1.8807      2.00000
      6      -1.8807      2.00000
      7      -0.0832      2.00000
      8       0.4991      2.00000
      9       5.9328      2.00000
     10       5.9328      2.00000
     11       7.0642      2.00000
     12       7.0642      2.00000
     13       7.4522      2.00000
     14       7.4831      2.00000
     15       7.8370      2.00000
     16       8.1424      2.00000
     17      18.3703      0.00000
     18      18.6476      0.00000
     19      18.8481      0.00000
     20      18.8481      0.00000
     21      19.9523      0.00000
     22      19.9867      0.00000
     23      20.0781      0.00000
     24      20.0781      0.00000

 k-point    78 :       0.3929    0.3929    0.3214
  band No.  band energies     occupation 
      1      -6.8654      2.00000
      2      -5.1456      2.00000
      3      -5.1456      2.00000
      4      -4.4001      2.00000
      5      -1.9641      2.00000
      6      -1.2376      2.00000
      7      -1.2376      2.00000
      8       0.4284      2.00000
      9       6.1668      2.00000
     10       6.6868      2.00000
     11       6.6868      2.00000
     12       7.2870      2.00000
     13       7.3280      2.00000
     14       7.3280      2.00000
     15       8.0494      2.00000
     16       8.4840      2.00000
     17      18.3976      0.00000
     18      18.5004      0.00000
     19      18.5004      0.00000
     20      19.1114      0.00000
     21      19.3767      0.00000
     22      19.5688      0.00000
     23      20.3980      0.00000
     24      20.3980      0.00000

 k-point    79 :       0.4643    0.3929    0.3214
  band No.  band energies     occupation 
      1      -6.3512      2.00000
      2      -5.7710      2.00000
      3      -4.7741      2.00000
      4      -4.4845      2.00000
      5      -2.0438      2.00000
      6      -1.7604      2.00000
      7      -0.7910      2.00000
      8      -0.2285      2.00000
      9       6.4174      2.00000
     10       6.5954      2.00000
     11       7.2915      2.00000
     12       7.4656      2.00000
     13       7.4756      2.00000
     14       7.7079      2.00000
     15       7.8037      2.00000
     16       8.2528      2.00000
     17      18.7715      0.00000
     18      18.7998      0.00000
     19      19.0073      0.00000
     20      19.0326      0.00000
     21      19.5809      0.00000
     22      19.7349      0.00000
     23      19.9239      0.00000
     24      19.9440      0.00000

 k-point    80 :       0.4643    0.4643    0.3214
  band No.  band energies     occupation 
      1      -5.8588      2.00000
      2      -5.3187      2.00000
      3      -5.3187      2.00000
      4      -4.8592      2.00000
      5      -1.8404      2.00000
      6      -1.3920      2.00000
      7      -1.3920      2.00000
      8      -0.8667      2.00000
      9       6.7749      2.00000
     10       7.0607      2.00000
     11       7.0607      2.00000
     12       7.4183      2.00000
     13       7.7829      2.00000
     14       7.9093      2.00000
     15       7.9093      2.00000
     16       8.2003      2.00000
     17      18.9444      0.00000
     18      19.1804      0.00000
     19      19.1804      0.00000
     20      19.3155      0.00000
     21      19.4186      0.00000
     22      19.5643      0.00000
     23      19.5643      0.00000
     24      20.0188      0.00000

 k-point    81 :       0.3929    0.3929    0.3929
  band No.  band energies     occupation 
      1      -6.4396      2.00000
      2      -4.8572      2.00000
      3      -4.8572      2.00000
      4      -4.8572      2.00000
      5      -1.8447      2.00000
      6      -1.8447      2.00000
      7      -1.8447      2.00000
      8      -0.3046      2.00000
      9       7.0422      2.00000
     10       7.0422      2.00000
     11       7.0422      2.00000
     12       7.5188      2.00000
     13       7.5188      2.00000
     14       7.5188      2.00000
     15       8.2664      2.00000
     16       8.2664      2.00000
     17      18.6545      0.00000
     18      18.6545      0.00000
     19      18.6545      0.00000
     20      19.2466      0.00000
     21      19.2466      0.00000
     22      19.5211      0.00000
     23      20.3074      0.00000
     24      20.3074      0.00000

 k-point    82 :       0.4643    0.3929    0.3929
  band No.  band energies     occupation 
      1      -5.9458      2.00000
      2      -5.4038      2.00000
      3      -4.6495      2.00000
      4      -4.6495      2.00000
      5      -2.2133      2.00000
      6      -2.2133      2.00000
      7      -1.4748      2.00000
      8      -0.9467      2.00000
      9       7.1671      2.00000
     10       7.1671      2.00000
     11       7.6803      2.00000
     12       7.6803      2.00000
     13       7.7295      2.00000
     14       7.7692      2.00000
     15       8.0233      2.00000
     16       8.1560      2.00000
     17      18.8999      0.00000
     18      19.0044      0.00000
     19      19.0044      0.00000
     20      19.1016      0.00000
     21      19.4937      0.00000
     22      19.6856      0.00000
     23      19.7469      0.00000
     24      19.7469      0.00000

 k-point    83 :       0.4643    0.4643    0.3929
  band No.  band energies     occupation 
      1      -5.4902      2.00000
      2      -5.0269      2.00000
      3      -5.0269      2.00000
      4      -4.7329      2.00000
      5      -2.2978      2.00000
      6      -2.0090      2.00000
      7      -2.0090      2.00000
      8      -1.5554      2.00000
      9       7.4818      2.00000
     10       7.6478      2.00000
     11       7.6478      2.00000
     12       7.8944      2.00000
     13       7.9037      2.00000
     14       7.9519      2.00000
     15       7.9519      2.00000
     16       8.1566      2.00000
     17      19.1110      0.00000
     18      19.1807      0.00000
     19      19.1807      0.00000
     20      19.2964      0.00000
     21      19.3349      0.00000
     22      19.4962      0.00000
     23      19.4963      0.00000
     24      19.6998      0.00000

 k-point    84 :       0.4643    0.4643    0.4643
  band No.  band energies     occupation 
      1      -5.1115      2.00000
      2      -4.8160      2.00000
      3      -4.8160      2.00000
      4      -4.8160      2.00000
      5      -2.3837      2.00000
      6      -2.3837      2.00000
      7      -2.3837      2.00000
      8      -2.0931      2.00000
      9       7.9411      2.00000
     10       7.9411      2.00000
     11       7.9411      2.00000
     12       7.9998      2.00000
     13       7.9998      2.00000
     14       7.9998      2.00000
     15       8.0892      2.00000
     16       8.0892      2.00000
     17      19.2307      0.00000
     18      19.2307      0.00000
     19      19.2307      0.00000
     20      19.2913      0.00000
     21      19.2913      0.00000
     22      19.4144      0.00000
     23      19.4144      0.00000
     24      19.4144      0.00000


--------------------------------------------------------------------------------------------------------


 soft charge-density along one line, spin component           1
         0         1         2         3         4         5         6         7         8         9
 total charge-density along one line
 
 pseudopotential strength for first ion, spin component:           1
 12.170  20.467  -0.000   0.000  -0.000  -0.000   0.000  -0.000
 20.467  34.420  -0.000   0.000  -0.000  -0.000   0.000  -0.000
 -0.000  -0.000  -2.970   0.000   0.000  -5.307   0.000   0.000
  0.000   0.000   0.000  -2.970   0.000   0.000  -5.307   0.000
 -0.000  -0.000   0.000   0.000  -2.970   0.000   0.000  -5.307
 -0.000  -0.000  -5.307   0.000   0.000  -9.460   0.000   0.000
  0.000   0.000   0.000  -5.307   0.000   0.000  -9.460   0.000
 -0.000  -0.000   0.000   0.000  -5.307   0.000   0.000  -9.460
 total augmentation occupancy for first ion, spin component:           1
  7.186  -2.505   0.000  -0.000  -0.000  -0.000  -0.000  -0.000
 -2.505   0.928   0.000   0.000  -0.000   0.000   0.000  -0.000
 -0.000  -0.000   5.670  -0.000  -0.000  -1.836  -0.000  -0.000
 -0.000   0.000  -0.000   5.670  -0.000   0.000  -1.836   0.000
 -0.000   0.000  -0.000  -0.000   5.670  -0.000  -0.000  -1.836
 -0.000   0.000  -1.836  -0.000  -0.000   0.612  -0.000  -0.000
  0.000   0.000  -0.000  -1.836   0.000  -0.000   0.612  -0.000
  0.000   0.000  -0.000  -0.000  -1.836  -0.000   0.000   0.612


------------------------ aborting loop because EDIFF is reached ----------------------------------------


    CHARGE:  cpu time    0.0740: real time    0.0737
    FORLOC:  cpu time    0.0010: real time    0.0030
    FORNL :  cpu time    0.1970: real time    0.2092
    STRESS:  cpu time    1.2168: real time    1.2287
    FORCOR:  cpu time    0.0050: real time    0.0089
    FORHAR:  cpu time    0.0010: real time    0.0032
    MIXING:  cpu time    0.0000: real time    0.0005
    OFIELD:  cpu time    0.0010: real time    0.0018

  FORCE on cell =-STRESS in cart. coord.  units (eV):
  Direction    XX          YY          ZZ          XY          YZ          ZX
  --------------------------------------------------------------------------------------
  Alpha Z    76.87856    76.87856    76.87856
  Ewald    -463.06259  -463.06259  -463.06259     0.00000     0.00000    -0.00000
  Hartree    35.19344    35.19344    35.19344    -0.00000    -0.00000    -0.00000
  E(xc)    -132.03187  -132.03187  -132.03187    -0.00000     0.00000    -0.00000
  Local    -126.65437  -126.65437  -126.65437    -0.00000     0.00000     0.00000
  n-local    29.07238    28.30106    28.78581     0.58847     0.79373     0.38618
  augment     0.48712     0.48712     0.48712     0.00000    -0.00000    -0.00000
  Kinetic   568.90378   585.97589   585.36154    -5.98635    -7.89890    -4.27200
  Fock        0.00000     0.00000     0.00000     0.00000     0.00000     0.00000
  -------------------------------------------------------------------------------------
  Total      -0.38956    -0.38956    -0.38956     0.00000    -0.00000     0.00000
  in kB     -13.67612   -13.67612   -13.67612     0.00000    -0.00000     0.00000
  external pressure =      -13.68 kB  Pullay stress =        0.00 kB


 VOLUME and BASIS-vectors are now :
 -----------------------------------------------------------------------------
  energy-cutoff  :      875.00
  volume of cell :       45.64
      direct lattice vectors                 reciprocal lattice vectors
     3.573605071  0.000000000  0.000000000     0.279829466  0.000000000  0.000000000
     0.000000000  3.573605071  0.000000000     0.000000000  0.279829466  0.000000000
     0.000000000  0.000000000  3.573605071     0.000000000  0.000000000  0.279829466

  length of vectors
     3.573605071  3.573605071  3.573605071     0.279829466  0.279829466  0.279829466


 FORCES acting on ions
    electron-ion (+dipol)            ewald-force                    non-local-force                 convergence-correction
 -----------------------------------------------------------------------------------------------
   -.696E-14 0.212E-12 -.481E-13   -.711E-14 0.711E-14 0.711E-14   0.867E-17 -.147E-16 0.286E-16   0.180E-14 0.101E-14 0.217E-13
   0.139E-13 0.824E-15 -.619E-13   -.144E-13 0.130E-13 0.284E-13   -.520E-16 -.607E-16 -.104E-16   0.466E-14 0.563E-14 0.858E-14
   -.129E-13 0.248E-12 -.320E-13   -.711E-14 0.000E+00 0.000E+00   0.555E-16 0.139E-16 -.269E-16   0.186E-14 0.180E-14 0.224E-13
   0.114E-13 0.291E-13 -.327E-13   -.154E-13 0.715E-14 0.220E-13   -.243E-16 -.399E-16 -.113E-16   0.516E-14 0.614E-14 0.101E-13
   0.239E-13 -.188E-12 -.401E-12   0.711E-14 -.711E-14 -.213E-13   0.173E-16 0.850E-16 0.147E-16   -.667E-14 0.962E-15 0.215E-13
   0.512E-13 0.547E-16 -.787E-12   0.714E-14 0.459E-15 0.646E-15   -.520E-16 0.468E-16 0.304E-16   0.402E-14 0.611E-14 0.986E-14
   0.219E-13 -.530E-12 -.734E-13   0.711E-14 -.142E-13 -.284E-13   0.503E-16 0.338E-16 -.867E-18   -.623E-14 0.283E-14 0.215E-13
   0.691E-13 -.370E-12 -.465E-12   0.714E-14 -.708E-14 -.719E-14   0.347E-17 -.173E-17 -.382E-16   0.321E-14 0.633E-14 0.775E-14
 -----------------------------------------------------------------------------------------------
   0.171E-12 -.598E-12 -.190E-11   -.155E-13 -.710E-15 0.119E-14   0.694E-17 0.625E-16 -.139E-16   0.782E-14 0.308E-13 0.123E-12
 
 
 POSITION                                       TOTAL-FORCE (eV/Angst)
 -----------------------------------------------------------------------------------
      0.89340      0.89340      0.89340        -0.000000      0.000000     -0.000000
      0.00000      0.00000      0.00000         0.000000     -0.000000     -0.000000
      0.89340      2.68020      2.68020         0.000000     -0.000000      0.000000
      0.00000      1.78680      1.78680        -0.000000      0.000000     -0.000000
      2.68020      0.89340      2.68020         0.000000     -0.000000      0.000000
      1.78680      0.00000      1.78680        -0.000000      0.000000     -0.000000
      2.68020      2.68020      0.89340        -0.000000      0.000000      0.000000
      1.78680      1.78680      0.00000         0.000000     -0.000000      0.000000
 -----------------------------------------------------------------------------------
    total drift:                                0.000000     -0.000000     -0.000000


--------------------------------------------------------------------------------------------------------



  FREE ENERGIE OF THE ION-ELECTRON SYSTEM (eV)
  ---------------------------------------------------
  free  energy   TOTEN  =       -72.84510606 eV

  energy  without entropy=      -72.84510606  energy(sigma->0) =      -72.84510606
 


--------------------------------------------------------------------------------------------------------


    POTLOK:  cpu time    0.0130: real time    0.0166


--------------------------------------------------------------------------------------------------------


 stress matrix after NEB project (eV)
     -0.38956      0.00000      0.00000
      0.00000     -0.38956     -0.00000
     -0.00000     -0.00000     -0.38956
  FORCES: max atom, RMS     0.000000    0.000000
  FORCE total and by dimension    0.000000    0.000000
  Stress total and by dimension    0.674734    0.389558


--------------------------------------------------------------------------------------------------------


  
 reached required accuracy - stopping structural energy minimisation
     LOOP+:  cpu time   29.4045: real time   29.9801
    4ORBIT:  cpu time    0.0000: real time    0.0000

 total amount of memory used by VASP MPI-rank0    51710. kBytes
=======================================================================

   base      :      30000. kBytes
   nonl-proj :      14926. kBytes
   fftplans  :        905. kBytes
   grid      :       2114. kBytes
   one-center:         24. kBytes
   wavefun   :       3741. kBytes
 
  
  
 General timing and accounting informations for this job:
 ========================================================
  
                  Total CPU time used (sec):       31.862
                            User time (sec):       30.879
                          System time (sec):        0.983
                         Elapsed time (sec):       33.732
  
                   Maximum memory used (kb):      127044.
                   Average memory used (kb):           0.
  
                          Minor page faults:        31798
                          Major page faults:          387
                 Voluntary context switches:         9179
