   8   8   0   0
  0.5704468E+01  0.3573645E-09  0.3573645E-09  0.3573645E-09  0.5000000E-15
  1.000000000000000E-004
  CAR 
 unknown system                          
     24.35315076    -12.17125317  301     11.09022658      1.00000000
    -12.171  0.0000E+00  0.0000E+00
    -12.050  0.0000E+00  0.0000E+00
    -11.928  0.0000E+00  0.0000E+00
    -11.806  0.0000E+00  0.0000E+00
    -11.684  0.0000E+00  0.0000E+00
    -11.563  0.0000E+00  0.0000E+00
    -11.441  0.0000E+00  0.0000E+00
    -11.319  0.0000E+00  0.0000E+00
    -11.197  0.0000E+00  0.0000E+00
    -11.076  0.0000E+00  0.0000E+00
    -10.954  0.0000E+00  0.0000E+00
    -10.832  0.0000E+00  0.0000E+00
    -10.710  0.4082E-11  0.4970E-12
    -10.589  0.6726E-05  0.8188E-06
    -10.467  0.5365E-03  0.6613E-04
    -10.345  0.1733E-02  0.2771E-03
    -10.223  0.2190E-02  0.5437E-03
    -10.102  0.3275E-02  0.9425E-03
     -9.980  0.2347E-02  0.1228E-02
     -9.858  0.4422E-02  0.1767E-02
     -9.736  0.3471E-02  0.2189E-02
     -9.615  0.4004E-02  0.2677E-02
     -9.493  0.5001E-02  0.3285E-02
     -9.371  0.4928E-02  0.3885E-02
     -9.249  0.5415E-02  0.4545E-02
     -9.128  0.3880E-02  0.5017E-02
     -9.006  0.6747E-02  0.5838E-02
     -8.884  0.6503E-02  0.6630E-02
     -8.762  0.5332E-02  0.7279E-02
     -8.641  0.4933E-02  0.7880E-02
     -8.519  0.7365E-02  0.8777E-02
     -8.397  0.8136E-02  0.9767E-02
     -8.275  0.5836E-02  0.1048E-01
     -8.154  0.7568E-02  0.1140E-01
     -8.032  0.6354E-02  0.1217E-01
     -7.910  0.8511E-02  0.1321E-01
     -7.788  0.5898E-02  0.1393E-01
     -7.667  0.9439E-02  0.1508E-01
     -7.545  0.1032E-01  0.1633E-01
     -7.423  0.5602E-02  0.1701E-01
     -7.301  0.8135E-02  0.1800E-01
     -7.180  0.7293E-02  0.1889E-01
     -7.058  0.1214E-01  0.2037E-01
     -6.936  0.8980E-02  0.2146E-01
     -6.814  0.9390E-02  0.2261E-01
     -6.693  0.7676E-02  0.2354E-01
     -6.571  0.1052E-01  0.2482E-01
     -6.449  0.8745E-02  0.2589E-01
     -6.327  0.1086E-01  0.2721E-01
     -6.206  0.1027E-01  0.2846E-01
     -6.084  0.1106E-01  0.2981E-01
     -5.962  0.1068E-01  0.3111E-01
     -5.840  0.1185E-01  0.3255E-01
     -5.719  0.1200E-01  0.3401E-01
     -5.597  0.7174E-02  0.3488E-01
     -5.475  0.1047E-01  0.3616E-01
     -5.353  0.1608E-01  0.3812E-01
     -5.232  0.1267E-01  0.3966E-01
     -5.110  0.1265E-01  0.4120E-01
     -4.988  0.1397E-01  0.4290E-01
     -4.866  0.1213E-01  0.4437E-01
     -4.745  0.1377E-01  0.4605E-01
     -4.623  0.1561E-01  0.4795E-01
     -4.501  0.1733E-01  0.5006E-01
     -4.379  0.1292E-01  0.5164E-01
     -4.258  0.1318E-01  0.5324E-01
     -4.136  0.1545E-01  0.5512E-01
     -4.014  0.1822E-01  0.5734E-01
     -3.892  0.9688E-02  0.5852E-01
     -3.771  0.1177E-01  0.5995E-01
     -3.649  0.1052E-01  0.6123E-01
     -3.527  0.1070E-01  0.6254E-01
     -3.405  0.1643E-01  0.6454E-01
     -3.284  0.1238E-01  0.6604E-01
     -3.162  0.8232E-02  0.6705E-01
     -3.040  0.1127E-01  0.6842E-01
     -2.918  0.1099E-01  0.6976E-01
     -2.797  0.1209E-01  0.7123E-01
     -2.675  0.8634E-02  0.7228E-01
     -2.553  0.6238E-02  0.7304E-01
     -2.431  0.6486E-02  0.7383E-01
     -2.310  0.1008E-01  0.7506E-01
     -2.188  0.1307E-01  0.7665E-01
     -2.066  0.1284E-01  0.7821E-01
     -1.944  0.1462E-01  0.7999E-01
     -1.823  0.1085E-01  0.8131E-01
     -1.701  0.7318E-02  0.8220E-01
     -1.579  0.7536E-02  0.8312E-01
     -1.457  0.1132E-01  0.8450E-01
     -1.336  0.8589E-02  0.8554E-01
     -1.214  0.9418E-02  0.8669E-01
     -1.092  0.1725E-01  0.8879E-01
     -0.970  0.1793E-01  0.9097E-01
     -0.849  0.1675E-01  0.9301E-01
     -0.727  0.2372E-01  0.9590E-01
     -0.605  0.2159E-01  0.9853E-01
     -0.483  0.2293E-01  0.1013E+00
     -0.362  0.1396E-01  0.1030E+00
     -0.240  0.2107E-01  0.1056E+00
     -0.118  0.2263E-01  0.1083E+00
      0.004  0.2615E-01  0.1115E+00
      0.125  0.1590E-01  0.1135E+00
      0.247  0.1395E-01  0.1152E+00
      0.369  0.8874E-02  0.1162E+00
      0.491  0.1110E-01  0.1176E+00
      0.612  0.1415E-01  0.1193E+00
      0.734  0.1118E-01  0.1207E+00
      0.856  0.1161E-01  0.1221E+00
      0.978  0.1405E-01  0.1238E+00
      1.099  0.1626E-01  0.1258E+00
      1.221  0.8526E-02  0.1268E+00
      1.343  0.8568E-02  0.1279E+00
      1.465  0.1261E-01  0.1294E+00
      1.586  0.1139E-01  0.1308E+00
      1.708  0.1025E-01  0.1320E+00
      1.830  0.1515E-01  0.1339E+00
      1.952  0.1545E-01  0.1358E+00
      2.073  0.2355E-01  0.1386E+00
      2.195  0.1519E-01  0.1405E+00
      2.317  0.2518E-01  0.1435E+00
      2.439  0.1948E-01  0.1459E+00
      2.560  0.2608E-01  0.1491E+00
      2.682  0.1903E-01  0.1514E+00
      2.804  0.1606E-01  0.1534E+00
      2.926  0.1420E-01  0.1551E+00
      3.047  0.1922E-01  0.1574E+00
      3.169  0.3075E-01  0.1612E+00
      3.291  0.2916E-01  0.1647E+00
      3.412  0.1269E-01  0.1663E+00
      3.534  0.1771E-01  0.1684E+00
      3.656  0.2225E-01  0.1711E+00
      3.778  0.2360E-01  0.1740E+00
      3.899  0.2703E-01  0.1773E+00
      4.021  0.2430E-01  0.1802E+00
      4.143  0.2334E-01  0.1831E+00
      4.265  0.1807E-01  0.1853E+00
      4.386  0.2954E-01  0.1889E+00
      4.508  0.3390E-01  0.1930E+00
      4.630  0.3202E-01  0.1969E+00
      4.752  0.2894E-01  0.2004E+00
      4.873  0.2899E-01  0.2040E+00
      4.995  0.2778E-01  0.2073E+00
      5.117  0.2782E-01  0.2107E+00
      5.239  0.4084E-01  0.2157E+00
      5.360  0.4091E-01  0.2207E+00
      5.482  0.2219E-01  0.2234E+00
      5.604  0.1866E-01  0.2257E+00
      5.726  0.3034E-01  0.2294E+00
      5.847  0.3396E-01  0.2335E+00
      5.969  0.3901E-01  0.2382E+00
      6.091  0.2413E-01  0.2412E+00
      6.213  0.2328E-01  0.2440E+00
      6.334  0.3121E-01  0.2478E+00
      6.456  0.2899E-01  0.2513E+00
      6.578  0.2499E-01  0.2544E+00
      6.700  0.3303E-01  0.2584E+00
      6.821  0.2464E-01  0.2614E+00
      6.943  0.2250E-01  0.2641E+00
      7.065  0.2912E-01  0.2677E+00
      7.187  0.3435E-01  0.2719E+00
      7.308  0.2329E-01  0.2747E+00
      7.430  0.2168E-01  0.2773E+00
      7.552  0.2702E-01  0.2806E+00
      7.674  0.1912E-01  0.2830E+00
      7.795  0.3702E-01  0.2875E+00
      7.917  0.2925E-01  0.2910E+00
      8.039  0.1662E-01  0.2931E+00
      8.161  0.1670E-01  0.2951E+00
      8.282  0.2429E-01  0.2980E+00
      8.404  0.2042E-01  0.3005E+00
      8.526  0.2011E-01  0.3030E+00
      8.648  0.1163E-01  0.3044E+00
      8.769  0.7468E-02  0.3053E+00
      8.891  0.1339E-01  0.3069E+00
      9.013  0.1711E-01  0.3090E+00
      9.135  0.1168E-01  0.3104E+00
      9.256  0.8732E-02  0.3115E+00
      9.378  0.7727E-02  0.3124E+00
      9.500  0.6055E-02  0.3132E+00
      9.622  0.1177E-01  0.3146E+00
      9.743  0.8716E-02  0.3157E+00
      9.865  0.4454E-02  0.3162E+00
      9.987  0.6053E-02  0.3170E+00
     10.109  0.4557E-02  0.3175E+00
     10.230  0.6478E-02  0.3183E+00
     10.352  0.3419E-02  0.3187E+00
     10.474  0.4839E-02  0.3193E+00
     10.596  0.1718E-02  0.3195E+00
     10.717  0.2775E-02  0.3198E+00
     10.839  0.1177E-02  0.3200E+00
     10.961  0.7612E-04  0.3200E+00
     11.083  0.1178E-08  0.3200E+00
     11.204  0.0000E+00  0.3200E+00
     11.326  0.0000E+00  0.3200E+00
     11.448  0.0000E+00  0.3200E+00
     11.570  0.0000E+00  0.3200E+00
     11.691  0.0000E+00  0.3200E+00
     11.813  0.0000E+00  0.3200E+00
     11.935  0.0000E+00  0.3200E+00
     12.057  0.0000E+00  0.3200E+00
     12.178  0.0000E+00  0.3200E+00
     12.300  0.0000E+00  0.3200E+00
     12.422  0.0000E+00  0.3200E+00
     12.544  0.0000E+00  0.3200E+00
     12.665  0.0000E+00  0.3200E+00
     12.787  0.0000E+00  0.3200E+00
     12.909  0.0000E+00  0.3200E+00
     13.031  0.0000E+00  0.3200E+00
     13.152  0.0000E+00  0.3200E+00
     13.274  0.0000E+00  0.3200E+00
     13.396  0.0000E+00  0.3200E+00
     13.518  0.0000E+00  0.3200E+00
     13.639  0.0000E+00  0.3200E+00
     13.761  0.0000E+00  0.3200E+00
     13.883  0.0000E+00  0.3200E+00
     14.005  0.0000E+00  0.3200E+00
     14.126  0.0000E+00  0.3200E+00
     14.248  0.0000E+00  0.3200E+00
     14.370  0.0000E+00  0.3200E+00
     14.492  0.0000E+00  0.3200E+00
     14.613  0.0000E+00  0.3200E+00
     14.735  0.0000E+00  0.3200E+00
     14.857  0.2052E-11  0.3200E+00
     14.979  0.8647E-05  0.3200E+00
     15.100  0.2333E-02  0.3203E+00
     15.222  0.3449E-02  0.3207E+00
     15.344  0.2583E-02  0.3210E+00
     15.466  0.5108E-02  0.3216E+00
     15.587  0.1028E-01  0.3229E+00
     15.709  0.9376E-02  0.3240E+00
     15.831  0.5966E-02  0.3248E+00
     15.953  0.9182E-02  0.3259E+00
     16.074  0.8677E-02  0.3269E+00
     16.196  0.1474E-01  0.3287E+00
     16.318  0.2071E-01  0.3313E+00
     16.440  0.1680E-01  0.3333E+00
     16.561  0.1397E-01  0.3350E+00
     16.683  0.1624E-01  0.3370E+00
     16.805  0.1453E-01  0.3387E+00
     16.927  0.1815E-01  0.3410E+00
     17.048  0.2025E-01  0.3434E+00
     17.170  0.2540E-01  0.3465E+00
     17.292  0.2369E-01  0.3494E+00
     17.414  0.1970E-01  0.3518E+00
     17.535  0.1894E-01  0.3541E+00
     17.657  0.2202E-01  0.3568E+00
     17.779  0.2608E-01  0.3600E+00
     17.901  0.2575E-01  0.3631E+00
     18.022  0.2337E-01  0.3659E+00
     18.144  0.2041E-01  0.3684E+00
     18.266  0.2836E-01  0.3719E+00
     18.387  0.3126E-01  0.3757E+00
     18.509  0.3400E-01  0.3798E+00
     18.631  0.4103E-01  0.3848E+00
     18.753  0.3181E-01  0.3887E+00
     18.874  0.3167E-01  0.3925E+00
     18.996  0.3188E-01  0.3964E+00
     19.118  0.4088E-01  0.4014E+00
     19.240  0.3958E-01  0.4062E+00
     19.361  0.3441E-01  0.4104E+00
     19.483  0.5309E-01  0.4169E+00
     19.605  0.4914E-01  0.4229E+00
     19.727  0.3775E-01  0.4275E+00
     19.848  0.3211E-01  0.4314E+00
     19.970  0.2994E-01  0.4350E+00
     20.092  0.2957E-01  0.4386E+00
     20.214  0.2143E-01  0.4412E+00
     20.335  0.2277E-01  0.4440E+00
     20.457  0.3252E-01  0.4479E+00
     20.579  0.3559E-01  0.4523E+00
     20.701  0.3125E-01  0.4561E+00
     20.822  0.2656E-01  0.4593E+00
     20.944  0.2668E-01  0.4626E+00
     21.066  0.2462E-01  0.4656E+00
     21.188  0.2016E-01  0.4680E+00
     21.309  0.1438E-01  0.4698E+00
     21.431  0.1452E-01  0.4715E+00
     21.553  0.2006E-01  0.4740E+00
     21.675  0.1197E-01  0.4754E+00
     21.796  0.1468E-01  0.4772E+00
     21.918  0.9998E-02  0.4784E+00
     22.040  0.4825E-02  0.4790E+00
     22.162  0.3973E-02  0.4795E+00
     22.283  0.8656E-03  0.4796E+00
     22.405  0.4438E-04  0.4796E+00
     22.527  0.4601E-03  0.4797E+00
     22.649  0.1948E-02  0.4799E+00
     22.770  0.6766E-03  0.4800E+00
     22.892  0.1018E-04  0.4800E+00
     23.014  0.6253E-11  0.4800E+00
     23.136  0.0000E+00  0.4800E+00
     23.257  0.0000E+00  0.4800E+00
     23.379  0.0000E+00  0.4800E+00
     23.501  0.0000E+00  0.4800E+00
     23.623  0.0000E+00  0.4800E+00
     23.744  0.0000E+00  0.4800E+00
     23.866  0.0000E+00  0.4800E+00
     23.988  0.0000E+00  0.4800E+00
     24.110  0.0000E+00  0.4800E+00
     24.231  0.0000E+00  0.4800E+00
     24.353  0.0000E+00  0.4800E+00
