       N       E                     dE             d eps       ncg     rms          rms(c)
DAV:   1     0.101668800992E+03    0.10167E+03   -0.25929E+04 13440   0.199E+03
DAV:   2    -0.724557071515E+02   -0.17412E+03   -0.17053E+03 21576   0.225E+02
DAV:   3    -0.752548804502E+02   -0.27992E+01   -0.27992E+01 15120   0.404E+01
DAV:   4    -0.752747451125E+02   -0.19865E-01   -0.19865E-01 25464   0.264E+00
DAV:   5    -0.752747482770E+02   -0.31645E-05   -0.31644E-05 14880   0.372E-02    0.165E+01
DAV:   6    -0.734474858459E+02    0.18273E+01   -0.13776E+00 16128   0.626E+00    0.108E+01
DAV:   7    -0.728357324197E+02    0.61175E+00   -0.17877E+00 19296   0.720E+00    0.229E+00
DAV:   8    -0.728341155676E+02    0.16169E-02   -0.24359E-02 22056   0.119E+00    0.119E-01
DAV:   9    -0.728342928868E+02   -0.17732E-03   -0.45948E-04 19080   0.142E-01    0.620E-02
DAV:  10    -0.728344158445E+02   -0.12296E-03   -0.11702E-04 21048   0.857E-02    0.479E-03
DAV:  11    -0.728344168725E+02   -0.10281E-05   -0.15771E-06 20424   0.991E-03    0.284E-03
DAV:  12    -0.728344172355E+02   -0.36295E-06   -0.73342E-08 21024   0.243E-03    0.165E-04
DAV:  13    -0.728344172427E+02   -0.72596E-08   -0.40523E-10 20760   0.159E-04
   1 F= -.72834417E+02 E0= -.72834417E+02  d E =-.728344E+02
       N       E                     dE             d eps       ncg     rms          rms(c)
DAV:   1    -0.728339908444E+02    0.42639E-03   -0.10254E-01 17376   0.259E+00    0.637E-02
DAV:   2    -0.728340272545E+02   -0.36410E-04   -0.61706E-04 22776   0.181E-01    0.326E-02
DAV:   3    -0.728340176650E+02    0.95895E-05   -0.25277E-05 18528   0.335E-02    0.725E-03
DAV:   4    -0.728340179199E+02   -0.25495E-06   -0.25452E-06 21504   0.111E-02    0.245E-03
DAV:   5    -0.728340178922E+02    0.27763E-07   -0.22855E-07 18240   0.337E-03    0.421E-04
DAV:   6    -0.728340178893E+02    0.29158E-08   -0.16649E-08 20112   0.960E-04
   2 F= -.72834018E+02 E0= -.72834018E+02  d E =0.399353E-03
       N       E                     dE             d eps       ncg     rms          rms(c)
DAV:   1    -0.728344711187E+02   -0.45323E-03   -0.53824E-02 17400   0.187E+00    0.459E-02
DAV:   2    -0.728344897007E+02   -0.18582E-04   -0.31813E-04 22752   0.130E-01    0.235E-02
DAV:   3    -0.728344848179E+02    0.48828E-05   -0.13934E-05 18336   0.248E-02    0.482E-03
DAV:   4    -0.728344849968E+02   -0.17891E-06   -0.12814E-06 20928   0.789E-03    0.180E-03
DAV:   5    -0.728344850045E+02   -0.77507E-08   -0.11116E-07 18576   0.232E-03    0.280E-04
DAV:   6    -0.728344850021E+02    0.24265E-08   -0.85972E-09 17424   0.691E-04
   3 F= -.72834485E+02 E0= -.72834485E+02  d E =-.677594E-04
