 vasp.5.4.4.18Apr17-6-g9f103f2a35 (build Jan 14 2019 14:48:31) complex          
  
 executed on             LinuxIFC date 2019.08.26  20:54:04
 running on   24 total cores
 distrk:  each k-point on   24 cores,    1 groups
 distr:  one band on NCORES_PER_BAND=   1 cores,   24 groups


--------------------------------------------------------------------------------------------------------


 INCAR:
 POTCAR:    PAW_PBE C_h 06Feb2004                 

 ----------------------------------------------------------------------------- 
|                                                                             |
|           W    W    AA    RRRRR   N    N  II  N    N   GGGG   !!!           |
|           W    W   A  A   R    R  NN   N  II  NN   N  G    G  !!!           |
|           W    W  A    A  R    R  N N  N  II  N N  N  G       !!!           |
|           W WW W  AAAAAA  RRRRR   N  N N  II  N  N N  G  GGG   !            |
|           WW  WW  A    A  R   R   N   NN  II  N   NN  G    G                |
|           W    W  A    A  R    R  N    N  II  N    N   GGGG   !!!           |
|                                                                             |
|      For optimal performance we recommend to set                            |
|        NCORE= 4 - approx SQRT( number of cores)                             |
|      NCORE specifies how many cores store one orbital (NPAR=cpu/NCORE).     |
|      This setting can  greatly improve the performance of VASP for DFT.     |
|      The default,   NCORE=1            might be grossly inefficient         |
|      on modern multi-core architectures or massively parallel machines.     |
|      Do your own testing !!!!                                               |
|      Unfortunately you need to use the default for GW and RPA calculations. |
|      (for HF NCORE is supported but not extensively tested yet)             |
|                                                                             |
 ----------------------------------------------------------------------------- 

 POTCAR:    PAW_PBE C_h 06Feb2004                 
   VRHFIN =C: s2p2                                                              
   LEXCH  = PE                                                                  
   EATOM  =   147.1560 eV,   10.8157 Ry                                         
                                                                                
   TITEL  = PAW_PBE C_h 06Feb2004                                               
   LULTRA =        F    use ultrasoft PP ?                                      
   IUNSCR =        1    unscreen: 0-lin 1-nonlin 2-no                           
   RPACOR =    0.800    partial core radius                                     
   POMASS =   12.011; ZVAL   =    4.000    mass and valenz                      
   RCORE  =    1.100    outmost cutoff radius                                   
   RWIGS  =    1.630; RWIGS  =    0.863    wigner-seitz radius (au A)           
   ENMAX  =  700.000; ENMIN  =  500.000 eV                                      
   ICORE  =        2    local potential                                         
   LCOR   =        T    correct aug charges                                     
   LPAW   =        T    paw PP                                                  
   EAUG   =  946.768                                                            
   DEXC   =    0.000                                                            
   RMAX   =    1.128    core radius for proj-oper                               
   RAUG   =    1.300    factor for augmentation sphere                          
   RDEP   =    1.162    radius for radial grids                                 
   RDEPT  =    1.088    core radius for aug-charge                              
                                                                                
   Atomic configuration                                                         
    4 entries                                                                   
     n  l   j            E        occ.                                          
     1  0  0.50      -273.3789   2.0000                                         
     2  0  0.50       -13.7508   2.0000                                         
     2  1  0.50        -5.2854   2.0000                                         
     3  2  1.50        -5.4423   0.0000                                         
   Description                                                                  
     l       E           TYP  RCUT    TYP  RCUT                                 
     0    -13.7508458     23  1.100                                             
     0     -8.2022199     23  1.100                                             
     1     -5.2854383     23  1.100                                             
     1      1.1560700     23  1.100                                             
     2     -5.4423304      7  1.100                                             
  local pseudopotential read in
  partial core-charges read in
  partial kinetic energy density read in
  atomic valenz-charges read in
  non local Contribution for L=           0  read in
    real space projection operators read in
  non local Contribution for L=           0  read in
    real space projection operators read in
  non local Contribution for L=           1  read in
    real space projection operators read in
  non local Contribution for L=           1  read in
    real space projection operators read in
    PAW grid and wavefunctions read in
 
   number of l-projection  operators is LMAX  =           4
   number of lm-projection operators is LMMAX =           8
 
  PAW_PBE C_h 06Feb2004                 :
 energy of atom  1       EATOM= -147.1560
 kinetic energy error for atom=    0.0044 (will be added to EATOM!!)
 
 
 POSCAR: C8                                      
  positions in direct lattice
  velocities in cartesian coordinates
 exchange correlation table for  LEXCH =        8
   RHO(1)=    0.500       N(1)  =     2000
   RHO(2)=  100.500       N(2)  =     4000

 VTST: version 3.1, (03/28/14)

 CHAIN: initializing optimizer
 
 OPT: Using VASP Conjugate-Gradient optimizer
 CHAIN: Read ICHAIN            0
 
 POSCAR: C8                                      
  positions in direct lattice
  velocities in cartesian coordinates
 


--------------------------------------------------------------------------------------------------------


 ion  position               nearest neighbor table
   1  0.250  0.250  0.250-   2 1.54   4 1.55   6 1.55   8 1.55
   2  0.000  0.000  0.000-   1 1.54   3 1.55   5 1.55   7 1.55
   3  0.250  0.750  0.750-   4 1.54   2 1.55   6 1.55   8 1.55
   4  0.000  0.500  0.500-   3 1.54   1 1.55   5 1.55   7 1.55
   5  0.750  0.250  0.750-   6 1.54   4 1.55   2 1.55   8 1.55
   6  0.500  0.000  0.500-   5 1.54   3 1.55   1 1.55   7 1.55
   7  0.750  0.750  0.250-   8 1.54   4 1.55   6 1.55   2 1.55
   8  0.500  0.500  0.000-   7 1.54   3 1.55   5 1.55   1 1.55
 
  LATTYP: Found a trigonal (rhomboedric) cell.
 ALAT       =     3.5736447775
 COS(alpha) =    -0.0066554077
  
  Lattice vectors:
  
 A1 = (   3.5736050710,  -0.0119120169,  -0.0119120169)
 A2 = (  -0.0119120169,   3.5736050710,  -0.0119120169)
 A3 = (  -0.0119120169,  -0.0119120169,   3.5736050710)


Analysis of symmetry for initial positions (statically):
=====================================================================
 Subroutine PRICEL returns following result:
 
  LATTYP: Found a trigonal (rhomboedric) cell.
 ALAT       =     2.5185254817
 COS(alpha) =     0.4933000011
  
  Lattice vectors:
  
 A1 = (  -0.0119120169,   1.7808465270,   1.7808465270)
 A2 = (   1.7808465270,  -0.0119120169,   1.7808465270)
 A3 = (   1.7808465270,   1.7808465270,  -0.0119120169)
 
   4 primitive cells build up your supercell.
 

 Routine SETGRP: Setting up the symmetry group for a 
 trigonal (rhombohedral) supercell.


 Subroutine GETGRP returns: Found 12 space group operations
 (whereof  6 operations were pure point group operations)
 out of a pool of 12 trial point group operations.


The static configuration has the point symmetry C_3v.
 The point group associated with its full space group is D_3d.


Analysis of symmetry for dynamics (positions and initial velocities):
=====================================================================
 Subroutine PRICEL returns following result:
 
  LATTYP: Found a trigonal (rhomboedric) cell.
 ALAT       =     2.5185254817
 COS(alpha) =     0.4933000011
  
  Lattice vectors:
  
 A1 = (  -0.0119120169,   1.7808465270,   1.7808465270)
 A2 = (   1.7808465270,  -0.0119120169,   1.7808465270)
 A3 = (   1.7808465270,   1.7808465270,  -0.0119120169)
 
   4 primitive cells build up your supercell.
 

 Routine SETGRP: Setting up the symmetry group for a 
 trigonal (rhombohedral) supercell.


 Subroutine GETGRP returns: Found 12 space group operations
 (whereof  6 operations were pure point group operations)
 out of a pool of 12 trial point group operations.


The dynamic configuration has the point symmetry C_3v.
 The point group associated with its full space group is D_3d.


 Subroutine INISYM returns: Found 12 space group operations
 (whereof  6 operations are pure point group operations),
 and found     4 'primitive' translations

 
 
 KPOINTS: K-Mesh Generated with KP-Resolved Value 

Automatic generation of k-mesh.
Space group operators:
 irot       det(A)        alpha          n_x          n_y          n_z        tau_x        tau_y        tau_z
    1     1.000000     0.000000     1.000000     0.000000     0.000000     0.000000     0.000000     0.000000
    2    -1.000000   180.000000    -0.000000     0.707107    -0.707107     0.000000     0.000000     0.000000
    3     1.000000   120.000000    -0.577350    -0.577350    -0.577350     0.000000     0.000000     0.000000
    4    -1.000000   180.000000     0.707107    -0.707107    -0.000000     0.000000     0.000000     0.000000
    5     1.000000   120.000000     0.577350     0.577350     0.577350     0.000000     0.000000     0.000000
    6    -1.000000   180.000000     0.707107     0.000000    -0.707107     0.000000     0.000000     0.000000
    7    -1.000000     0.000000     1.000000     0.000000     0.000000     0.250000     0.250000     0.250000
    8     1.000000   180.000000    -0.000000     0.707107    -0.707107     0.250000     0.250000     0.250000
    9    -1.000000   120.000000    -0.577350    -0.577350    -0.577350     0.250000     0.250000     0.250000
   10     1.000000   180.000000     0.707107    -0.707107    -0.000000     0.250000     0.250000     0.250000
   11    -1.000000   120.000000     0.577350     0.577350     0.577350     0.250000     0.250000     0.250000
   12     1.000000   180.000000     0.707107     0.000000    -0.707107     0.250000     0.250000     0.250000
 
 Subroutine IBZKPT returns following result:
 ===========================================
 
 Found    280 irreducible k-points:
 
 Following reciprocal coordinates:
            Coordinates               Weight
  0.035714  0.035714  0.035714      2.000000
  0.107143  0.035714  0.035714      6.000000
  0.178571  0.035714  0.035714      6.000000
  0.250000  0.035714  0.035714      6.000000
  0.321429  0.035714  0.035714      6.000000
  0.392857  0.035714  0.035714      6.000000
  0.464286  0.035714  0.035714      6.000000
 -0.464286  0.035714  0.035714      6.000000
 -0.392857  0.035714  0.035714      6.000000
 -0.321429  0.035714  0.035714      6.000000
 -0.250000  0.035714  0.035714      6.000000
 -0.178571  0.035714  0.035714      6.000000
 -0.107143  0.035714  0.035714      6.000000
 -0.035714  0.035714  0.035714      6.000000
  0.107143  0.107143  0.035714      6.000000
  0.178571  0.107143  0.035714     12.000000
  0.250000  0.107143  0.035714     12.000000
  0.321429  0.107143  0.035714     12.000000
  0.392857  0.107143  0.035714     12.000000
  0.464286  0.107143  0.035714     12.000000
 -0.464286  0.107143  0.035714     12.000000
 -0.392857  0.107143  0.035714     12.000000
 -0.321429  0.107143  0.035714     12.000000
 -0.250000  0.107143  0.035714     12.000000
 -0.178571  0.107143  0.035714     12.000000
 -0.107143  0.107143  0.035714     12.000000
 -0.035714  0.107143  0.035714     12.000000
  0.178571  0.178571  0.035714      6.000000
  0.250000  0.178571  0.035714     12.000000
  0.321429  0.178571  0.035714     12.000000
  0.392857  0.178571  0.035714     12.000000
  0.464286  0.178571  0.035714     12.000000
 -0.464286  0.178571  0.035714     12.000000
 -0.392857  0.178571  0.035714     12.000000
 -0.321429  0.178571  0.035714     12.000000
 -0.250000  0.178571  0.035714     12.000000
 -0.178571  0.178571  0.035714     12.000000
 -0.107143  0.178571  0.035714     12.000000
 -0.035714  0.178571  0.035714     12.000000
  0.250000  0.250000  0.035714      6.000000
  0.321429  0.250000  0.035714     12.000000
  0.392857  0.250000  0.035714     12.000000
  0.464286  0.250000  0.035714     12.000000
 -0.464286  0.250000  0.035714     12.000000
 -0.392857  0.250000  0.035714     12.000000
 -0.321429  0.250000  0.035714     12.000000
 -0.250000  0.250000  0.035714     12.000000
 -0.178571  0.250000  0.035714     12.000000
 -0.107143  0.250000  0.035714     12.000000
 -0.035714  0.250000  0.035714     12.000000
  0.321429  0.321429  0.035714      6.000000
  0.392857  0.321429  0.035714     12.000000
  0.464286  0.321429  0.035714     12.000000
 -0.464286  0.321429  0.035714     12.000000
 -0.392857  0.321429  0.035714     12.000000
 -0.321429  0.321429  0.035714     12.000000
 -0.250000  0.321429  0.035714     12.000000
 -0.178571  0.321429  0.035714     12.000000
 -0.107143  0.321429  0.035714     12.000000
 -0.035714  0.321429  0.035714     12.000000
  0.392857  0.392857  0.035714      6.000000
  0.464286  0.392857  0.035714     12.000000
 -0.464286  0.392857  0.035714     12.000000
 -0.392857  0.392857  0.035714     12.000000
 -0.321429  0.392857  0.035714     12.000000
 -0.250000  0.392857  0.035714     12.000000
 -0.178571  0.392857  0.035714     12.000000
 -0.107143  0.392857  0.035714     12.000000
 -0.035714  0.392857  0.035714     12.000000
  0.464286  0.464286  0.035714      6.000000
 -0.464286  0.464286  0.035714     12.000000
 -0.392857  0.464286  0.035714     12.000000
 -0.321429  0.464286  0.035714     12.000000
 -0.250000  0.464286  0.035714     12.000000
 -0.178571  0.464286  0.035714     12.000000
 -0.107143  0.464286  0.035714     12.000000
 -0.035714  0.464286  0.035714     12.000000
 -0.464286 -0.464286  0.035714      6.000000
 -0.392857 -0.464286  0.035714     12.000000
 -0.321429 -0.464286  0.035714     12.000000
 -0.250000 -0.464286  0.035714     12.000000
 -0.178571 -0.464286  0.035714     12.000000
 -0.107143 -0.464286  0.035714     12.000000
 -0.392857 -0.392857  0.035714      6.000000
 -0.321429 -0.392857  0.035714     12.000000
 -0.250000 -0.392857  0.035714     12.000000
 -0.178571 -0.392857  0.035714     12.000000
 -0.107143 -0.392857  0.035714     12.000000
 -0.321429 -0.321429  0.035714      6.000000
 -0.250000 -0.321429  0.035714     12.000000
 -0.178571 -0.321429  0.035714     12.000000
 -0.107143 -0.321429  0.035714     12.000000
 -0.250000 -0.250000  0.035714      6.000000
 -0.178571 -0.250000  0.035714     12.000000
 -0.107143 -0.250000  0.035714     12.000000
 -0.178571 -0.178571  0.035714      6.000000
 -0.107143 -0.178571  0.035714     12.000000
 -0.107143 -0.107143  0.035714      6.000000
  0.107143  0.107143  0.107143      2.000000
  0.178571  0.107143  0.107143      6.000000
  0.250000  0.107143  0.107143      6.000000
  0.321429  0.107143  0.107143      6.000000
  0.392857  0.107143  0.107143      6.000000
  0.464286  0.107143  0.107143      6.000000
 -0.464286  0.107143  0.107143      6.000000
 -0.392857  0.107143  0.107143      6.000000
 -0.321429  0.107143  0.107143      6.000000
 -0.250000  0.107143  0.107143      6.000000
 -0.178571  0.107143  0.107143      6.000000
 -0.107143  0.107143  0.107143      6.000000
  0.178571  0.178571  0.107143      6.000000
  0.250000  0.178571  0.107143     12.000000
  0.321429  0.178571  0.107143     12.000000
  0.392857  0.178571  0.107143     12.000000
  0.464286  0.178571  0.107143     12.000000
 -0.464286  0.178571  0.107143     12.000000
 -0.392857  0.178571  0.107143     12.000000
 -0.321429  0.178571  0.107143     12.000000
 -0.250000  0.178571  0.107143     12.000000
 -0.178571  0.178571  0.107143     12.000000
 -0.107143  0.178571  0.107143     12.000000
  0.250000  0.250000  0.107143      6.000000
  0.321429  0.250000  0.107143     12.000000
  0.392857  0.250000  0.107143     12.000000
  0.464286  0.250000  0.107143     12.000000
 -0.464286  0.250000  0.107143     12.000000
 -0.392857  0.250000  0.107143     12.000000
 -0.321429  0.250000  0.107143     12.000000
 -0.250000  0.250000  0.107143     12.000000
 -0.178571  0.250000  0.107143     12.000000
 -0.107143  0.250000  0.107143     12.000000
  0.321429  0.321429  0.107143      6.000000
  0.392857  0.321429  0.107143     12.000000
  0.464286  0.321429  0.107143     12.000000
 -0.464286  0.321429  0.107143     12.000000
 -0.392857  0.321429  0.107143     12.000000
 -0.321429  0.321429  0.107143     12.000000
 -0.250000  0.321429  0.107143     12.000000
 -0.178571  0.321429  0.107143     12.000000
 -0.107143  0.321429  0.107143     12.000000
  0.392857  0.392857  0.107143      6.000000
  0.464286  0.392857  0.107143     12.000000
 -0.464286  0.392857  0.107143     12.000000
 -0.392857  0.392857  0.107143     12.000000
 -0.321429  0.392857  0.107143     12.000000
 -0.250000  0.392857  0.107143     12.000000
 -0.178571  0.392857  0.107143     12.000000
 -0.107143  0.392857  0.107143     12.000000
  0.464286  0.464286  0.107143      6.000000
 -0.464286  0.464286  0.107143     12.000000
 -0.392857  0.464286  0.107143     12.000000
 -0.321429  0.464286  0.107143     12.000000
 -0.250000  0.464286  0.107143     12.000000
 -0.178571  0.464286  0.107143     12.000000
 -0.107143  0.464286  0.107143     12.000000
 -0.464286 -0.464286  0.107143      6.000000
 -0.392857 -0.464286  0.107143     12.000000
 -0.321429 -0.464286  0.107143     12.000000
 -0.250000 -0.464286  0.107143     12.000000
 -0.178571 -0.464286  0.107143     12.000000
 -0.392857 -0.392857  0.107143      6.000000
 -0.321429 -0.392857  0.107143     12.000000
 -0.250000 -0.392857  0.107143     12.000000
 -0.178571 -0.392857  0.107143     12.000000
 -0.321429 -0.321429  0.107143      6.000000
 -0.250000 -0.321429  0.107143     12.000000
 -0.178571 -0.321429  0.107143     12.000000
 -0.250000 -0.250000  0.107143      6.000000
 -0.178571 -0.250000  0.107143     12.000000
 -0.178571 -0.178571  0.107143      6.000000
  0.178571  0.178571  0.178571      2.000000
  0.250000  0.178571  0.178571      6.000000
  0.321429  0.178571  0.178571      6.000000
  0.392857  0.178571  0.178571      6.000000
  0.464286  0.178571  0.178571      6.000000
 -0.464286  0.178571  0.178571      6.000000
 -0.392857  0.178571  0.178571      6.000000
 -0.321429  0.178571  0.178571      6.000000
 -0.250000  0.178571  0.178571      6.000000
 -0.178571  0.178571  0.178571      6.000000
  0.250000  0.250000  0.178571      6.000000
  0.321429  0.250000  0.178571     12.000000
  0.392857  0.250000  0.178571     12.000000
  0.464286  0.250000  0.178571     12.000000
 -0.464286  0.250000  0.178571     12.000000
 -0.392857  0.250000  0.178571     12.000000
 -0.321429  0.250000  0.178571     12.000000
 -0.250000  0.250000  0.178571     12.000000
 -0.178571  0.250000  0.178571     12.000000
  0.321429  0.321429  0.178571      6.000000
  0.392857  0.321429  0.178571     12.000000
  0.464286  0.321429  0.178571     12.000000
 -0.464286  0.321429  0.178571     12.000000
 -0.392857  0.321429  0.178571     12.000000
 -0.321429  0.321429  0.178571     12.000000
 -0.250000  0.321429  0.178571     12.000000
 -0.178571  0.321429  0.178571     12.000000
  0.392857  0.392857  0.178571      6.000000
  0.464286  0.392857  0.178571     12.000000
 -0.464286  0.392857  0.178571     12.000000
 -0.392857  0.392857  0.178571     12.000000
 -0.321429  0.392857  0.178571     12.000000
 -0.250000  0.392857  0.178571     12.000000
 -0.178571  0.392857  0.178571     12.000000
  0.464286  0.464286  0.178571      6.000000
 -0.464286  0.464286  0.178571     12.000000
 -0.392857  0.464286  0.178571     12.000000
 -0.321429  0.464286  0.178571     12.000000
 -0.250000  0.464286  0.178571     12.000000
 -0.178571  0.464286  0.178571     12.000000
 -0.464286 -0.464286  0.178571      6.000000
 -0.392857 -0.464286  0.178571     12.000000
 -0.321429 -0.464286  0.178571     12.000000
 -0.250000 -0.464286  0.178571     12.000000
 -0.392857 -0.392857  0.178571      6.000000
 -0.321429 -0.392857  0.178571     12.000000
 -0.250000 -0.392857  0.178571     12.000000
 -0.321429 -0.321429  0.178571      6.000000
 -0.250000 -0.321429  0.178571     12.000000
 -0.250000 -0.250000  0.178571      6.000000
  0.250000  0.250000  0.250000      2.000000
  0.321429  0.250000  0.250000      6.000000
  0.392857  0.250000  0.250000      6.000000
  0.464286  0.250000  0.250000      6.000000
 -0.464286  0.250000  0.250000      6.000000
 -0.392857  0.250000  0.250000      6.000000
 -0.321429  0.250000  0.250000      6.000000
 -0.250000  0.250000  0.250000      6.000000
  0.321429  0.321429  0.250000      6.000000
  0.392857  0.321429  0.250000     12.000000
  0.464286  0.321429  0.250000     12.000000
 -0.464286  0.321429  0.250000     12.000000
 -0.392857  0.321429  0.250000     12.000000
 -0.321429  0.321429  0.250000     12.000000
 -0.250000  0.321429  0.250000     12.000000
  0.392857  0.392857  0.250000      6.000000
  0.464286  0.392857  0.250000     12.000000
 -0.464286  0.392857  0.250000     12.000000
 -0.392857  0.392857  0.250000     12.000000
 -0.321429  0.392857  0.250000     12.000000
 -0.250000  0.392857  0.250000     12.000000
  0.464286  0.464286  0.250000      6.000000
 -0.464286  0.464286  0.250000     12.000000
 -0.392857  0.464286  0.250000     12.000000
 -0.321429  0.464286  0.250000     12.000000
 -0.250000  0.464286  0.250000     12.000000
 -0.464286 -0.464286  0.250000      6.000000
 -0.392857 -0.464286  0.250000     12.000000
 -0.321429 -0.464286  0.250000     12.000000
 -0.392857 -0.392857  0.250000      6.000000
 -0.321429 -0.392857  0.250000     12.000000
 -0.321429 -0.321429  0.250000      6.000000
  0.321429  0.321429  0.321429      2.000000
  0.392857  0.321429  0.321429      6.000000
  0.464286  0.321429  0.321429      6.000000
 -0.464286  0.321429  0.321429      6.000000
 -0.392857  0.321429  0.321429      6.000000
 -0.321429  0.321429  0.321429      6.000000
  0.392857  0.392857  0.321429      6.000000
  0.464286  0.392857  0.321429     12.000000
 -0.464286  0.392857  0.321429     12.000000
 -0.392857  0.392857  0.321429     12.000000
 -0.321429  0.392857  0.321429     12.000000
  0.464286  0.464286  0.321429      6.000000
 -0.464286  0.464286  0.321429     12.000000
 -0.392857  0.464286  0.321429     12.000000
 -0.321429  0.464286  0.321429     12.000000
 -0.464286 -0.464286  0.321429      6.000000
 -0.392857 -0.464286  0.321429     12.000000
 -0.392857 -0.392857  0.321429      6.000000
  0.392857  0.392857  0.392857      2.000000
  0.464286  0.392857  0.392857      6.000000
 -0.464286  0.392857  0.392857      6.000000
 -0.392857  0.392857  0.392857      6.000000
  0.464286  0.464286  0.392857      6.000000
 -0.464286  0.464286  0.392857     12.000000
 -0.392857  0.464286  0.392857     12.000000
 -0.464286 -0.464286  0.392857      6.000000
  0.464286  0.464286  0.464286      2.000000
 -0.464286  0.464286  0.464286      6.000000
 
 Following cartesian coordinates:
            Coordinates               Weight
  0.010061  0.010061  0.010061      2.000000
  0.030049  0.010128  0.010128      6.000000
  0.050038  0.010195  0.010195      6.000000
  0.070026  0.010262  0.010262      6.000000
  0.090014  0.010328  0.010328      6.000000
  0.110002  0.010395  0.010395      6.000000
  0.129991  0.010462  0.010462      6.000000
 -0.129857  0.009593  0.009593      6.000000
 -0.109869  0.009660  0.009660      6.000000
 -0.089880  0.009727  0.009727      6.000000
 -0.069892  0.009794  0.009794      6.000000
 -0.049904  0.009860  0.009860      6.000000
 -0.029916  0.009927  0.009927      6.000000
 -0.009927  0.009994  0.009994      6.000000
  0.030116  0.030116  0.010195      6.000000
  0.050104  0.030183  0.010262     12.000000
  0.070093  0.030250  0.010328     12.000000
  0.090081  0.030317  0.010395     12.000000
  0.110069  0.030383  0.010462     12.000000
  0.130057  0.030450  0.010529     12.000000
 -0.129790  0.029581  0.009660     12.000000
 -0.109802  0.029648  0.009727     12.000000
 -0.089813  0.029715  0.009794     12.000000
 -0.069825  0.029782  0.009860     12.000000
 -0.049837  0.029849  0.009927     12.000000
 -0.029849  0.029916  0.009994     12.000000
 -0.009860  0.029982  0.010061     12.000000
  0.050171  0.050171  0.010328      6.000000
  0.070159  0.050238  0.010395     12.000000
  0.090148  0.050305  0.010462     12.000000
  0.110136  0.050372  0.010529     12.000000
  0.130124  0.050439  0.010596     12.000000
 -0.129723  0.049570  0.009727     12.000000
 -0.109735  0.049636  0.009794     12.000000
 -0.089747  0.049703  0.009860     12.000000
 -0.069758  0.049770  0.009927     12.000000
 -0.049770  0.049837  0.009994     12.000000
 -0.029782  0.049904  0.010061     12.000000
 -0.009794  0.049971  0.010128     12.000000
  0.070226  0.070226  0.010462      6.000000
  0.090215  0.070293  0.010529     12.000000
  0.110203  0.070360  0.010596     12.000000
  0.130191  0.070427  0.010663     12.000000
 -0.129656  0.069558  0.009794     12.000000
 -0.109668  0.069625  0.009860     12.000000
 -0.089680  0.069692  0.009927     12.000000
 -0.069692  0.069758  0.009994     12.000000
 -0.049703  0.069825  0.010061     12.000000
 -0.029715  0.069892  0.010128     12.000000
 -0.009727  0.069959  0.010195     12.000000
  0.090281  0.090281  0.010596      6.000000
  0.110270  0.090348  0.010663     12.000000
  0.130258  0.090415  0.010729     12.000000
 -0.129589  0.089546  0.009860     12.000000
 -0.109601  0.089613  0.009927     12.000000
 -0.089613  0.089680  0.009994     12.000000
 -0.069625  0.089747  0.010061     12.000000
 -0.049636  0.089813  0.010128     12.000000
 -0.029648  0.089880  0.010195     12.000000
 -0.009660  0.089947  0.010262     12.000000
  0.110337  0.110337  0.010729      6.000000
  0.130325  0.110403  0.010796     12.000000
 -0.129523  0.109534  0.009927     12.000000
 -0.109534  0.109601  0.009994     12.000000
 -0.089546  0.109668  0.010061     12.000000
 -0.069558  0.109735  0.010128     12.000000
 -0.049570  0.109802  0.010195     12.000000
 -0.029581  0.109869  0.010262     12.000000
 -0.009593  0.109935  0.010328     12.000000
  0.130392  0.130392  0.010863      6.000000
 -0.129456  0.129523  0.009994     12.000000
 -0.109468  0.129589  0.010061     12.000000
 -0.089479  0.129656  0.010128     12.000000
 -0.069491  0.129723  0.010195     12.000000
 -0.049503  0.129790  0.010262     12.000000
 -0.029514  0.129857  0.010328     12.000000
 -0.009526  0.129924  0.010395     12.000000
 -0.130325 -0.130325  0.009125      6.000000
 -0.110337 -0.130258  0.009192     12.000000
 -0.090348 -0.130191  0.009259     12.000000
 -0.070360 -0.130124  0.009326     12.000000
 -0.050372 -0.130057  0.009392     12.000000
 -0.030383 -0.129991  0.009459     12.000000
 -0.110270 -0.110270  0.009259      6.000000
 -0.090281 -0.110203  0.009326     12.000000
 -0.070293 -0.110136  0.009392     12.000000
 -0.050305 -0.110069  0.009459     12.000000
 -0.030317 -0.110002  0.009526     12.000000
 -0.090215 -0.090215  0.009392      6.000000
 -0.070226 -0.090148  0.009459     12.000000
 -0.050238 -0.090081  0.009526     12.000000
 -0.030250 -0.090014  0.009593     12.000000
 -0.070159 -0.070159  0.009526      6.000000
 -0.050171 -0.070093  0.009593     12.000000
 -0.030183 -0.070026  0.009660     12.000000
 -0.050104 -0.050104  0.009660      6.000000
 -0.030116 -0.050038  0.009727     12.000000
 -0.030049 -0.030049  0.009794      6.000000
  0.030183  0.030183  0.030183      2.000000
  0.050171  0.030250  0.030250      6.000000
  0.070159  0.030317  0.030317      6.000000
  0.090148  0.030383  0.030383      6.000000
  0.110136  0.030450  0.030450      6.000000
  0.130124  0.030517  0.030517      6.000000
 -0.129723  0.029648  0.029648      6.000000
 -0.109735  0.029715  0.029715      6.000000
 -0.089747  0.029782  0.029782      6.000000
 -0.069758  0.029849  0.029849      6.000000
 -0.049770  0.029916  0.029916      6.000000
 -0.029782  0.029982  0.029982      6.000000
  0.050238  0.050238  0.030317      6.000000
  0.070226  0.050305  0.030383     12.000000
  0.090215  0.050372  0.030450     12.000000
  0.110203  0.050439  0.030517     12.000000
  0.130191  0.050505  0.030584     12.000000
 -0.129656  0.049636  0.029715     12.000000
 -0.109668  0.049703  0.029782     12.000000
 -0.089680  0.049770  0.029849     12.000000
 -0.069692  0.049837  0.029916     12.000000
 -0.049703  0.049904  0.029982     12.000000
 -0.029715  0.049971  0.030049     12.000000
  0.070293  0.070293  0.030450      6.000000
  0.090281  0.070360  0.030517     12.000000
  0.110270  0.070427  0.030584     12.000000
  0.130258  0.070494  0.030651     12.000000
 -0.129589  0.069625  0.029782     12.000000
 -0.109601  0.069692  0.029849     12.000000
 -0.089613  0.069758  0.029916     12.000000
 -0.069625  0.069825  0.029982     12.000000
 -0.049636  0.069892  0.030049     12.000000
 -0.029648  0.069959  0.030116     12.000000
  0.090348  0.090348  0.030584      6.000000
  0.110337  0.090415  0.030651     12.000000
  0.130325  0.090482  0.030718     12.000000
 -0.129523  0.089613  0.029849     12.000000
 -0.109534  0.089680  0.029916     12.000000
 -0.089546  0.089747  0.029982     12.000000
 -0.069558  0.089813  0.030049     12.000000
 -0.049570  0.089880  0.030116     12.000000
 -0.029581  0.089947  0.030183     12.000000
  0.110403  0.110403  0.030718      6.000000
  0.130392  0.110470  0.030785     12.000000
 -0.129456  0.109601  0.029916     12.000000
 -0.109468  0.109668  0.029982     12.000000
 -0.089479  0.109735  0.030049     12.000000
 -0.069491  0.109802  0.030116     12.000000
 -0.049503  0.109869  0.030183     12.000000
 -0.029514  0.109935  0.030250     12.000000
  0.130459  0.130459  0.030851      6.000000
 -0.129389  0.129589  0.029982     12.000000
 -0.109401  0.129656  0.030049     12.000000
 -0.089412  0.129723  0.030116     12.000000
 -0.069424  0.129790  0.030183     12.000000
 -0.049436  0.129857  0.030250     12.000000
 -0.029448  0.129924  0.030317     12.000000
 -0.130258 -0.130258  0.029113      6.000000
 -0.110270 -0.130191  0.029180     12.000000
 -0.090281 -0.130124  0.029247     12.000000
 -0.070293 -0.130057  0.029314     12.000000
 -0.050305 -0.129991  0.029381     12.000000
 -0.110203 -0.110203  0.029247      6.000000
 -0.090215 -0.110136  0.029314     12.000000
 -0.070226 -0.110069  0.029381     12.000000
 -0.050238 -0.110002  0.029448     12.000000
 -0.090148 -0.090148  0.029381      6.000000
 -0.070159 -0.090081  0.029448     12.000000
 -0.050171 -0.090014  0.029514     12.000000
 -0.070093 -0.070093  0.029514      6.000000
 -0.050104 -0.070026  0.029581     12.000000
 -0.050038 -0.050038  0.029648      6.000000
  0.050305  0.050305  0.050305      2.000000
  0.070293  0.050372  0.050372      6.000000
  0.090281  0.050439  0.050439      6.000000
  0.110270  0.050505  0.050505      6.000000
  0.130258  0.050572  0.050572      6.000000
 -0.129589  0.049703  0.049703      6.000000
 -0.109601  0.049770  0.049770      6.000000
 -0.089613  0.049837  0.049837      6.000000
 -0.069625  0.049904  0.049904      6.000000
 -0.049636  0.049971  0.049971      6.000000
  0.070360  0.070360  0.050439      6.000000
  0.090348  0.070427  0.050505     12.000000
  0.110337  0.070494  0.050572     12.000000
  0.130325  0.070561  0.050639     12.000000
 -0.129523  0.069692  0.049770     12.000000
 -0.109534  0.069758  0.049837     12.000000
 -0.089546  0.069825  0.049904     12.000000
 -0.069558  0.069892  0.049971     12.000000
 -0.049570  0.069959  0.050038     12.000000
  0.090415  0.090415  0.050572      6.000000
  0.110403  0.090482  0.050639     12.000000
  0.130392  0.090549  0.050706     12.000000
 -0.129456  0.089680  0.049837     12.000000
 -0.109468  0.089747  0.049904     12.000000
 -0.089479  0.089813  0.049971     12.000000
 -0.069491  0.089880  0.050038     12.000000
 -0.049503  0.089947  0.050104     12.000000
  0.110470  0.110470  0.050706      6.000000
  0.130459  0.110537  0.050773     12.000000
 -0.129389  0.109668  0.049904     12.000000
 -0.109401  0.109735  0.049971     12.000000
 -0.089412  0.109802  0.050038     12.000000
 -0.069424  0.109869  0.050104     12.000000
 -0.049436  0.109935  0.050171     12.000000
  0.130525  0.130525  0.050840      6.000000
 -0.129322  0.129656  0.049971     12.000000
 -0.109334  0.129723  0.050038     12.000000
 -0.089346  0.129790  0.050104     12.000000
 -0.069357  0.129857  0.050171     12.000000
 -0.049369  0.129924  0.050238     12.000000
 -0.130191 -0.130191  0.049102      6.000000
 -0.110203 -0.130124  0.049168     12.000000
 -0.090215 -0.130057  0.049235     12.000000
 -0.070226 -0.129991  0.049302     12.000000
 -0.110136 -0.110136  0.049235      6.000000
 -0.090148 -0.110069  0.049302     12.000000
 -0.070159 -0.110002  0.049369     12.000000
 -0.090081 -0.090081  0.049369      6.000000
 -0.070093 -0.090014  0.049436     12.000000
 -0.070026 -0.070026  0.049503      6.000000
  0.070427  0.070427  0.070427      2.000000
  0.090415  0.070494  0.070494      6.000000
  0.110403  0.070561  0.070561      6.000000
  0.130392  0.070627  0.070627      6.000000
 -0.129456  0.069758  0.069758      6.000000
 -0.109468  0.069825  0.069825      6.000000
 -0.089479  0.069892  0.069892      6.000000
 -0.069491  0.069959  0.069959      6.000000
  0.090482  0.090482  0.070561      6.000000
  0.110470  0.090549  0.070627     12.000000
  0.130459  0.090616  0.070694     12.000000
 -0.129389  0.089747  0.069825     12.000000
 -0.109401  0.089813  0.069892     12.000000
 -0.089412  0.089880  0.069959     12.000000
 -0.069424  0.089947  0.070026     12.000000
  0.110537  0.110537  0.070694      6.000000
  0.130525  0.110604  0.070761     12.000000
 -0.129322  0.109735  0.069892     12.000000
 -0.109334  0.109802  0.069959     12.000000
 -0.089346  0.109869  0.070026     12.000000
 -0.069357  0.109935  0.070093     12.000000
  0.130592  0.130592  0.070828      6.000000
 -0.129255  0.129723  0.069959     12.000000
 -0.109267  0.129790  0.070026     12.000000
 -0.089279  0.129857  0.070093     12.000000
 -0.069290  0.129924  0.070159     12.000000
 -0.130124 -0.130124  0.069090      6.000000
 -0.110136 -0.130057  0.069157     12.000000
 -0.090148 -0.129991  0.069224     12.000000
 -0.110069 -0.110069  0.069224      6.000000
 -0.090081 -0.110002  0.069290     12.000000
 -0.090014 -0.090014  0.069357      6.000000
  0.090549  0.090549  0.090549      2.000000
  0.110537  0.090616  0.090616      6.000000
  0.130525  0.090683  0.090683      6.000000
 -0.129322  0.089813  0.089813      6.000000
 -0.109334  0.089880  0.089880      6.000000
 -0.089346  0.089947  0.089947      6.000000
  0.110604  0.110604  0.090683      6.000000
  0.130592  0.110671  0.090749     12.000000
 -0.129255  0.109802  0.089880     12.000000
 -0.109267  0.109869  0.089947     12.000000
 -0.089279  0.109935  0.090014     12.000000
  0.130659  0.130659  0.090816      6.000000
 -0.129188  0.129790  0.089947     12.000000
 -0.109200  0.129857  0.090014     12.000000
 -0.089212  0.129924  0.090081     12.000000
 -0.130057 -0.130057  0.089078      6.000000
 -0.110069 -0.129991  0.089145     12.000000
 -0.110002 -0.110002  0.089212      6.000000
  0.110671  0.110671  0.110671      2.000000
  0.130659  0.110738  0.110738      6.000000
 -0.129188  0.109869  0.109869      6.000000
 -0.109200  0.109935  0.109935      6.000000
  0.130726  0.130726  0.110805      6.000000
 -0.129122  0.129857  0.109935     12.000000
 -0.109133  0.129924  0.110002     12.000000
 -0.129991 -0.129991  0.109066      6.000000
  0.130793  0.130793  0.130793      2.000000
 -0.129055  0.129924  0.129924      6.000000
 


--------------------------------------------------------------------------------------------------------




 Dimension of arrays:
   k-points           NKPTS =    280   k-points in BZ     NKDIM =    280   number of bands    NBANDS=     24
   number of dos      NEDOS =    301   number of ions     NIONS =      8
   non local maximal  LDIM  =      4   non local SUM 2l+1 LMDIM =      8
   total plane-waves  NPLWV =  46656
   max r-space proj   IRMAX =      1   max aug-charges    IRDMAX=  16274
   dimension x,y,z NGX =    36 NGY =   36 NGZ =   36
   dimension x,y,z NGXF=    48 NGYF=   48 NGZF=   48
   support grid    NGXF=    96 NGYF=   96 NGZF=   96
   ions per type =               8
   NGX,Y,Z   is equivalent  to a cutoff of  16.75, 16.75, 16.75 a.u.
   NGXF,Y,Z  is equivalent  to a cutoff of  22.33, 22.33, 22.33 a.u.

 SYSTEM =  unknown system                          
 POSCAR =  C8                                      

 Startparameter for this run:
   NWRITE =      2    write-flag & timer
   PREC   = high      normal or accurate (medium, high low for compatibility)
   ISTART =      0    job   : 0-new  1-cont  2-samecut
   ICHARG =      2    charge: 1-file 2-atom 10-const
   ISPIN  =      1    spin polarized calculation?
   LNONCOLLINEAR =      F non collinear calculations
   LSORBIT =      F    spin-orbit coupling
   INIWAV =      1    electr: 0-lowe 1-rand  2-diag
   LASPH  =      F    aspherical Exc in radial PAW
   METAGGA=      F    non-selfconsistent MetaGGA calc.

 Electronic Relaxation 1
   ENCUT  =  875.0 eV  64.31 Ry    8.02 a.u.   8.62  8.62  8.62*2*pi/ulx,y,z
   ENINI  =  875.0     initial cutoff
   ENAUG  =  946.8 eV  augmentation charge cutoff
   NELM   =     40;   NELMIN=  4; NELMDL= -5     # of ELM steps 
   EDIFF  = 0.1E-07   stopping-criterion for ELM
   LREAL  =      F    real-space projection
   NLSPLINE    = F    spline interpolate recip. space projectors
   LCOMPAT=      F    compatible to vasp.4.4
   GGA_COMPAT  = T    GGA compatible to vasp.4.4-vasp.4.6
   LMAXPAW     = -100 max onsite density
   LMAXMIX     =    2 max onsite mixed and CHGCAR
   VOSKOWN=      0    Vosko Wilk Nusair interpolation
   ROPT   =    0.00000
 Ionic relaxation
   EDIFFG = -.1E-01   stopping-criterion for IOM
   NSW    =    100    number of steps for IOM
   NBLOCK =      1;   KBLOCK =    100    inner block; outer block 
   IBRION =      2    ionic relax: 0-MD 1-quasi-New 2-CG
   NFREE  =      1    steps in history (QN), initial steepest desc. (CG)
   ISIF   =      2    stress and relaxation
   IWAVPR =     11    prediction:  0-non 1-charg 2-wave 3-comb
   ISYM   =      2    0-nonsym 1-usesym 2-fastsym
   LCORR  =      T    Harris-Foulkes like correction to forces

   POTIM  = 0.5000    time-step for ionic-motion
   TEIN   =    0.0    initial temperature
   TEBEG  =    0.0;   TEEND  =   0.0 temperature during run
   SMASS  =  -3.00    Nose mass-parameter (am)
   estimated Nose-frequenzy (Omega)   =  0.10E-29 period in steps =****** mass=  -0.292E-27a.u.
   SCALEE = 1.0000    scale energy and forces
   NPACO  =    256;   APACO  = 16.0  distance and # of slots for P.C.
   PSTRESS=    0.0 pullay stress

  Mass of Ions in am
   POMASS =  12.01
  Ionic Valenz
   ZVAL   =   4.00
  Atomic Wigner-Seitz radii
   RWIGS  =  -1.00
  virtual crystal weights 
   VCA    =   1.00
   NELECT =      32.0000    total number of electrons
   NUPDOWN=      -1.0000    fix difference up-down

 DOS related values:
   EMIN   =  10.00;   EMAX   =-10.00  energy-range for DOS
   EFERMI =   0.00
   ISMEAR =     0;   SIGMA  =   0.05  broadening in eV -4-tet -1-fermi 0-gaus

 Electronic relaxation 2 (details)
   IALGO  =     38    algorithm
   LDIAG  =      T    sub-space diagonalisation (order eigenvalues)
   LSUBROT=      F    optimize rotation matrix (better conditioning)
   TURBO    =      0    0=normal 1=particle mesh
   IRESTART =      0    0=no restart 2=restart with 2 vectors
   NREBOOT  =      0    no. of reboots
   NMIN     =      0    reboot dimension
   EREF     =   0.00    reference energy to select bands
   IMIX   =      4    mixing-type and parameters
     AMIX     =   0.40;   BMIX     =  1.00
     AMIX_MAG =   1.60;   BMIX_MAG =  1.00
     AMIN     =   0.10
     WC   =   100.;   INIMIX=   1;  MIXPRE=   1;  MAXMIX= -45

 Intra band minimization:
   WEIMIN = 0.0010     energy-eigenvalue tresh-hold
   EBREAK =  0.10E-09  absolut break condition
   DEPER  =   0.30     relativ break condition  

   TIME   =   0.40     timestep for ELM

  volume/ion in A,a.u.               =       5.70        38.50
  Fermi-wavevector in a.u.,A,eV,Ry     =   1.454420  2.748455 28.780906  2.115337
  Thomas-Fermi vector in A             =   2.571573
 
 Write flags
   LWAVE        =      F    write WAVECAR
   LDOWNSAMPLE  =      F    k-point downsampling of WAVECAR
   LCHARG       =      F    write CHGCAR
   LVTOT        =      F    write LOCPOT, total local potential
   LVHAR        =      F    write LOCPOT, Hartree potential only
   LELF         =      F    write electronic localiz. function (ELF)
   LORBIT       =      0    0 simple, 1 ext, 2 COOP (PROOUT), +10 PAW based schemes


 Dipole corrections
   LMONO  =      F    monopole corrections only (constant potential shift)
   LDIPOL =      F    correct potential (dipole corrections)
   IDIPOL =      0    1-x, 2-y, 3-z, 4-all directions 
   EPSILON=  1.0000000 bulk dielectric constant

 Exchange correlation treatment:
   GGA     =    --    GGA type
   LEXCH   =     8    internal setting for exchange type
   VOSKOWN=      0    Vosko Wilk Nusair interpolation
   LHFCALC =     F    Hartree Fock is set to
   LHFONE  =     F    Hartree Fock one center treatment
   AEXX    =    0.0000 exact exchange contribution

 Linear response parameters
   LEPSILON=     F    determine dielectric tensor
   LRPA    =     F    only Hartree local field effects (RPA)
   LNABLA  =     F    use nabla operator in PAW spheres
   LVEL    =     F    velocity operator in full k-point grid
   LINTERFAST=   F  fast interpolation
   KINTER  =     0    interpolate to denser k-point grid
   CSHIFT  =0.1000    complex shift for real part using Kramers Kronig
   OMEGAMAX=  -1.0    maximum frequency
   DEG_THRESHOLD= 0.2000000E-02 threshold for treating states as degnerate
   RTIME   =   -0.100 relaxation time in fs
  (WPLASMAI=    0.000 imaginary part of plasma frequency in eV, 0.658/RTIME)
   DFIELD  = 0.0000000 0.0000000 0.0000000 field for delta impulse in time
 
 Orbital magnetization related:
   ORBITALMAG=     F  switch on orbital magnetization
   LCHIMAG   =     F  perturbation theory with respect to B field
   DQ        =  0.001000  dq finite difference perturbation B field
   LLRAUG    =     F  two centre corrections for induced B field



--------------------------------------------------------------------------------------------------------


 conjugate gradient relaxation of ions
 charge density and potential will be updated during run
 non-spin polarized calculation
 Variant of blocked Davidson
 Davidson routine will perform the subspace rotation
 perform sub-space diagonalisation
    after iterative eigenvector-optimisation
 modified Broyden-mixing scheme, WC =      100.0
 initial mixing is a Kerker type mixing with AMIX =  0.4000 and BMIX =      1.0000
 Hartree-type preconditioning will be used
 using additional bands            8
 reciprocal scheme for non local part
 use partial core corrections
 calculate Harris-corrections to forces 
   (improved forces if not selfconsistent)
 use gradient corrections 
 use of overlap-Matrix (Vanderbilt PP)
 Gauss-broadening in eV      SIGMA  =   0.05


--------------------------------------------------------------------------------------------------------


  energy-cutoff  :      875.00
  volume of cell :       45.64
      direct lattice vectors                 reciprocal lattice vectors
     3.573605071 -0.011912017 -0.011912017     0.279835706  0.000935905  0.000935905
    -0.011912017  3.573605071 -0.011912017     0.000935905  0.279835706  0.000935905
    -0.011912017 -0.011912017  3.573605071     0.000935905  0.000935905  0.279835706

  length of vectors
     3.573644777  3.573644777  3.573644777     0.279838836  0.279838836  0.279838836


 
 k-points in units of 2pi/SCALE and weight: K-Mesh Generated with KP-Resolved Value 
   0.01006098  0.01006098  0.01006098       0.001
   0.03004925  0.01012783  0.01012783       0.002
   0.05003751  0.01019468  0.01019468       0.002
   0.07002578  0.01026153  0.01026153       0.002
   0.09001404  0.01032838  0.01032838       0.002
   0.11000231  0.01039523  0.01039523       0.002
   0.12999057  0.01046209  0.01046209       0.002
  -0.12985687  0.00959303  0.00959303       0.002
  -0.10986861  0.00965988  0.00965988       0.002
  -0.08988034  0.00972673  0.00972673       0.002
  -0.06989208  0.00979358  0.00979358       0.002
  -0.04990381  0.00986043  0.00986043       0.002
  -0.02991555  0.00992728  0.00992728       0.002
  -0.00992728  0.00999413  0.00999413       0.002
   0.03011610  0.03011610  0.01019468       0.002
   0.05010436  0.03018295  0.01026153       0.004
   0.07009263  0.03024980  0.01032838       0.004
   0.09008089  0.03031665  0.01039523       0.004
   0.11006916  0.03038350  0.01046209       0.004
   0.13005742  0.03045035  0.01052894       0.004
  -0.12979002  0.02958129  0.00965988       0.004
  -0.10980176  0.02964815  0.00972673       0.004
  -0.08981349  0.02971500  0.00979358       0.004
  -0.06982523  0.02978185  0.00986043       0.004
  -0.04983696  0.02984870  0.00992728       0.004
  -0.02984870  0.02991555  0.00999413       0.004
  -0.00986043  0.02998240  0.01006098       0.004
   0.05017121  0.05017121  0.01032838       0.002
   0.07015948  0.05023806  0.01039523       0.004
   0.09014774  0.05030491  0.01046209       0.004
   0.11013601  0.05037176  0.01052894       0.004
   0.13012427  0.05043861  0.01059579       0.004
  -0.12972317  0.04956956  0.00972673       0.004
  -0.10973490  0.04963641  0.00979358       0.004
  -0.08974664  0.04970326  0.00986043       0.004
  -0.06975838  0.04977011  0.00992728       0.004
  -0.04977011  0.04983696  0.00999413       0.004
  -0.02978185  0.04990381  0.01006098       0.004
  -0.00979358  0.04997066  0.01012783       0.004
   0.07022633  0.07022633  0.01046209       0.002
   0.09021459  0.07029318  0.01052894       0.004
   0.11020286  0.07036003  0.01059579       0.004
   0.13019112  0.07042688  0.01066264       0.004
  -0.12965632  0.06955782  0.00979358       0.004
  -0.10966805  0.06962467  0.00986043       0.004
  -0.08967979  0.06969152  0.00992728       0.004
  -0.06969152  0.06975838  0.00999413       0.004
  -0.04970326  0.06982523  0.01006098       0.004
  -0.02971500  0.06989208  0.01012783       0.004
  -0.00972673  0.06995893  0.01019468       0.004
   0.09028144  0.09028144  0.01059579       0.002
   0.11026971  0.09034829  0.01066264       0.004
   0.13025797  0.09041514  0.01072949       0.004
  -0.12958947  0.08954609  0.00986043       0.004
  -0.10960120  0.08961294  0.00992728       0.004
  -0.08961294  0.08967979  0.00999413       0.004
  -0.06962467  0.08974664  0.01006098       0.004
  -0.04963641  0.08981349  0.01012783       0.004
  -0.02964815  0.08988034  0.01019468       0.004
  -0.00965988  0.08994719  0.01026153       0.004
   0.11033656  0.11033656  0.01072949       0.002
   0.13032482  0.11040341  0.01079634       0.004
  -0.12952262  0.10953435  0.00992728       0.004
  -0.10953435  0.10960120  0.00999413       0.004
  -0.08954609  0.10966805  0.01006098       0.004
  -0.06955782  0.10973490  0.01012783       0.004
  -0.04956956  0.10980176  0.01019468       0.004
  -0.02958129  0.10986861  0.01026153       0.004
  -0.00959303  0.10993546  0.01032838       0.004
   0.13039167  0.13039167  0.01086319       0.002
  -0.12945577  0.12952262  0.00999413       0.004
  -0.10946750  0.12958947  0.01006098       0.004
  -0.08947924  0.12965632  0.01012783       0.004
  -0.06949097  0.12972317  0.01019468       0.004
  -0.04950271  0.12979002  0.01026153       0.004
  -0.02951444  0.12985687  0.01032838       0.004
  -0.00952618  0.12992372  0.01039523       0.004
  -0.13032482 -0.13032482  0.00912508       0.002
  -0.11033656 -0.13025797  0.00919193       0.004
  -0.09034829 -0.13019112  0.00925878       0.004
  -0.07036003 -0.13012427  0.00932563       0.004
  -0.05037176 -0.13005742  0.00939248       0.004
  -0.03038350 -0.12999057  0.00945933       0.004
  -0.11026971 -0.11026971  0.00925878       0.002
  -0.09028144 -0.11020286  0.00932563       0.004
  -0.07029318 -0.11013601  0.00939248       0.004
  -0.05030491 -0.11006916  0.00945933       0.004
  -0.03031665 -0.11000231  0.00952618       0.004
  -0.09021459 -0.09021459  0.00939248       0.002
  -0.07022633 -0.09014774  0.00945933       0.004
  -0.05023806 -0.09008089  0.00952618       0.004
  -0.03024980 -0.09001404  0.00959303       0.004
  -0.07015948 -0.07015948  0.00952618       0.002
  -0.05017121 -0.07009263  0.00959303       0.004
  -0.03018295 -0.07002578  0.00965988       0.004
  -0.05010436 -0.05010436  0.00965988       0.002
  -0.03011610 -0.05003751  0.00972673       0.004
  -0.03004925 -0.03004925  0.00979358       0.002
   0.03018295  0.03018295  0.03018295       0.001
   0.05017121  0.03024980  0.03024980       0.002
   0.07015948  0.03031665  0.03031665       0.002
   0.09014774  0.03038350  0.03038350       0.002
   0.11013601  0.03045035  0.03045035       0.002
   0.13012427  0.03051720  0.03051720       0.002
  -0.12972317  0.02964815  0.02964815       0.002
  -0.10973490  0.02971500  0.02971500       0.002
  -0.08974664  0.02978185  0.02978185       0.002
  -0.06975838  0.02984870  0.02984870       0.002
  -0.04977011  0.02991555  0.02991555       0.002
  -0.02978185  0.02998240  0.02998240       0.002
   0.05023806  0.05023806  0.03031665       0.002
   0.07022633  0.05030491  0.03038350       0.004
   0.09021459  0.05037176  0.03045035       0.004
   0.11020286  0.05043861  0.03051720       0.004
   0.13019112  0.05050546  0.03058405       0.004
  -0.12965632  0.04963641  0.02971500       0.004
  -0.10966805  0.04970326  0.02978185       0.004
  -0.08967979  0.04977011  0.02984870       0.004
  -0.06969152  0.04983696  0.02991555       0.004
  -0.04970326  0.04990381  0.02998240       0.004
  -0.02971500  0.04997066  0.03004925       0.004
   0.07029318  0.07029318  0.03045035       0.002
   0.09028144  0.07036003  0.03051720       0.004
   0.11026971  0.07042688  0.03058405       0.004
   0.13025797  0.07049373  0.03065090       0.004
  -0.12958947  0.06962467  0.02978185       0.004
  -0.10960120  0.06969152  0.02984870       0.004
  -0.08961294  0.06975838  0.02991555       0.004
  -0.06962467  0.06982523  0.02998240       0.004
  -0.04963641  0.06989208  0.03004925       0.004
  -0.02964815  0.06995893  0.03011610       0.004
   0.09034829  0.09034829  0.03058405       0.002
   0.11033656  0.09041514  0.03065090       0.004
   0.13032482  0.09048199  0.03071775       0.004
  -0.12952262  0.08961294  0.02984870       0.004
  -0.10953435  0.08967979  0.02991555       0.004
  -0.08954609  0.08974664  0.02998240       0.004
  -0.06955782  0.08981349  0.03004925       0.004
  -0.04956956  0.08988034  0.03011610       0.004
  -0.02958129  0.08994719  0.03018295       0.004
   0.11040341  0.11040341  0.03071775       0.002
   0.13039167  0.11047026  0.03078460       0.004
  -0.12945577  0.10960120  0.02991555       0.004
  -0.10946750  0.10966805  0.02998240       0.004
  -0.08947924  0.10973490  0.03004925       0.004
  -0.06949097  0.10980176  0.03011610       0.004
  -0.04950271  0.10986861  0.03018295       0.004
  -0.02951444  0.10993546  0.03024980       0.004
   0.13045852  0.13045852  0.03085145       0.002
  -0.12938892  0.12958947  0.02998240       0.004
  -0.10940065  0.12965632  0.03004925       0.004
  -0.08941239  0.12972317  0.03011610       0.004
  -0.06942412  0.12979002  0.03018295       0.004
  -0.04943586  0.12985687  0.03024980       0.004
  -0.02944759  0.12992372  0.03031665       0.004
  -0.13025797 -0.13025797  0.02911334       0.002
  -0.11026971 -0.13019112  0.02918019       0.004
  -0.09028144 -0.13012427  0.02924704       0.004
  -0.07029318 -0.13005742  0.02931389       0.004
  -0.05030491 -0.12999057  0.02938074       0.004
  -0.11020286 -0.11020286  0.02924704       0.002
  -0.09021459 -0.11013601  0.02931389       0.004
  -0.07022633 -0.11006916  0.02938074       0.004
  -0.05023806 -0.11000231  0.02944759       0.004
  -0.09014774 -0.09014774  0.02938074       0.002
  -0.07015948 -0.09008089  0.02944759       0.004
  -0.05017121 -0.09001404  0.02951444       0.004
  -0.07009263 -0.07009263  0.02951444       0.002
  -0.05010436 -0.07002578  0.02958129       0.004
  -0.05003751 -0.05003751  0.02964815       0.002
   0.05030491  0.05030491  0.05030491       0.001
   0.07029318  0.05037176  0.05037176       0.002
   0.09028144  0.05043861  0.05043861       0.002
   0.11026971  0.05050546  0.05050546       0.002
   0.13025797  0.05057232  0.05057232       0.002
  -0.12958947  0.04970326  0.04970326       0.002
  -0.10960120  0.04977011  0.04977011       0.002
  -0.08961294  0.04983696  0.04983696       0.002
  -0.06962467  0.04990381  0.04990381       0.002
  -0.04963641  0.04997066  0.04997066       0.002
   0.07036003  0.07036003  0.05043861       0.002
   0.09034829  0.07042688  0.05050546       0.004
   0.11033656  0.07049373  0.05057232       0.004
   0.13032482  0.07056058  0.05063917       0.004
  -0.12952262  0.06969152  0.04977011       0.004
  -0.10953435  0.06975838  0.04983696       0.004
  -0.08954609  0.06982523  0.04990381       0.004
  -0.06955782  0.06989208  0.04997066       0.004
  -0.04956956  0.06995893  0.05003751       0.004
   0.09041514  0.09041514  0.05057232       0.002
   0.11040341  0.09048199  0.05063917       0.004
   0.13039167  0.09054884  0.05070602       0.004
  -0.12945577  0.08967979  0.04983696       0.004
  -0.10946750  0.08974664  0.04990381       0.004
  -0.08947924  0.08981349  0.04997066       0.004
  -0.06949097  0.08988034  0.05003751       0.004
  -0.04950271  0.08994719  0.05010436       0.004
   0.11047026  0.11047026  0.05070602       0.002
   0.13045852  0.11053711  0.05077287       0.004
  -0.12938892  0.10966805  0.04990381       0.004
  -0.10940065  0.10973490  0.04997066       0.004
  -0.08941239  0.10980176  0.05003751       0.004
  -0.06942412  0.10986861  0.05010436       0.004
  -0.04943586  0.10993546  0.05017121       0.004
   0.13052537  0.13052537  0.05083972       0.002
  -0.12932207  0.12965632  0.04997066       0.004
  -0.10933380  0.12972317  0.05003751       0.004
  -0.08934554  0.12979002  0.05010436       0.004
  -0.06935727  0.12985687  0.05017121       0.004
  -0.04936901  0.12992372  0.05023806       0.004
  -0.13019112 -0.13019112  0.04910161       0.002
  -0.11020286 -0.13012427  0.04916846       0.004
  -0.09021459 -0.13005742  0.04923531       0.004
  -0.07022633 -0.12999057  0.04930216       0.004
  -0.11013601 -0.11013601  0.04923531       0.002
  -0.09014774 -0.11006916  0.04930216       0.004
  -0.07015948 -0.11000231  0.04936901       0.004
  -0.09008089 -0.09008089  0.04936901       0.002
  -0.07009263 -0.09001404  0.04943586       0.004
  -0.07002578 -0.07002578  0.04950271       0.002
   0.07042688  0.07042688  0.07042688       0.001
   0.09041514  0.07049373  0.07049373       0.002
   0.11040341  0.07056058  0.07056058       0.002
   0.13039167  0.07062743  0.07062743       0.002
  -0.12945577  0.06975838  0.06975838       0.002
  -0.10946750  0.06982523  0.06982523       0.002
  -0.08947924  0.06989208  0.06989208       0.002
  -0.06949097  0.06995893  0.06995893       0.002
   0.09048199  0.09048199  0.07056058       0.002
   0.11047026  0.09054884  0.07062743       0.004
   0.13045852  0.09061569  0.07069428       0.004
  -0.12938892  0.08974664  0.06982523       0.004
  -0.10940065  0.08981349  0.06989208       0.004
  -0.08941239  0.08988034  0.06995893       0.004
  -0.06942412  0.08994719  0.07002578       0.004
   0.11053711  0.11053711  0.07069428       0.002
   0.13052537  0.11060396  0.07076113       0.004
  -0.12932207  0.10973490  0.06989208       0.004
  -0.10933380  0.10980176  0.06995893       0.004
  -0.08934554  0.10986861  0.07002578       0.004
  -0.06935727  0.10993546  0.07009263       0.004
   0.13059222  0.13059222  0.07082798       0.002
  -0.12925522  0.12972317  0.06995893       0.004
  -0.10926695  0.12979002  0.07002578       0.004
  -0.08927869  0.12985687  0.07009263       0.004
  -0.06929042  0.12992372  0.07015948       0.004
  -0.13012427 -0.13012427  0.06908987       0.002
  -0.11013601 -0.13005742  0.06915672       0.004
  -0.09014774 -0.12999057  0.06922357       0.004
  -0.11006916 -0.11006916  0.06922357       0.002
  -0.09008089 -0.11000231  0.06929042       0.004
  -0.09001404 -0.09001404  0.06935727       0.002
   0.09054884  0.09054884  0.09054884       0.001
   0.11053711  0.09061569  0.09061569       0.002
   0.13052537  0.09068255  0.09068255       0.002
  -0.12932207  0.08981349  0.08981349       0.002
  -0.10933380  0.08988034  0.08988034       0.002
  -0.08934554  0.08994719  0.08994719       0.002
   0.11060396  0.11060396  0.09068255       0.002
   0.13059222  0.11067081  0.09074940       0.004
  -0.12925522  0.10980176  0.08988034       0.004
  -0.10926695  0.10986861  0.08994719       0.004
  -0.08927869  0.10993546  0.09001404       0.004
   0.13065907  0.13065907  0.09081625       0.002
  -0.12918837  0.12979002  0.08994719       0.004
  -0.10920010  0.12985687  0.09001404       0.004
  -0.08921184  0.12992372  0.09008089       0.004
  -0.13005742 -0.13005742  0.08907814       0.002
  -0.11006916 -0.12999057  0.08914499       0.004
  -0.11000231 -0.11000231  0.08921184       0.002
   0.11067081  0.11067081  0.11067081       0.001
   0.13065907  0.11073766  0.11073766       0.002
  -0.12918837  0.10986861  0.10986861       0.002
  -0.10920010  0.10993546  0.10993546       0.002
   0.13072593  0.13072593  0.11080451       0.002
  -0.12912152  0.12985687  0.10993546       0.004
  -0.10913325  0.12992372  0.11000231       0.004
  -0.12999057 -0.12999057  0.10906640       0.002
   0.13079278  0.13079278  0.13079278       0.001
  -0.12905467  0.12992372  0.12992372       0.002
 
 k-points in reciprocal lattice and weights: K-Mesh Generated with KP-Resolved Value 
   0.03571429  0.03571429  0.03571429       0.001
   0.10714286  0.03571429  0.03571429       0.002
   0.17857143  0.03571429  0.03571429       0.002
   0.25000000  0.03571429  0.03571429       0.002
   0.32142857  0.03571429  0.03571429       0.002
   0.39285714  0.03571429  0.03571429       0.002
   0.46428571  0.03571429  0.03571429       0.002
  -0.46428571  0.03571429  0.03571429       0.002
  -0.39285714  0.03571429  0.03571429       0.002
  -0.32142857  0.03571429  0.03571429       0.002
  -0.25000000  0.03571429  0.03571429       0.002
  -0.17857143  0.03571429  0.03571429       0.002
  -0.10714286  0.03571429  0.03571429       0.002
  -0.03571429  0.03571429  0.03571429       0.002
   0.10714286  0.10714286  0.03571429       0.002
   0.17857143  0.10714286  0.03571429       0.004
   0.25000000  0.10714286  0.03571429       0.004
   0.32142857  0.10714286  0.03571429       0.004
   0.39285714  0.10714286  0.03571429       0.004
   0.46428571  0.10714286  0.03571429       0.004
  -0.46428571  0.10714286  0.03571429       0.004
  -0.39285714  0.10714286  0.03571429       0.004
  -0.32142857  0.10714286  0.03571429       0.004
  -0.25000000  0.10714286  0.03571429       0.004
  -0.17857143  0.10714286  0.03571429       0.004
  -0.10714286  0.10714286  0.03571429       0.004
  -0.03571429  0.10714286  0.03571429       0.004
   0.17857143  0.17857143  0.03571429       0.002
   0.25000000  0.17857143  0.03571429       0.004
   0.32142857  0.17857143  0.03571429       0.004
   0.39285714  0.17857143  0.03571429       0.004
   0.46428571  0.17857143  0.03571429       0.004
  -0.46428571  0.17857143  0.03571429       0.004
  -0.39285714  0.17857143  0.03571429       0.004
  -0.32142857  0.17857143  0.03571429       0.004
  -0.25000000  0.17857143  0.03571429       0.004
  -0.17857143  0.17857143  0.03571429       0.004
  -0.10714286  0.17857143  0.03571429       0.004
  -0.03571429  0.17857143  0.03571429       0.004
   0.25000000  0.25000000  0.03571429       0.002
   0.32142857  0.25000000  0.03571429       0.004
   0.39285714  0.25000000  0.03571429       0.004
   0.46428571  0.25000000  0.03571429       0.004
  -0.46428571  0.25000000  0.03571429       0.004
  -0.39285714  0.25000000  0.03571429       0.004
  -0.32142857  0.25000000  0.03571429       0.004
  -0.25000000  0.25000000  0.03571429       0.004
  -0.17857143  0.25000000  0.03571429       0.004
  -0.10714286  0.25000000  0.03571429       0.004
  -0.03571429  0.25000000  0.03571429       0.004
   0.32142857  0.32142857  0.03571429       0.002
   0.39285714  0.32142857  0.03571429       0.004
   0.46428571  0.32142857  0.03571429       0.004
  -0.46428571  0.32142857  0.03571429       0.004
  -0.39285714  0.32142857  0.03571429       0.004
  -0.32142857  0.32142857  0.03571429       0.004
  -0.25000000  0.32142857  0.03571429       0.004
  -0.17857143  0.32142857  0.03571429       0.004
  -0.10714286  0.32142857  0.03571429       0.004
  -0.03571429  0.32142857  0.03571429       0.004
   0.39285714  0.39285714  0.03571429       0.002
   0.46428571  0.39285714  0.03571429       0.004
  -0.46428571  0.39285714  0.03571429       0.004
  -0.39285714  0.39285714  0.03571429       0.004
  -0.32142857  0.39285714  0.03571429       0.004
  -0.25000000  0.39285714  0.03571429       0.004
  -0.17857143  0.39285714  0.03571429       0.004
  -0.10714286  0.39285714  0.03571429       0.004
  -0.03571429  0.39285714  0.03571429       0.004
   0.46428571  0.46428571  0.03571429       0.002
  -0.46428571  0.46428571  0.03571429       0.004
  -0.39285714  0.46428571  0.03571429       0.004
  -0.32142857  0.46428571  0.03571429       0.004
  -0.25000000  0.46428571  0.03571429       0.004
  -0.17857143  0.46428571  0.03571429       0.004
  -0.10714286  0.46428571  0.03571429       0.004
  -0.03571429  0.46428571  0.03571429       0.004
  -0.46428571 -0.46428571  0.03571429       0.002
  -0.39285714 -0.46428571  0.03571429       0.004
  -0.32142857 -0.46428571  0.03571429       0.004
  -0.25000000 -0.46428571  0.03571429       0.004
  -0.17857143 -0.46428571  0.03571429       0.004
  -0.10714286 -0.46428571  0.03571429       0.004
  -0.39285714 -0.39285714  0.03571429       0.002
  -0.32142857 -0.39285714  0.03571429       0.004
  -0.25000000 -0.39285714  0.03571429       0.004
  -0.17857143 -0.39285714  0.03571429       0.004
  -0.10714286 -0.39285714  0.03571429       0.004
  -0.32142857 -0.32142857  0.03571429       0.002
  -0.25000000 -0.32142857  0.03571429       0.004
  -0.17857143 -0.32142857  0.03571429       0.004
  -0.10714286 -0.32142857  0.03571429       0.004
  -0.25000000 -0.25000000  0.03571429       0.002
  -0.17857143 -0.25000000  0.03571429       0.004
  -0.10714286 -0.25000000  0.03571429       0.004
  -0.17857143 -0.17857143  0.03571429       0.002
  -0.10714286 -0.17857143  0.03571429       0.004
  -0.10714286 -0.10714286  0.03571429       0.002
   0.10714286  0.10714286  0.10714286       0.001
   0.17857143  0.10714286  0.10714286       0.002
   0.25000000  0.10714286  0.10714286       0.002
   0.32142857  0.10714286  0.10714286       0.002
   0.39285714  0.10714286  0.10714286       0.002
   0.46428571  0.10714286  0.10714286       0.002
  -0.46428571  0.10714286  0.10714286       0.002
  -0.39285714  0.10714286  0.10714286       0.002
  -0.32142857  0.10714286  0.10714286       0.002
  -0.25000000  0.10714286  0.10714286       0.002
  -0.17857143  0.10714286  0.10714286       0.002
  -0.10714286  0.10714286  0.10714286       0.002
   0.17857143  0.17857143  0.10714286       0.002
   0.25000000  0.17857143  0.10714286       0.004
   0.32142857  0.17857143  0.10714286       0.004
   0.39285714  0.17857143  0.10714286       0.004
   0.46428571  0.17857143  0.10714286       0.004
  -0.46428571  0.17857143  0.10714286       0.004
  -0.39285714  0.17857143  0.10714286       0.004
  -0.32142857  0.17857143  0.10714286       0.004
  -0.25000000  0.17857143  0.10714286       0.004
  -0.17857143  0.17857143  0.10714286       0.004
  -0.10714286  0.17857143  0.10714286       0.004
   0.25000000  0.25000000  0.10714286       0.002
   0.32142857  0.25000000  0.10714286       0.004
   0.39285714  0.25000000  0.10714286       0.004
   0.46428571  0.25000000  0.10714286       0.004
  -0.46428571  0.25000000  0.10714286       0.004
  -0.39285714  0.25000000  0.10714286       0.004
  -0.32142857  0.25000000  0.10714286       0.004
  -0.25000000  0.25000000  0.10714286       0.004
  -0.17857143  0.25000000  0.10714286       0.004
  -0.10714286  0.25000000  0.10714286       0.004
   0.32142857  0.32142857  0.10714286       0.002
   0.39285714  0.32142857  0.10714286       0.004
   0.46428571  0.32142857  0.10714286       0.004
  -0.46428571  0.32142857  0.10714286       0.004
  -0.39285714  0.32142857  0.10714286       0.004
  -0.32142857  0.32142857  0.10714286       0.004
  -0.25000000  0.32142857  0.10714286       0.004
  -0.17857143  0.32142857  0.10714286       0.004
  -0.10714286  0.32142857  0.10714286       0.004
   0.39285714  0.39285714  0.10714286       0.002
   0.46428571  0.39285714  0.10714286       0.004
  -0.46428571  0.39285714  0.10714286       0.004
  -0.39285714  0.39285714  0.10714286       0.004
  -0.32142857  0.39285714  0.10714286       0.004
  -0.25000000  0.39285714  0.10714286       0.004
  -0.17857143  0.39285714  0.10714286       0.004
  -0.10714286  0.39285714  0.10714286       0.004
   0.46428571  0.46428571  0.10714286       0.002
  -0.46428571  0.46428571  0.10714286       0.004
  -0.39285714  0.46428571  0.10714286       0.004
  -0.32142857  0.46428571  0.10714286       0.004
  -0.25000000  0.46428571  0.10714286       0.004
  -0.17857143  0.46428571  0.10714286       0.004
  -0.10714286  0.46428571  0.10714286       0.004
  -0.46428571 -0.46428571  0.10714286       0.002
  -0.39285714 -0.46428571  0.10714286       0.004
  -0.32142857 -0.46428571  0.10714286       0.004
  -0.25000000 -0.46428571  0.10714286       0.004
  -0.17857143 -0.46428571  0.10714286       0.004
  -0.39285714 -0.39285714  0.10714286       0.002
  -0.32142857 -0.39285714  0.10714286       0.004
  -0.25000000 -0.39285714  0.10714286       0.004
  -0.17857143 -0.39285714  0.10714286       0.004
  -0.32142857 -0.32142857  0.10714286       0.002
  -0.25000000 -0.32142857  0.10714286       0.004
  -0.17857143 -0.32142857  0.10714286       0.004
  -0.25000000 -0.25000000  0.10714286       0.002
  -0.17857143 -0.25000000  0.10714286       0.004
  -0.17857143 -0.17857143  0.10714286       0.002
   0.17857143  0.17857143  0.17857143       0.001
   0.25000000  0.17857143  0.17857143       0.002
   0.32142857  0.17857143  0.17857143       0.002
   0.39285714  0.17857143  0.17857143       0.002
   0.46428571  0.17857143  0.17857143       0.002
  -0.46428571  0.17857143  0.17857143       0.002
  -0.39285714  0.17857143  0.17857143       0.002
  -0.32142857  0.17857143  0.17857143       0.002
  -0.25000000  0.17857143  0.17857143       0.002
  -0.17857143  0.17857143  0.17857143       0.002
   0.25000000  0.25000000  0.17857143       0.002
   0.32142857  0.25000000  0.17857143       0.004
   0.39285714  0.25000000  0.17857143       0.004
   0.46428571  0.25000000  0.17857143       0.004
  -0.46428571  0.25000000  0.17857143       0.004
  -0.39285714  0.25000000  0.17857143       0.004
  -0.32142857  0.25000000  0.17857143       0.004
  -0.25000000  0.25000000  0.17857143       0.004
  -0.17857143  0.25000000  0.17857143       0.004
   0.32142857  0.32142857  0.17857143       0.002
   0.39285714  0.32142857  0.17857143       0.004
   0.46428571  0.32142857  0.17857143       0.004
  -0.46428571  0.32142857  0.17857143       0.004
  -0.39285714  0.32142857  0.17857143       0.004
  -0.32142857  0.32142857  0.17857143       0.004
  -0.25000000  0.32142857  0.17857143       0.004
  -0.17857143  0.32142857  0.17857143       0.004
   0.39285714  0.39285714  0.17857143       0.002
   0.46428571  0.39285714  0.17857143       0.004
  -0.46428571  0.39285714  0.17857143       0.004
  -0.39285714  0.39285714  0.17857143       0.004
  -0.32142857  0.39285714  0.17857143       0.004
  -0.25000000  0.39285714  0.17857143       0.004
  -0.17857143  0.39285714  0.17857143       0.004
   0.46428571  0.46428571  0.17857143       0.002
  -0.46428571  0.46428571  0.17857143       0.004
  -0.39285714  0.46428571  0.17857143       0.004
  -0.32142857  0.46428571  0.17857143       0.004
  -0.25000000  0.46428571  0.17857143       0.004
  -0.17857143  0.46428571  0.17857143       0.004
  -0.46428571 -0.46428571  0.17857143       0.002
  -0.39285714 -0.46428571  0.17857143       0.004
  -0.32142857 -0.46428571  0.17857143       0.004
  -0.25000000 -0.46428571  0.17857143       0.004
  -0.39285714 -0.39285714  0.17857143       0.002
  -0.32142857 -0.39285714  0.17857143       0.004
  -0.25000000 -0.39285714  0.17857143       0.004
  -0.32142857 -0.32142857  0.17857143       0.002
  -0.25000000 -0.32142857  0.17857143       0.004
  -0.25000000 -0.25000000  0.17857143       0.002
   0.25000000  0.25000000  0.25000000       0.001
   0.32142857  0.25000000  0.25000000       0.002
   0.39285714  0.25000000  0.25000000       0.002
   0.46428571  0.25000000  0.25000000       0.002
  -0.46428571  0.25000000  0.25000000       0.002
  -0.39285714  0.25000000  0.25000000       0.002
  -0.32142857  0.25000000  0.25000000       0.002
  -0.25000000  0.25000000  0.25000000       0.002
   0.32142857  0.32142857  0.25000000       0.002
   0.39285714  0.32142857  0.25000000       0.004
   0.46428571  0.32142857  0.25000000       0.004
  -0.46428571  0.32142857  0.25000000       0.004
  -0.39285714  0.32142857  0.25000000       0.004
  -0.32142857  0.32142857  0.25000000       0.004
  -0.25000000  0.32142857  0.25000000       0.004
   0.39285714  0.39285714  0.25000000       0.002
   0.46428571  0.39285714  0.25000000       0.004
  -0.46428571  0.39285714  0.25000000       0.004
  -0.39285714  0.39285714  0.25000000       0.004
  -0.32142857  0.39285714  0.25000000       0.004
  -0.25000000  0.39285714  0.25000000       0.004
   0.46428571  0.46428571  0.25000000       0.002
  -0.46428571  0.46428571  0.25000000       0.004
  -0.39285714  0.46428571  0.25000000       0.004
  -0.32142857  0.46428571  0.25000000       0.004
  -0.25000000  0.46428571  0.25000000       0.004
  -0.46428571 -0.46428571  0.25000000       0.002
  -0.39285714 -0.46428571  0.25000000       0.004
  -0.32142857 -0.46428571  0.25000000       0.004
  -0.39285714 -0.39285714  0.25000000       0.002
  -0.32142857 -0.39285714  0.25000000       0.004
  -0.32142857 -0.32142857  0.25000000       0.002
   0.32142857  0.32142857  0.32142857       0.001
   0.39285714  0.32142857  0.32142857       0.002
   0.46428571  0.32142857  0.32142857       0.002
  -0.46428571  0.32142857  0.32142857       0.002
  -0.39285714  0.32142857  0.32142857       0.002
  -0.32142857  0.32142857  0.32142857       0.002
   0.39285714  0.39285714  0.32142857       0.002
   0.46428571  0.39285714  0.32142857       0.004
  -0.46428571  0.39285714  0.32142857       0.004
  -0.39285714  0.39285714  0.32142857       0.004
  -0.32142857  0.39285714  0.32142857       0.004
   0.46428571  0.46428571  0.32142857       0.002
  -0.46428571  0.46428571  0.32142857       0.004
  -0.39285714  0.46428571  0.32142857       0.004
  -0.32142857  0.46428571  0.32142857       0.004
  -0.46428571 -0.46428571  0.32142857       0.002
  -0.39285714 -0.46428571  0.32142857       0.004
  -0.39285714 -0.39285714  0.32142857       0.002
   0.39285714  0.39285714  0.39285714       0.001
   0.46428571  0.39285714  0.39285714       0.002
  -0.46428571  0.39285714  0.39285714       0.002
  -0.39285714  0.39285714  0.39285714       0.002
   0.46428571  0.46428571  0.39285714       0.002
  -0.46428571  0.46428571  0.39285714       0.004
  -0.39285714  0.46428571  0.39285714       0.004
  -0.46428571 -0.46428571  0.39285714       0.002
   0.46428571  0.46428571  0.46428571       0.001
  -0.46428571  0.46428571  0.46428571       0.002
 
 position of ions in fractional coordinates (direct lattice) 
   0.25000000  0.25000000  0.25000000
   0.00000000  0.00000000  0.00000000
   0.25000000  0.75000000  0.75000000
   0.00000000  0.50000000  0.50000000
   0.75000000  0.25000000  0.75000000
   0.50000000  0.00000000  0.50000000
   0.75000000  0.75000000  0.25000000
   0.50000000  0.50000000  0.00000000
 
 position of ions in cartesian coordinates  (Angst):
   0.88744526  0.88744526  0.88744526
   0.00000000  0.00000000  0.00000000
   0.87553324  2.66829179  2.66829179
  -0.01191202  1.78084653  1.78084653
   2.66829179  0.87553324  2.66829179
   1.78084653 -0.01191202  1.78084653
   2.66829179  2.66829179  0.87553324
   1.78084653  1.78084653 -0.01191202
 


--------------------------------------------------------------------------------------------------------


 k-point  1 :   0.0357 0.0357 0.0357  plane waves:    2688
 k-point  2 :   0.1071 0.0357 0.0357  plane waves:    2690
 k-point  3 :   0.1786 0.0357 0.0357  plane waves:    2689
 k-point  4 :   0.2500 0.0357 0.0357  plane waves:    2690
 k-point  5 :   0.3214 0.0357 0.0357  plane waves:    2698
 k-point  6 :   0.3929 0.0357 0.0357  plane waves:    2696
 k-point  7 :   0.4643 0.0357 0.0357  plane waves:    2698
 k-point  8 :  -0.4643 0.0357 0.0357  plane waves:    2700
 k-point  9 :  -0.3929 0.0357 0.0357  plane waves:    2688
 k-point 10 :  -0.3214 0.0357 0.0357  plane waves:    2709
 k-point 11 :  -0.2500 0.0357 0.0357  plane waves:    2696
 k-point 12 :  -0.1786 0.0357 0.0357  plane waves:    2679
 k-point 13 :  -0.1071 0.0357 0.0357  plane waves:    2674
 k-point 14 :  -0.0357 0.0357 0.0357  plane waves:    2675
 k-point 15 :   0.1071 0.1071 0.0357  plane waves:    2690
 k-point 16 :   0.1786 0.1071 0.0357  plane waves:    2686
 k-point 17 :   0.2500 0.1071 0.0357  plane waves:    2697
 k-point 18 :   0.3214 0.1071 0.0357  plane waves:    2693
 k-point 19 :   0.3929 0.1071 0.0357  plane waves:    2684
 k-point 20 :   0.4643 0.1071 0.0357  plane waves:    2693
 k-point 21 :  -0.4643 0.1071 0.0357  plane waves:    2693
 k-point 22 :  -0.3929 0.1071 0.0357  plane waves:    2685
 k-point 23 :  -0.3214 0.1071 0.0357  plane waves:    2693
 k-point 24 :  -0.2500 0.1071 0.0357  plane waves:    2693
 k-point 25 :  -0.1786 0.1071 0.0357  plane waves:    2689
 k-point 26 :  -0.1071 0.1071 0.0357  plane waves:    2677
 k-point 27 :  -0.0357 0.1071 0.0357  plane waves:    2679
 k-point 28 :   0.1786 0.1786 0.0357  plane waves:    2685
 k-point 29 :   0.2500 0.1786 0.0357  plane waves:    2689
 k-point 30 :   0.3214 0.1786 0.0357  plane waves:    2691
 k-point 31 :   0.3929 0.1786 0.0357  plane waves:    2688
 k-point 32 :   0.4643 0.1786 0.0357  plane waves:    2696
 k-point 33 :  -0.4643 0.1786 0.0357  plane waves:    2689
 k-point 34 :  -0.3929 0.1786 0.0357  plane waves:    2685
 k-point 35 :  -0.3214 0.1786 0.0357  plane waves:    2684
 k-point 36 :  -0.2500 0.1786 0.0357  plane waves:    2686
 k-point 37 :  -0.1786 0.1786 0.0357  plane waves:    2687
 k-point 38 :  -0.1071 0.1786 0.0357  plane waves:    2688
 k-point 39 :  -0.0357 0.1786 0.0357  plane waves:    2684
 k-point 40 :   0.2500 0.2500 0.0357  plane waves:    2685
 k-point 41 :   0.3214 0.2500 0.0357  plane waves:    2677
 k-point 42 :   0.3929 0.2500 0.0357  plane waves:    2679
 k-point 43 :   0.4643 0.2500 0.0357  plane waves:    2691
 k-point 44 :  -0.4643 0.2500 0.0357  plane waves:    2683
 k-point 45 :  -0.3929 0.2500 0.0357  plane waves:    2678
 k-point 46 :  -0.3214 0.2500 0.0357  plane waves:    2680
 k-point 47 :  -0.2500 0.2500 0.0357  plane waves:    2685
 k-point 48 :  -0.1786 0.2500 0.0357  plane waves:    2690
 k-point 49 :  -0.1071 0.2500 0.0357  plane waves:    2693
 k-point 50 :  -0.0357 0.2500 0.0357  plane waves:    2693
 k-point 51 :   0.3214 0.3214 0.0357  plane waves:    2682
 k-point 52 :   0.3929 0.3214 0.0357  plane waves:    2679
 k-point 53 :   0.4643 0.3214 0.0357  plane waves:    2669
 k-point 54 :  -0.4643 0.3214 0.0357  plane waves:    2682
 k-point 55 :  -0.3929 0.3214 0.0357  plane waves:    2675
 k-point 56 :  -0.3214 0.3214 0.0357  plane waves:    2679
 k-point 57 :  -0.2500 0.3214 0.0357  plane waves:    2682
 k-point 58 :  -0.1786 0.3214 0.0357  plane waves:    2682
 k-point 59 :  -0.1071 0.3214 0.0357  plane waves:    2692
 k-point 60 :  -0.0357 0.3214 0.0357  plane waves:    2692
 k-point 61 :   0.3929 0.3929 0.0357  plane waves:    2680
 k-point 62 :   0.4643 0.3929 0.0357  plane waves:    2675
 k-point 63 :  -0.4643 0.3929 0.0357  plane waves:    2683
 k-point 64 :  -0.3929 0.3929 0.0357  plane waves:    2681
 k-point 65 :  -0.3214 0.3929 0.0357  plane waves:    2679
 k-point 66 :  -0.2500 0.3929 0.0357  plane waves:    2678
 k-point 67 :  -0.1786 0.3929 0.0357  plane waves:    2682
 k-point 68 :  -0.1071 0.3929 0.0357  plane waves:    2690
 k-point 69 :  -0.0357 0.3929 0.0357  plane waves:    2687
 k-point 70 :   0.4643 0.4643 0.0357  plane waves:    2684
 k-point 71 :  -0.4643 0.4643 0.0357  plane waves:    2685
 k-point 72 :  -0.3929 0.4643 0.0357  plane waves:    2680
 k-point 73 :  -0.3214 0.4643 0.0357  plane waves:    2677
 k-point 74 :  -0.2500 0.4643 0.0357  plane waves:    2675
 k-point 75 :  -0.1786 0.4643 0.0357  plane waves:    2688
 k-point 76 :  -0.1071 0.4643 0.0357  plane waves:    2698
 k-point 77 :  -0.0357 0.4643 0.0357  plane waves:    2692
 k-point 78 :  -0.4643-0.4643 0.0357  plane waves:    2683
 k-point 79 :  -0.3929-0.4643 0.0357  plane waves:    2676
 k-point 80 :  -0.3214-0.4643 0.0357  plane waves:    2675
 k-point 81 :  -0.2500-0.4643 0.0357  plane waves:    2684
 k-point 82 :  -0.1786-0.4643 0.0357  plane waves:    2690
 k-point 83 :  -0.1071-0.4643 0.0357  plane waves:    2693
 k-point 84 :  -0.3929-0.3929 0.0357  plane waves:    2670
 k-point 85 :  -0.3214-0.3929 0.0357  plane waves:    2671
 k-point 86 :  -0.2500-0.3929 0.0357  plane waves:    2676
 k-point 87 :  -0.1786-0.3929 0.0357  plane waves:    2689
 k-point 88 :  -0.1071-0.3929 0.0357  plane waves:    2687
 k-point 89 :  -0.3214-0.3214 0.0357  plane waves:    2677
 k-point 90 :  -0.2500-0.3214 0.0357  plane waves:    2673
 k-point 91 :  -0.1786-0.3214 0.0357  plane waves:    2686
 k-point 92 :  -0.1071-0.3214 0.0357  plane waves:    2691
 k-point 93 :  -0.2500-0.2500 0.0357  plane waves:    2678
 k-point 94 :  -0.1786-0.2500 0.0357  plane waves:    2691
 k-point 95 :  -0.1071-0.2500 0.0357  plane waves:    2695
 k-point 96 :  -0.1786-0.1786 0.0357  plane waves:    2684
 k-point 97 :  -0.1071-0.1786 0.0357  plane waves:    2686
 k-point 98 :  -0.1071-0.1071 0.0357  plane waves:    2683
 k-point 99 :   0.1071 0.1071 0.1071  plane waves:    2683
 k-point ** :   0.1786 0.1071 0.1071  plane waves:    2685
 k-point ** :   0.2500 0.1071 0.1071  plane waves:    2690
 k-point ** :   0.3214 0.1071 0.1071  plane waves:    2700
 k-point ** :   0.3929 0.1071 0.1071  plane waves:    2692
 k-point ** :   0.4643 0.1071 0.1071  plane waves:    2701
 k-point ** :  -0.4643 0.1071 0.1071  plane waves:    2695
 k-point ** :  -0.3929 0.1071 0.1071  plane waves:    2699
 k-point ** :  -0.3214 0.1071 0.1071  plane waves:    2686
 k-point ** :  -0.2500 0.1071 0.1071  plane waves:    2696
[...]
     16       8.2319      2.00000
     17      18.8518      0.00000
     18      19.1496      0.00000
     19      19.1496      0.00000
     20      19.3107      0.00000
     21      19.3476      0.00000
     22      19.7788      0.00000
     23      19.7788      0.00000
     24      19.9419      0.00000

 k-point   269 :      -0.3929   -0.4643    0.3214
  band No.  band energies     occupation 
      1      -6.3670      2.00000
      2      -5.7977      2.00000
      3      -4.8160      2.00000
      4      -4.3511      2.00000
      5      -2.0509      2.00000
      6      -1.7682      2.00000
      7      -0.8130      2.00000
      8      -0.2611      2.00000
      9       6.3385      2.00000
     10       6.6460      2.00000
     11       7.3344      2.00000
     12       7.3853      2.00000
     13       7.4847      2.00000
     14       7.7498      2.00000
     15       7.8242      2.00000
     16       8.2879      2.00000
     17      18.7053      0.00000
     18      18.8028      0.00000
     19      18.9878      0.00000
     20      19.0376      0.00000
     21      19.5524      0.00000
     22      19.9474      0.00000
     23      20.0246      0.00000
     24      20.0770      0.00000

 k-point   270 :      -0.3929   -0.3929    0.3214
  band No.  band energies     occupation 
      1      -6.8806      2.00000
      2      -5.1762      2.00000
      3      -5.1762      2.00000
      4      -4.2673      2.00000
      5      -1.9729      2.00000
      6      -1.2576      2.00000
      7      -1.2576      2.00000
      8       0.3951      2.00000
      9       6.0934      2.00000
     10       6.7367      2.00000
     11       6.7367      2.00000
     12       7.2058      2.00000
     13       7.3424      2.00000
     14       7.3424      2.00000
     15       8.0893      2.00000
     16       8.5183      2.00000
     17      18.2967      0.00000
     18      18.5584      0.00000
     19      18.5584      0.00000
     20      19.0300      0.00000
     21      19.3920      0.00000
     22      19.7184      0.00000
     23      20.5437      0.00000
     24      20.5437      0.00000

 k-point   271 :       0.3929    0.3929    0.3929
  band No.  band energies     occupation 
      1      -6.3702      2.00000
      2      -4.9043      2.00000
      3      -4.9043      2.00000
      4      -4.9043      2.00000
      5      -1.8313      2.00000
      6      -1.8313      2.00000
      7      -1.8313      2.00000
      8      -0.2376      2.00000
      9       7.0654      2.00000
     10       7.0654      2.00000
     11       7.0654      2.00000
     12       7.5353      2.00000
     13       7.5353      2.00000
     14       7.5353      2.00000
     15       8.1791      2.00000
     16       8.1791      2.00000
     17      18.6407      0.00000
     18      18.6407      0.00000
     19      18.6407      0.00000
     20      19.1965      0.00000
     21      19.1965      0.00000
     22      19.3060      0.00000
     23      20.2608      0.00000
     24      20.2608      0.00000

 k-point   272 :       0.4643    0.3929    0.3929
  band No.  band energies     occupation 
      1      -5.8643      2.00000
      2      -5.4442      2.00000
      3      -4.6967      2.00000
      4      -4.6967      2.00000
      5      -2.2048      2.00000
      6      -2.2048      2.00000
      7      -1.4723      2.00000
      8      -0.8929      2.00000
      9       7.1889      2.00000
     10       7.1889      2.00000
     11       7.7106      2.00000
     12       7.7106      2.00000
     13       7.7470      2.00000
     14       7.7942      2.00000
     15       7.9332      2.00000
     16       8.0708      2.00000
     17      18.9091      0.00000
     18      19.0099      0.00000
     19      19.0099      0.00000
     20      19.0365      0.00000
     21      19.4409      0.00000
     22      19.4737      0.00000
     23      19.7209      0.00000
     24      19.7209      0.00000

 k-point   273 :      -0.4643    0.3929    0.3929
  band No.  band energies     occupation 
      1      -5.9778      2.00000
      2      -5.3073      2.00000
      3      -4.6910      2.00000
      4      -4.6910      2.00000
      5      -2.2151      2.00000
      6      -2.2151      2.00000
      7      -1.4384      2.00000
      8      -0.9564      2.00000
      9       7.1864      2.00000
     10       7.1864      2.00000
     11       7.6474      2.00000
     12       7.6795      2.00000
     13       7.7225      2.00000
     14       7.7225      2.00000
     15       8.0549      2.00000
     16       8.1736      2.00000
     17      18.8182      0.00000
     18      19.0496      0.00000
     19      19.0496      0.00000
     20      19.1369      0.00000
     21      19.4256      0.00000
     22      19.7043      0.00000
     23      19.7043      0.00000
     24      19.7951      0.00000

 k-point   274 :      -0.3929    0.3929    0.3929
  band No.  band energies     occupation 
      1      -6.4631      2.00000
      2      -4.8917      2.00000
      3      -4.8917      2.00000
      4      -4.7419      2.00000
      5      -1.8575      2.00000
      6      -1.8575      2.00000
      7      -1.8308      2.00000
      8      -0.3263      2.00000
      9       6.9640      2.00000
     10       7.0709      2.00000
     11       7.0709      2.00000
     12       7.4323      2.00000
     13       7.5557      2.00000
     14       7.5557      2.00000
     15       8.2914      2.00000
     16       8.3013      2.00000
     17      18.5614      0.00000
     18      18.7008      0.00000
     19      18.7008      0.00000
     20      19.1703      0.00000
     21      19.3019      0.00000
     22      19.6512      0.00000
     23      20.2463      0.00000
     24      20.3442      0.00000

 k-point   275 :       0.4643    0.4643    0.3929
  band No.  band energies     occupation 
      1      -5.3930      2.00000
      2      -5.0711      2.00000
      3      -5.0711      2.00000
      4      -4.7738      2.00000
      5      -2.2990      2.00000
      6      -2.0064      2.00000
      7      -2.0064      2.00000
      8      -1.5175      2.00000
      9       7.5125      2.00000
     10       7.6696      2.00000
     11       7.6696      2.00000
     12       7.8135      2.00000
     13       7.9243      2.00000
     14       7.9834      2.00000
     15       7.9834      2.00000
     16       8.0694      2.00000
     17      19.1157      0.00000
     18      19.2235      0.00000
     19      19.2235      0.00000
     20      19.2375      0.00000
     21      19.2703      0.00000
     22      19.4460      0.00000
     23      19.4460      0.00000
     24      19.4876      0.00000

 k-point   276 :      -0.4643    0.4643    0.3929
  band No.  band energies     occupation 
      1      -5.5253      2.00000
      2      -5.0601      2.00000
      3      -4.9103      2.00000
      4      -4.7801      2.00000
      5      -2.2954      2.00000
      6      -2.0207      2.00000
      7      -1.9920      2.00000
      8      -1.5644      2.00000
      9       7.5112      2.00000
     10       7.5596      2.00000
     11       7.6772      2.00000
     12       7.8651      2.00000
     13       7.9248      2.00000
     14       7.9343      2.00000
     15       7.9893      2.00000
     16       8.1837      2.00000
     17      19.1130      0.00000
     18      19.1263      0.00000
     19      19.1963      0.00000
     20      19.2542      0.00000
     21      19.3938      0.00000
     22      19.3990      0.00000
     23      19.4573      0.00000
     24      19.7157      0.00000

 k-point   277 :      -0.3929    0.4643    0.3929
  band No.  band energies     occupation 
      1      -5.9711      2.00000
      2      -5.4324      2.00000
      3      -4.6954      2.00000
      4      -4.5145      2.00000
      5      -2.2177      2.00000
      6      -2.2149      2.00000
      7      -1.4934      2.00000
      8      -0.9678      2.00000
      9       7.0837      2.00000
     10       7.2126      2.00000
     11       7.5948      2.00000
     12       7.6964      2.00000
     13       7.7616      2.00000
     14       7.8045      2.00000
     15       8.0538      2.00000
     16       8.1917      2.00000
     17      18.9184      0.00000
     18      18.9207      0.00000
     19      19.0123      0.00000
     20      19.0792      0.00000
     21      19.5224      0.00000
     22      19.6388      0.00000
     23      19.7898      0.00000
     24      19.8845      0.00000

 k-point   278 :      -0.4643   -0.4643    0.3929
  band No.  band energies     occupation 
      1      -5.5181      2.00000
      2      -5.0669      2.00000
      3      -5.0669      2.00000
      4      -4.5971      2.00000
      5      -2.3008      2.00000
      6      -2.0151      2.00000
      7      -2.0151      2.00000
      8      -1.5735      2.00000
      9       7.3946      2.00000
     10       7.6880      2.00000
     11       7.6880      2.00000
     12       7.8073      2.00000
     13       7.9354      2.00000
     14       7.9736      2.00000
     15       7.9736      2.00000
     16       8.1936      2.00000
     17      19.0268      0.00000
     18      19.1418      0.00000
     19      19.1418      0.00000
     20      19.2234      0.00000
     21      19.3648      0.00000
     22      19.5973      0.00000
     23      19.6827      0.00000
     24      19.6827      0.00000

 k-point   279 :       0.4643    0.4643    0.4643
  band No.  band energies     occupation 
      1      -4.9942      2.00000
      2      -4.8626      2.00000
      3      -4.8626      2.00000
      4      -4.8626      2.00000
      5      -2.3807      2.00000
      6      -2.3807      2.00000
      7      -2.3807      2.00000
      8      -2.0748      2.00000
      9       7.9652      2.00000
     10       7.9652      2.00000
     11       7.9652      2.00000
     12       7.9986      2.00000
     13       7.9986      2.00000
     14       8.0356      2.00000
     15       8.0356      2.00000
     16       8.0356      2.00000
     17      19.2321      0.00000
     18      19.2321      0.00000
     19      19.2667      0.00000
     20      19.2667      0.00000
     21      19.2667      0.00000
     22      19.3461      0.00000
     23      19.3461      0.00000
     24      19.3495      0.00000

 k-point   280 :      -0.4643    0.4643    0.4643
  band No.  band energies     occupation 
      1      -5.1508      2.00000
      2      -4.8607      2.00000
      3      -4.8607      2.00000
      4      -4.6794      2.00000
      5      -2.3855      2.00000
      6      -2.3841      2.00000
      7      -2.3841      2.00000
      8      -2.0987      2.00000
      9       7.8517      2.00000
     10       7.9094      2.00000
     11       7.9745      2.00000
     12       7.9745      2.00000
     13       8.0296      2.00000
     14       8.0296      2.00000
     15       8.1133      2.00000
     16       8.1277      2.00000
     17      19.1619      0.00000
     18      19.1985      0.00000
     19      19.1985      0.00000
     20      19.2192      0.00000
     21      19.3532      0.00000
     22      19.3538      0.00000
     23      19.4686      0.00000
     24      19.4689      0.00000


--------------------------------------------------------------------------------------------------------


 soft charge-density along one line, spin component           1
         0         1         2         3         4         5         6         7         8         9
 total charge-density along one line
 
 pseudopotential strength for first ion, spin component:           1
 12.170  20.467   0.000   0.000   0.000   0.000   0.000   0.000
 20.467  34.420   0.000   0.000   0.000   0.000   0.000   0.000
  0.000   0.000  -2.970   0.000   0.000  -5.306   0.000   0.000
  0.000   0.000   0.000  -2.970   0.000   0.000  -5.306   0.000
  0.000   0.000   0.000   0.000  -2.970   0.000   0.000  -5.306
  0.000   0.000  -5.306   0.000   0.000  -9.460   0.000   0.000
  0.000   0.000   0.000  -5.306   0.000   0.000  -9.460   0.000
  0.000   0.000   0.000   0.000  -5.306   0.000   0.000  -9.460
 total augmentation occupancy for first ion, spin component:           1
  7.187  -2.506  -0.040  -0.040  -0.040   0.017   0.017   0.017
 -2.506   0.929   0.017   0.017   0.017  -0.007  -0.007  -0.007
 -0.040   0.017   5.671   0.022   0.022  -1.836  -0.007  -0.007
 -0.040   0.017   0.022   5.671   0.022  -0.007  -1.836  -0.007
 -0.040   0.017   0.022   0.022   5.671  -0.007  -0.007  -1.836
  0.017  -0.007  -1.836  -0.007  -0.007   0.612   0.003   0.003
  0.017  -0.007  -0.007  -1.836  -0.007   0.003   0.612   0.003
  0.017  -0.007  -0.007  -0.007  -1.836   0.003   0.003   0.612


------------------------ aborting loop because EDIFF is reached ----------------------------------------


    CHARGE:  cpu time    0.2100: real time    0.2106
    FORLOC:  cpu time    0.0010: real time    0.0003
    FORNL :  cpu time    0.6359: real time    0.6399
    STRESS:  cpu time    4.0444: real time    4.0535
    FORCOR:  cpu time    0.0030: real time    0.0034
    FORHAR:  cpu time    0.0010: real time    0.0009
    MIXING:  cpu time    0.0010: real time    0.0004
    OFIELD:  cpu time    0.0000: real time    0.0001

  FORCE on cell =-STRESS in cart. coord.  units (eV):
  Direction    XX          YY          ZZ          XY          YZ          ZX
  --------------------------------------------------------------------------------------
  Alpha Z    76.88113    76.88113    76.88113
  Ewald    -463.05875  -463.05875  -463.05875     3.07568     3.07568     3.07568
  Hartree    35.19938    35.19938    35.19938     0.81459     0.81459     0.81459
  E(xc)    -132.03372  -132.03372  -132.03372    -0.01102    -0.01102    -0.01102
  Local    -126.66777  -126.66777  -126.66777    -3.74348    -3.74348    -3.74348
  n-local    28.68783    28.68737    28.78759    -0.17425     0.33616    -0.51545
  augment     0.48717     0.48717     0.48717     0.00239     0.00239     0.00239
  Kinetic   577.45101   577.47584   585.37305     1.64672    -3.50834     4.98114
  Fock        0.00000     0.00000     0.00000     0.00000     0.00000     0.00000
  -------------------------------------------------------------------------------------
  Total      -0.37168    -0.37168    -0.37168     1.06016     1.06016     1.06016
  in kB     -13.04880   -13.04880   -13.04880    37.22006    37.22006    37.22006
  external pressure =      -13.05 kB  Pullay stress =        0.00 kB


 VOLUME and BASIS-vectors are now :
 -----------------------------------------------------------------------------
  energy-cutoff  :      875.00
  volume of cell :       45.64
      direct lattice vectors                 reciprocal lattice vectors
     3.573605071 -0.011912017 -0.011912017     0.279835706  0.000935905  0.000935905
    -0.011912017  3.573605071 -0.011912017     0.000935905  0.279835706  0.000935905
    -0.011912017 -0.011912017  3.573605071     0.000935905  0.000935905  0.279835706

  length of vectors
     3.573644777  3.573644777  3.573644777     0.279838836  0.279838836  0.279838836


 FORCES acting on ions
    electron-ion (+dipol)            ewald-force                    non-local-force                 convergence-correction
 -----------------------------------------------------------------------------------------------
   -.125E+01 -.125E+01 -.125E+01   0.117E+01 0.117E+01 0.117E+01   0.866E-01 0.866E-01 0.866E-01   -.294E-05 -.294E-05 -.294E-05
   0.125E+01 0.125E+01 0.125E+01   -.117E+01 -.117E+01 -.117E+01   -.866E-01 -.866E-01 -.866E-01   0.294E-05 0.294E-05 0.294E-05
   -.125E+01 -.125E+01 -.125E+01   0.117E+01 0.117E+01 0.117E+01   0.866E-01 0.866E-01 0.866E-01   -.294E-05 -.294E-05 -.294E-05
   0.125E+01 0.125E+01 0.125E+01   -.117E+01 -.117E+01 -.117E+01   -.866E-01 -.866E-01 -.866E-01   0.294E-05 0.294E-05 0.294E-05
   -.125E+01 -.125E+01 -.125E+01   0.117E+01 0.117E+01 0.117E+01   0.866E-01 0.866E-01 0.866E-01   -.294E-05 -.294E-05 -.294E-05
   0.125E+01 0.125E+01 0.125E+01   -.117E+01 -.117E+01 -.117E+01   -.866E-01 -.866E-01 -.866E-01   0.294E-05 0.294E-05 0.294E-05
   -.125E+01 -.125E+01 -.125E+01   0.117E+01 0.117E+01 0.117E+01   0.866E-01 0.866E-01 0.866E-01   -.294E-05 -.294E-05 -.294E-05
   0.125E+01 0.125E+01 0.125E+01   -.117E+01 -.117E+01 -.117E+01   -.866E-01 -.866E-01 -.866E-01   0.294E-05 0.294E-05 0.294E-05
 -----------------------------------------------------------------------------------------------
   -.380E-14 -.324E-11 -.194E-11   -.140E-13 0.333E-14 -.444E-15   -.305E-15 -.555E-16 0.111E-15   0.161E-13 0.750E-16 0.192E-15
 
 
 POSITION                                       TOTAL-FORCE (eV/Angst)
 -----------------------------------------------------------------------------------
      0.88772      0.88772      0.88772        -0.000021     -0.000021     -0.000021
     -0.00027     -0.00027     -0.00027         0.000021      0.000021      0.000021
      0.87581      2.66857      2.66857        -0.000021     -0.000021     -0.000021
     -0.01219      1.78057      1.78057         0.000021      0.000021      0.000021
      2.66857      0.87581      2.66857        -0.000021     -0.000021     -0.000021
      1.78057     -0.01219      1.78057         0.000021      0.000021      0.000021
      2.66857      2.66857      0.87581        -0.000021     -0.000021     -0.000021
      1.78057      1.78057     -0.01219         0.000021      0.000021      0.000021
 -----------------------------------------------------------------------------------
    total drift:                               -0.000000     -0.000000     -0.000000


--------------------------------------------------------------------------------------------------------



  FREE ENERGIE OF THE ION-ELECTRON SYSTEM (eV)
  ---------------------------------------------------
  free  energy   TOTEN  =       -72.83448500 eV

  energy  without entropy=      -72.83448500  energy(sigma->0) =      -72.83448500
 
 d Force = 0.4666908E-03[ 0.359E-06, 0.933E-03]  d Energy = 0.4671129E-03-0.422E-06
 d Force =-0.1907813E-01[-0.202E-01,-0.180E-01]  d Ewald  =-0.1907553E-01-0.260E-05


--------------------------------------------------------------------------------------------------------


    POTLOK:  cpu time    0.0110: real time    0.0114


--------------------------------------------------------------------------------------------------------


 stress matrix after NEB project (eV)
     -0.37168      1.06016      1.06016
      1.06016     -0.37168      1.06016
      1.06016      1.06016     -0.37168
  FORCES: max atom, RMS     0.000036    0.000036
  FORCE total and by dimension    0.000102    0.000021
  Stress total and by dimension    2.675458    1.060161


--------------------------------------------------------------------------------------------------------


  
 reached required accuracy - stopping structural energy minimisation
     LOOP+:  cpu time   48.1767: real time   48.3813
    4ORBIT:  cpu time    0.0000: real time    0.0000

 total amount of memory used by VASP MPI-rank0    94461. kBytes
=======================================================================

   base      :      30000. kBytes
   nonl-proj :      48946. kBytes
   fftplans  :        905. kBytes
   grid      :       2114. kBytes
   one-center:         24. kBytes
   wavefun   :      12472. kBytes
 
  
  
 General timing and accounting informations for this job:
 ========================================================
  
                  Total CPU time used (sec):      199.303
                            User time (sec):      197.338
                          System time (sec):        1.965
                         Elapsed time (sec):      208.163
  
                   Maximum memory used (kb):      188760.
                   Average memory used (kb):           0.
  
                          Minor page faults:        47233
                          Major page faults:          381
                 Voluntary context switches:         8001
