<?xml version="1.0" encoding="ISO-8859-1"?>
<modeling>
 <generator>
  <i name="program" type="string">vasp </i>
  <i name="version" type="string">5.4.4.18Apr17-6-g9f103f2a35  </i>
  <i name="subversion" type="string">(build Jan 14 2019 14:48:31) complex            parallel </i>
  <i name="platform" type="string">LinuxIFC </i>
  <i name="date" type="string">2019 08 26 </i>
  <i name="time" type="string">20:54:04 </i>
 </generator>
 <incar>
  <i type="int" name="ISTART">     0</i>
  <i type="string" name="PREC">high     (precision level)</i>
  <i type="logical" name="ADDGRID"> T  </i>
  <i type="int" name="NELM">    40</i>
  <i type="int" name="NELMIN">     4</i>
  <i type="int" name="IBRION">     2</i>
  <i name="EDIFF">      0.00000001</i>
  <i name="EDIFFG">     -0.01000000</i>
  <i type="int" name="NSW">   100</i>
  <i type="int" name="ISIF">     2</i>
  <i type="logical" name="LREAL"> F  </i>
  <i type="int" name="ISMEAR">     0</i>
  <i name="SIGMA">      0.05000000</i>
  <i type="logical" name="LWAVE"> F  </i>
  <i type="logical" name="LCHARG"> F  </i>
  <v type="int" name="KPOINT_BSE">    -1     0     0     0</v>
  <i type="int" name="NELM">    40</i>
 </incar>
 <structure name="primitive_cell" >
  <crystal>
   <varray name="basis" >
    <v>      -0.01191202       1.78084653       1.78084653 </v>
    <v>       1.78084653      -0.01191202       1.78084653 </v>
    <v>       1.78084653       1.78084653      -0.01191202 </v>
   </varray>
   <i name="volume">     11.40893661 </i>
   <varray name="rec_basis" >
    <v>      -0.27796389       0.27983571       0.27983571 </v>
    <v>       0.27983571      -0.27796389       0.27983571 </v>
    <v>       0.27983571       0.27983571      -0.27796389 </v>
   </varray>
  </crystal>
  <varray name="positions" >
   <v>       0.25000000       0.25000000       0.25000000 </v>
   <v>       0.00000000       0.00000000       0.00000000 </v>
  </varray>
 </structure>
 <varray name="primitive_index" >
  <v type="int" >        1 </v>
  <v type="int" >        2 </v>
 </varray>
 <kpoints>
  <generation param="Monkhorst-Pack">
   <v type="int" name="divisions">      14       14       14 </v>
   <v name="usershift">      0.00000000       0.00000000       0.00000000 </v>
   <v name="genvec1">      0.07142857       0.00000000       0.00000000 </v>
   <v name="genvec2">      0.00000000       0.07142857       0.00000000 </v>
   <v name="genvec3">      0.00000000       0.00000000       0.07142857 </v>
   <v name="shift">      0.50000000       0.50000000       0.50000000 </v>
  </generation>
  <varray name="kpointlist" >
   <v>       0.03571429       0.03571429       0.03571429 </v>
   <v>       0.10714286       0.03571429       0.03571429 </v>
   <v>       0.17857143       0.03571429       0.03571429 </v>
   <v>       0.25000000       0.03571429       0.03571429 </v>
   <v>       0.32142857       0.03571429       0.03571429 </v>
   <v>       0.39285714       0.03571429       0.03571429 </v>
   <v>       0.46428571       0.03571429       0.03571429 </v>
   <v>      -0.46428571       0.03571429       0.03571429 </v>
   <v>      -0.39285714       0.03571429       0.03571429 </v>
   <v>      -0.32142857       0.03571429       0.03571429 </v>
   <v>      -0.25000000       0.03571429       0.03571429 </v>
   <v>      -0.17857143       0.03571429       0.03571429 </v>
   <v>      -0.10714286       0.03571429       0.03571429 </v>
   <v>      -0.03571429       0.03571429       0.03571429 </v>
   <v>       0.10714286       0.10714286       0.03571429 </v>
   <v>       0.17857143       0.10714286       0.03571429 </v>
   <v>       0.25000000       0.10714286       0.03571429 </v>
   <v>       0.32142857       0.10714286       0.03571429 </v>
   <v>       0.39285714       0.10714286       0.03571429 </v>
   <v>       0.46428571       0.10714286       0.03571429 </v>
   <v>      -0.46428571       0.10714286       0.03571429 </v>
   <v>      -0.39285714       0.10714286       0.03571429 </v>
   <v>      -0.32142857       0.10714286       0.03571429 </v>
   <v>      -0.25000000       0.10714286       0.03571429 </v>
   <v>      -0.17857143       0.10714286       0.03571429 </v>
   <v>      -0.10714286       0.10714286       0.03571429 </v>
   <v>      -0.03571429       0.10714286       0.03571429 </v>
   <v>       0.17857143       0.17857143       0.03571429 </v>
   <v>       0.25000000       0.17857143       0.03571429 </v>
   <v>       0.32142857       0.17857143       0.03571429 </v>
   <v>       0.39285714       0.17857143       0.03571429 </v>
   <v>       0.46428571       0.17857143       0.03571429 </v>
   <v>      -0.46428571       0.17857143       0.03571429 </v>
   <v>      -0.39285714       0.17857143       0.03571429 </v>
   <v>      -0.32142857       0.17857143       0.03571429 </v>
   <v>      -0.25000000       0.17857143       0.03571429 </v>
   <v>      -0.17857143       0.17857143       0.03571429 </v>
   <v>      -0.10714286       0.17857143       0.03571429 </v>
   <v>      -0.03571429       0.17857143       0.03571429 </v>
   <v>       0.25000000       0.25000000       0.03571429 </v>
   <v>       0.32142857       0.25000000       0.03571429 </v>
   <v>       0.39285714       0.25000000       0.03571429 </v>
   <v>       0.46428571       0.25000000       0.03571429 </v>
   <v>      -0.46428571       0.25000000       0.03571429 </v>
   <v>      -0.39285714       0.25000000       0.03571429 </v>
   <v>      -0.32142857       0.25000000       0.03571429 </v>
   <v>      -0.25000000       0.25000000       0.03571429 </v>
   <v>      -0.17857143       0.25000000       0.03571429 </v>
   <v>      -0.10714286       0.25000000       0.03571429 </v>
   <v>      -0.03571429       0.25000000       0.03571429 </v>
   <v>       0.32142857       0.32142857       0.03571429 </v>
   <v>       0.39285714       0.32142857       0.03571429 </v>
   <v>       0.46428571       0.32142857       0.03571429 </v>
   <v>      -0.46428571       0.32142857       0.03571429 </v>
   <v>      -0.39285714       0.32142857       0.03571429 </v>
   <v>      -0.32142857       0.32142857       0.03571429 </v>
   <v>      -0.25000000       0.32142857       0.03571429 </v>
   <v>      -0.17857143       0.32142857       0.03571429 </v>
   <v>      -0.10714286       0.32142857       0.03571429 </v>
   <v>      -0.03571429       0.32142857       0.03571429 </v>
   <v>       0.39285714       0.39285714       0.03571429 </v>
   <v>       0.46428571       0.39285714       0.03571429 </v>
   <v>      -0.46428571       0.39285714       0.03571429 </v>
   <v>      -0.39285714       0.39285714       0.03571429 </v>
   <v>      -0.32142857       0.39285714       0.03571429 </v>
   <v>      -0.25000000       0.39285714       0.03571429 </v>
   <v>      -0.17857143       0.39285714       0.03571429 </v>
   <v>      -0.10714286       0.39285714       0.03571429 </v>
   <v>      -0.03571429       0.39285714       0.03571429 </v>
   <v>       0.46428571       0.46428571       0.03571429 </v>
   <v>      -0.46428571       0.46428571       0.03571429 </v>
   <v>      -0.39285714       0.46428571       0.03571429 </v>
   <v>      -0.32142857       0.46428571       0.03571429 </v>
   <v>      -0.25000000       0.46428571       0.03571429 </v>
   <v>      -0.17857143       0.46428571       0.03571429 </v>
   <v>      -0.10714286       0.46428571       0.03571429 </v>
   <v>      -0.03571429       0.46428571       0.03571429 </v>
   <v>      -0.46428571      -0.46428571       0.03571429 </v>
   <v>      -0.39285714      -0.46428571       0.03571429 </v>
   <v>      -0.32142857      -0.46428571       0.03571429 </v>
   <v>      -0.25000000      -0.46428571       0.03571429 </v>
   <v>      -0.17857143      -0.46428571       0.03571429 </v>
   <v>      -0.10714286      -0.46428571       0.03571429 </v>
   <v>      -0.39285714      -0.39285714       0.03571429 </v>
   <v>      -0.32142857      -0.39285714       0.03571429 </v>
   <v>      -0.25000000      -0.39285714       0.03571429 </v>
   <v>      -0.17857143      -0.39285714       0.03571429 </v>
   <v>      -0.10714286      -0.39285714       0.03571429 </v>
   <v>      -0.32142857      -0.32142857       0.03571429 </v>
   <v>      -0.25000000      -0.32142857       0.03571429 </v>
   <v>      -0.17857143      -0.32142857       0.03571429 </v>
   <v>      -0.10714286      -0.32142857       0.03571429 </v>
   <v>      -0.25000000      -0.25000000       0.03571429 </v>
   <v>      -0.17857143      -0.25000000       0.03571429 </v>
   <v>      -0.10714286      -0.25000000       0.03571429 </v>
   <v>      -0.17857143      -0.17857143       0.03571429 </v>
   <v>      -0.10714286      -0.17857143       0.03571429 </v>
   <v>      -0.10714286      -0.10714286       0.03571429 </v>
   <v>       0.10714286       0.10714286       0.10714286 </v>
   <v>       0.17857143       0.10714286       0.10714286 </v>
   <v>       0.25000000       0.10714286       0.10714286 </v>
   <v>       0.32142857       0.10714286       0.10714286 </v>
   <v>       0.39285714       0.10714286       0.10714286 </v>
   <v>       0.46428571       0.10714286       0.10714286 </v>
   <v>      -0.46428571       0.10714286       0.10714286 </v>
   <v>      -0.39285714       0.10714286       0.10714286 </v>
   <v>      -0.32142857       0.10714286       0.10714286 </v>
   <v>      -0.25000000       0.10714286       0.10714286 </v>
   <v>      -0.17857143       0.10714286       0.10714286 </v>
   <v>      -0.10714286       0.10714286       0.10714286 </v>
   <v>       0.17857143       0.17857143       0.10714286 </v>
   <v>       0.25000000       0.17857143       0.10714286 </v>
   <v>       0.32142857       0.17857143       0.10714286 </v>
   <v>       0.39285714       0.17857143       0.10714286 </v>
   <v>       0.46428571       0.17857143       0.10714286 </v>
   <v>      -0.46428571       0.17857143       0.10714286 </v>
   <v>      -0.39285714       0.17857143       0.10714286 </v>
   <v>      -0.32142857       0.17857143       0.10714286 </v>
   <v>      -0.25000000       0.17857143       0.10714286 </v>
   <v>      -0.17857143       0.17857143       0.10714286 </v>
   <v>      -0.10714286       0.17857143       0.10714286 </v>
   <v>       0.25000000       0.25000000       0.10714286 </v>
   <v>       0.32142857       0.25000000       0.10714286 </v>
   <v>       0.39285714       0.25000000       0.10714286 </v>
   <v>       0.46428571       0.25000000       0.10714286 </v>
   <v>      -0.46428571       0.25000000       0.10714286 </v>
   <v>      -0.39285714       0.25000000       0.10714286 </v>
   <v>      -0.32142857       0.25000000       0.10714286 </v>
   <v>      -0.25000000       0.25000000       0.10714286 </v>
   <v>      -0.17857143       0.25000000       0.10714286 </v>
   <v>      -0.10714286       0.25000000       0.10714286 </v>
   <v>       0.32142857       0.32142857       0.10714286 </v>
   <v>       0.39285714       0.32142857       0.10714286 </v>
   <v>       0.46428571       0.32142857       0.10714286 </v>
   <v>      -0.46428571       0.32142857       0.10714286 </v>
   <v>      -0.39285714       0.32142857       0.10714286 </v>
   <v>      -0.32142857       0.32142857       0.10714286 </v>
   <v>      -0.25000000       0.32142857       0.10714286 </v>
   <v>      -0.17857143       0.32142857       0.10714286 </v>
   <v>      -0.10714286       0.32142857       0.10714286 </v>
   <v>       0.39285714       0.39285714       0.10714286 </v>
   <v>       0.46428571       0.39285714       0.10714286 </v>
   <v>      -0.46428571       0.39285714       0.10714286 </v>
   <v>      -0.39285714       0.39285714       0.10714286 </v>
   <v>      -0.32142857       0.39285714       0.10714286 </v>
   <v>      -0.25000000       0.39285714       0.10714286 </v>
   <v>      -0.17857143       0.39285714       0.10714286 </v>
   <v>      -0.10714286       0.39285714       0.10714286 </v>
   <v>       0.46428571       0.46428571       0.10714286 </v>
   <v>      -0.46428571       0.46428571       0.10714286 </v>
   <v>      -0.39285714       0.46428571       0.10714286 </v>
   <v>      -0.32142857       0.46428571       0.10714286 </v>
   <v>      -0.25000000       0.46428571       0.10714286 </v>
   <v>      -0.17857143       0.46428571       0.10714286 </v>
   <v>      -0.10714286       0.46428571       0.10714286 </v>
   <v>      -0.46428571      -0.46428571       0.10714286 </v>
   <v>      -0.39285714      -0.46428571       0.10714286 </v>
   <v>      -0.32142857      -0.46428571       0.10714286 </v>
   <v>      -0.25000000      -0.46428571       0.10714286 </v>
   <v>      -0.17857143      -0.46428571       0.10714286 </v>
   <v>      -0.39285714      -0.39285714       0.10714286 </v>
   <v>      -0.32142857      -0.39285714       0.10714286 </v>
   <v>      -0.25000000      -0.39285714       0.10714286 </v>
   <v>      -0.17857143      -0.39285714       0.10714286 </v>
   <v>      -0.32142857      -0.32142857       0.10714286 </v>
   <v>      -0.25000000      -0.32142857       0.10714286 </v>
   <v>      -0.17857143      -0.32142857       0.10714286 </v>
   <v>      -0.25000000      -0.25000000       0.10714286 </v>
   <v>      -0.17857143      -0.25000000       0.10714286 </v>
   <v>      -0.17857143      -0.17857143       0.10714286 </v>
   <v>       0.17857143       0.17857143       0.17857143 </v>
   <v>       0.25000000       0.17857143       0.17857143 </v>
   <v>       0.32142857       0.17857143       0.17857143 </v>
   <v>       0.39285714       0.17857143       0.17857143 </v>
   <v>       0.46428571       0.17857143       0.17857143 </v>
   <v>      -0.46428571       0.17857143       0.17857143 </v>
   <v>      -0.39285714       0.17857143       0.17857143 </v>
   <v>      -0.32142857       0.17857143       0.17857143 </v>
   <v>      -0.25000000       0.17857143       0.17857143 </v>
   <v>      -0.17857143       0.17857143       0.17857143 </v>
   <v>       0.25000000       0.25000000       0.17857143 </v>
   <v>       0.32142857       0.25000000       0.17857143 </v>
   <v>       0.39285714       0.25000000       0.17857143 </v>
   <v>       0.46428571       0.25000000       0.17857143 </v>
   <v>      -0.46428571       0.25000000       0.17857143 </v>
   <v>      -0.39285714       0.25000000       0.17857143 </v>
   <v>      -0.32142857       0.25000000       0.17857143 </v>
   <v>      -0.25000000       0.25000000       0.17857143 </v>
   <v>      -0.17857143       0.25000000       0.17857143 </v>
   <v>       0.32142857       0.32142857       0.17857143 </v>
   <v>       0.39285714       0.32142857       0.17857143 </v>
   <v>       0.46428571       0.32142857       0.17857143 </v>
   <v>      -0.46428571       0.32142857       0.17857143 </v>
   <v>      -0.39285714       0.32142857       0.17857143 </v>
   <v>      -0.32142857       0.32142857       0.17857143 </v>
   <v>      -0.25000000       0.32142857       0.17857143 </v>
   <v>      -0.17857143       0.32142857       0.17857143 </v>
   <v>       0.39285714       0.39285714       0.17857143 </v>
   <v>       0.46428571       0.39285714       0.17857143 </v>
   <v>      -0.46428571       0.39285714       0.17857143 </v>
   <v>      -0.39285714       0.39285714       0.17857143 </v>
   <v>      -0.32142857       0.39285714       0.17857143 </v>
   <v>      -0.25000000       0.39285714       0.17857143 </v>
   <v>      -0.17857143       0.39285714       0.17857143 </v>
   <v>       0.46428571       0.46428571       0.17857143 </v>
   <v>      -0.46428571       0.46428571       0.17857143 </v>
   <v>      -0.39285714       0.46428571       0.17857143 </v>
   <v>      -0.32142857       0.46428571       0.17857143 </v>
   <v>      -0.25000000       0.46428571       0.17857143 </v>
   <v>      -0.17857143       0.46428571       0.17857143 </v>
   <v>      -0.46428571      -0.46428571       0.17857143 </v>
   <v>      -0.39285714      -0.46428571       0.17857143 </v>
   <v>      -0.32142857      -0.46428571       0.17857143 </v>
   <v>      -0.25000000      -0.46428571       0.17857143 </v>
   <v>      -0.39285714      -0.39285714       0.17857143 </v>
   <v>      -0.32142857      -0.39285714       0.17857143 </v>
   <v>      -0.25000000      -0.39285714       0.17857143 </v>
   <v>      -0.32142857      -0.32142857       0.17857143 </v>
   <v>      -0.25000000      -0.32142857       0.17857143 </v>
   <v>      -0.25000000      -0.25000000       0.17857143 </v>
   <v>       0.25000000       0.25000000       0.25000000 </v>
   <v>       0.32142857       0.25000000       0.25000000 </v>
   <v>       0.39285714       0.25000000       0.25000000 </v>
   <v>       0.46428571       0.25000000       0.25000000 </v>
   <v>      -0.46428571       0.25000000       0.25000000 </v>
   <v>      -0.39285714       0.25000000       0.25000000 </v>
   <v>      -0.32142857       0.25000000       0.25000000 </v>
   <v>      -0.25000000       0.25000000       0.25000000 </v>
   <v>       0.32142857       0.32142857       0.25000000 </v>
   <v>       0.39285714       0.32142857       0.25000000 </v>
   <v>       0.46428571       0.32142857       0.25000000 </v>
   <v>      -0.46428571       0.32142857       0.25000000 </v>
   <v>      -0.39285714       0.32142857       0.25000000 </v>
   <v>      -0.32142857       0.32142857       0.25000000 </v>
   <v>      -0.25000000       0.32142857       0.25000000 </v>
   <v>       0.39285714       0.39285714       0.25000000 </v>
   <v>       0.46428571       0.39285714       0.25000000 </v>
   <v>      -0.46428571       0.39285714       0.25000000 </v>
   <v>      -0.39285714       0.39285714       0.25000000 </v>
   <v>      -0.32142857       0.39285714       0.25000000 </v>
   <v>      -0.25000000       0.39285714       0.25000000 </v>
   <v>       0.46428571       0.46428571       0.25000000 </v>
   <v>      -0.46428571       0.46428571       0.25000000 </v>
   <v>      -0.39285714       0.46428571       0.25000000 </v>
   <v>      -0.32142857       0.46428571       0.25000000 </v>
   <v>      -0.25000000       0.46428571       0.25000000 </v>
   <v>      -0.46428571      -0.46428571       0.25000000 </v>
   <v>      -0.39285714      -0.46428571       0.25000000 </v>
   <v>      -0.32142857      -0.46428571       0.25000000 </v>
   <v>      -0.39285714      -0.39285714       0.25000000 </v>
   <v>      -0.32142857      -0.39285714       0.25000000 </v>
   <v>      -0.32142857      -0.32142857       0.25000000 </v>
   <v>       0.32142857       0.32142857       0.32142857 </v>
   <v>       0.39285714       0.32142857       0.32142857 </v>
   <v>       0.46428571       0.32142857       0.32142857 </v>
   <v>      -0.46428571       0.32142857       0.32142857 </v>
   <v>      -0.39285714       0.32142857       0.32142857 </v>
   <v>      -0.32142857       0.32142857       0.32142857 </v>
   <v>       0.39285714       0.39285714       0.32142857 </v>
   <v>       0.46428571       0.39285714       0.32142857 </v>
   <v>      -0.46428571       0.39285714       0.32142857 </v>
   <v>      -0.39285714       0.39285714       0.32142857 </v>
   <v>      -0.32142857       0.39285714       0.32142857 </v>
   <v>       0.46428571       0.46428571       0.32142857 </v>
   <v>      -0.46428571       0.46428571       0.32142857 </v>
   <v>      -0.39285714       0.46428571       0.32142857 </v>
   <v>      -0.32142857       0.46428571       0.32142857 </v>
   <v>      -0.46428571      -0.46428571       0.32142857 </v>
   <v>      -0.39285714      -0.46428571       0.32142857 </v>
   <v>      -0.39285714      -0.39285714       0.32142857 </v>
   <v>       0.39285714       0.39285714       0.39285714 </v>
   <v>       0.46428571       0.39285714       0.39285714 </v>
   <v>      -0.46428571       0.39285714       0.39285714 </v>
   <v>      -0.39285714       0.39285714       0.39285714 </v>
   <v>       0.46428571       0.46428571       0.39285714 </v>
   <v>      -0.46428571       0.46428571       0.39285714 </v>
   <v>      -0.39285714       0.46428571       0.39285714 </v>
   <v>      -0.46428571      -0.46428571       0.39285714 </v>
   <v>       0.46428571       0.46428571       0.46428571 </v>
   <v>      -0.46428571       0.46428571       0.46428571 </v>
  </varray>
  <varray name="weights" >
   <v>       0.00072886 </v>
   <v>       0.00218659 </v>
   <v>       0.00218659 </v>
   <v>       0.00218659 </v>
   <v>       0.00218659 </v>
   <v>       0.00218659 </v>
   <v>       0.00218659 </v>
   <v>       0.00218659 </v>
   <v>       0.00218659 </v>
   <v>       0.00218659 </v>
   <v>       0.00218659 </v>
   <v>       0.00218659 </v>
   <v>       0.00218659 </v>
   <v>       0.00218659 </v>
   <v>       0.00218659 </v>
   <v>       0.00437318 </v>
   <v>       0.00437318 </v>
   <v>       0.00437318 </v>
   <v>       0.00437318 </v>
   <v>       0.00437318 </v>
   <v>       0.00437318 </v>
   <v>       0.00437318 </v>
   <v>       0.00437318 </v>
   <v>       0.00437318 </v>
   <v>       0.00437318 </v>
   <v>       0.00437318 </v>
   <v>       0.00437318 </v>
   <v>       0.00218659 </v>
   <v>       0.00437318 </v>
   <v>       0.00437318 </v>
   <v>       0.00437318 </v>
   <v>       0.00437318 </v>
   <v>       0.00437318 </v>
   <v>       0.00437318 </v>
   <v>       0.00437318 </v>
   <v>       0.00437318 </v>
   <v>       0.00437318 </v>
   <v>       0.00437318 </v>
   <v>       0.00437318 </v>
   <v>       0.00218659 </v>
   <v>       0.00437318 </v>
   <v>       0.00437318 </v>
   <v>       0.00437318 </v>
   <v>       0.00437318 </v>
   <v>       0.00437318 </v>
   <v>       0.00437318 </v>
   <v>       0.00437318 </v>
   <v>       0.00437318 </v>
   <v>       0.00437318 </v>
   <v>       0.00437318 </v>
   <v>       0.00218659 </v>
   <v>       0.00437318 </v>
   <v>       0.00437318 </v>
   <v>       0.00437318 </v>
   <v>       0.00437318 </v>
   <v>       0.00437318 </v>
   <v>       0.00437318 </v>
   <v>       0.00437318 </v>
   <v>       0.00437318 </v>
   <v>       0.00437318 </v>
   <v>       0.00218659 </v>
   <v>       0.00437318 </v>
   <v>       0.00437318 </v>
   <v>       0.00437318 </v>
   <v>       0.00437318 </v>
   <v>       0.00437318 </v>
   <v>       0.00437318 </v>
   <v>       0.00437318 </v>
   <v>       0.00437318 </v>
   <v>       0.00218659 </v>
   <v>       0.00437318 </v>
   <v>       0.00437318 </v>
   <v>       0.00437318 </v>
   <v>       0.00437318 </v>
   <v>       0.00437318 </v>
   <v>       0.00437318 </v>
   <v>       0.00437318 </v>
   <v>       0.00218659 </v>
   <v>       0.00437318 </v>
   <v>       0.00437318 </v>
   <v>       0.00437318 </v>
   <v>       0.00437318 </v>
   <v>       0.00437318 </v>
   <v>       0.00218659 </v>
   <v>       0.00437318 </v>
   <v>       0.00437318 </v>
   <v>       0.00437318 </v>
   <v>       0.00437318 </v>
   <v>       0.00218659 </v>
   <v>       0.00437318 </v>
   <v>       0.00437318 </v>
   <v>       0.00437318 </v>
   <v>       0.00218659 </v>
   <v>       0.00437318 </v>
   <v>       0.00437318 </v>
   <v>       0.00218659 </v>
   <v>       0.00437318 </v>
   <v>       0.00218659 </v>
   <v>       0.00072886 </v>
   <v>       0.00218659 </v>
   <v>       0.00218659 </v>
   <v>       0.00218659 </v>
   <v>       0.00218659 </v>
   <v>       0.00218659 </v>
   <v>       0.00218659 </v>
   <v>       0.00218659 </v>
   <v>       0.00218659 </v>
   <v>       0.00218659 </v>
   <v>       0.00218659 </v>
   <v>       0.00218659 </v>
   <v>       0.00218659 </v>
   <v>       0.00437318 </v>
   <v>       0.00437318 </v>
   <v>       0.00437318 </v>
   <v>       0.00437318 </v>
   <v>       0.00437318 </v>
   <v>       0.00437318 </v>
   <v>       0.00437318 </v>
   <v>       0.00437318 </v>
   <v>       0.00437318 </v>
   <v>       0.00437318 </v>
   <v>       0.00218659 </v>
   <v>       0.00437318 </v>
   <v>       0.00437318 </v>
   <v>       0.00437318 </v>
   <v>       0.00437318 </v>
   <v>       0.00437318 </v>
   <v>       0.00437318 </v>
   <v>       0.00437318 </v>
   <v>       0.00437318 </v>
   <v>       0.00437318 </v>
   <v>       0.00218659 </v>
   <v>       0.00437318 </v>
   <v>       0.00437318 </v>
   <v>       0.00437318 </v>
   <v>       0.00437318 </v>
   <v>       0.00437318 </v>
   <v>       0.00437318 </v>
   <v>       0.00437318 </v>
   <v>       0.00437318 </v>
   <v>       0.00218659 </v>
   <v>       0.00437318 </v>
   <v>       0.00437318 </v>
   <v>       0.00437318 </v>
   <v>       0.00437318 </v>
   <v>       0.00437318 </v>
   <v>       0.00437318 </v>
   <v>       0.00437318 </v>
   <v>       0.00218659 </v>
   <v>       0.00437318 </v>
   <v>       0.00437318 </v>
   <v>       0.00437318 </v>
   <v>       0.00437318 </v>
   <v>       0.00437318 </v>
   <v>       0.00437318 </v>
   <v>       0.00218659 </v>
   <v>       0.00437318 </v>
   <v>       0.00437318 </v>
   <v>       0.00437318 </v>
   <v>       0.00437318 </v>
   <v>       0.00218659 </v>
   <v>       0.00437318 </v>
   <v>       0.00437318 </v>
   <v>       0.00437318 </v>
   <v>       0.00218659 </v>
   <v>       0.00437318 </v>
   <v>       0.00437318 </v>
   <v>       0.00218659 </v>
   <v>       0.00437318 </v>
   <v>       0.00218659 </v>
   <v>       0.00072886 </v>
   <v>       0.00218659 </v>
   <v>       0.00218659 </v>
   <v>       0.00218659 </v>
   <v>       0.00218659 </v>
   <v>       0.00218659 </v>
   <v>       0.00218659 </v>
   <v>       0.00218659 </v>
   <v>       0.00218659 </v>
   <v>       0.00218659 </v>
   <v>       0.00218659 </v>
   <v>       0.00437318 </v>
   <v>       0.00437318 </v>
   <v>       0.00437318 </v>
   <v>       0.00437318 </v>
   <v>       0.00437318 </v>
   <v>       0.00437318 </v>
   <v>       0.00437318 </v>
   <v>       0.00437318 </v>
   <v>       0.00218659 </v>
   <v>       0.00437318 </v>
   <v>       0.00437318 </v>
   <v>       0.00437318 </v>
   <v>       0.00437318 </v>
   <v>       0.00437318 </v>
   <v>       0.00437318 </v>
   <v>       0.00437318 </v>
   <v>       0.00218659 </v>
   <v>       0.00437318 </v>
   <v>       0.00437318 </v>
   <v>       0.00437318 </v>
   <v>       0.00437318 </v>
   <v>       0.00437318 </v>
   <v>       0.00437318 </v>
   <v>       0.00218659 </v>
   <v>       0.00437318 </v>
   <v>       0.00437318 </v>
   <v>       0.00437318 </v>
   <v>       0.00437318 </v>
   <v>       0.00437318 </v>
   <v>       0.00218659 </v>
   <v>       0.00437318 </v>
   <v>       0.00437318 </v>
   <v>       0.00437318 </v>
   <v>       0.00218659 </v>
   <v>       0.00437318 </v>
   <v>       0.00437318 </v>
   <v>       0.00218659 </v>
   <v>       0.00437318 </v>
   <v>       0.00218659 </v>
   <v>       0.00072886 </v>
   <v>       0.00218659 </v>
   <v>       0.00218659 </v>
   <v>       0.00218659 </v>
   <v>       0.00218659 </v>
   <v>       0.00218659 </v>
   <v>       0.00218659 </v>
   <v>       0.00218659 </v>
   <v>       0.00218659 </v>
   <v>       0.00437318 </v>
   <v>       0.00437318 </v>
   <v>       0.00437318 </v>
   <v>       0.00437318 </v>
   <v>       0.00437318 </v>
   <v>       0.00437318 </v>
   <v>       0.00218659 </v>
   <v>       0.00437318 </v>
   <v>       0.00437318 </v>
   <v>       0.00437318 </v>
   <v>       0.00437318 </v>
   <v>       0.00437318 </v>
   <v>       0.00218659 </v>
   <v>       0.00437318 </v>
   <v>       0.00437318 </v>
   <v>       0.00437318 </v>
   <v>       0.00437318 </v>
   <v>       0.00218659 </v>
   <v>       0.00437318 </v>
   <v>       0.00437318 </v>
   <v>       0.00218659 </v>
   <v>       0.00437318 </v>
   <v>       0.00218659 </v>
   <v>       0.00072886 </v>
   <v>       0.00218659 </v>
   <v>       0.00218659 </v>
   <v>       0.00218659 </v>
   <v>       0.00218659 </v>
   <v>       0.00218659 </v>
   <v>       0.00218659 </v>
   <v>       0.00437318 </v>
   <v>       0.00437318 </v>
   <v>       0.00437318 </v>
   <v>       0.00437318 </v>
   <v>       0.00218659 </v>
   <v>       0.00437318 </v>
   <v>       0.00437318 </v>
   <v>       0.00437318 </v>
   <v>       0.00218659 </v>
   <v>       0.00437318 </v>
   <v>       0.00218659 </v>
   <v>       0.00072886 </v>
   <v>       0.00218659 </v>
   <v>       0.00218659 </v>
   <v>       0.00218659 </v>
   <v>       0.00218659 </v>
   <v>       0.00437318 </v>
   <v>       0.00437318 </v>
   <v>       0.00218659 </v>
   <v>       0.00072886 </v>
   <v>       0.00218659 </v>
  </varray>
 </kpoints>
 <parameters>
  <separator name="general" >
   <i type="string" name="SYSTEM">unknown system</i>
   <i type="logical" name="LCOMPAT"> F  </i>
  </separator>
  <separator name="electronic" >
   <i type="string" name="PREC">high</i>
   <i name="ENMAX">    875.00000000</i>
   <i name="ENAUG">    946.76800000</i>
   <i name="EDIFF">      0.00000001</i>
   <i type="int" name="IALGO">    38</i>
   <i type="int" name="IWAVPR">    11</i>
   <i type="int" name="NBANDS">    24</i>
   <i name="NELECT">     32.00000000</i>
   <i type="int" name="TURBO">     0</i>
   <i type="int" name="IRESTART">     0</i>
   <i type="int" name="NREBOOT">     0</i>
   <i type="int" name="NMIN">     0</i>
   <i name="EREF">      0.00000000</i>
   <separator name="electronic smearing" >
    <i type="int" name="ISMEAR">     0</i>
    <i name="SIGMA">      0.05000000</i>
    <i name="KSPACING">      0.50000000</i>
    <i type="logical" name="KGAMMA"> T  </i>
   </separator>
   <separator name="electronic projectors" >
    <i type="logical" name="LREAL"> F  </i>
    <v name="ROPT">      0.00000000</v>
    <i type="int" name="LMAXPAW">  -100</i>
    <i type="int" name="LMAXMIX">     2</i>
    <i type="logical" name="NLSPLINE"> F  </i>
   </separator>
   <separator name="electronic startup" >
    <i type="int" name="ISTART">     0</i>
    <i type="int" name="ICHARG">     2</i>
    <i type="int" name="INIWAV">     1</i>
   </separator>
   <separator name="electronic spin" >
    <i type="int" name="ISPIN">     1</i>
    <i type="logical" name="LNONCOLLINEAR"> F  </i>
    <v name="MAGMOM">      1.00000000      1.00000000      1.00000000      1.00000000      1.00000000      1.00000000      1.00000000      1.00000000</v>
    <i name="NUPDOWN">     -1.00000000</i>
    <i type="logical" name="LSORBIT"> F  </i>
    <v name="SAXIS">      0.00000000      0.00000000      1.00000000</v>
    <i type="logical" name="LSPIRAL"> F  </i>
    <v name="QSPIRAL">      0.00000000      0.00000000      0.00000000</v>
    <i type="logical" name="LZEROZ"> F  </i>
   </separator>
   <separator name="electronic exchange-correlation" >
    <i type="logical" name="LASPH"> F  </i>
    <i type="logical" name="LMETAGGA"> F  </i>
   </separator>
   <separator name="electronic convergence" >
    <i type="int" name="NELM">    40</i>
    <i type="int" name="NELMDL">    -5</i>
    <i type="int" name="NELMIN">     4</i>
    <i name="ENINI">    875.00000000</i>
    <separator name="electronic convergence detail" >
     <i type="logical" name="LDIAG"> T  </i>
     <i type="logical" name="LSUBROT"> F  </i>
     <i name="WEIMIN">      0.00100000</i>
     <i name="EBREAK">      0.00000000</i>
     <i name="DEPER">      0.30000000</i>
     <i type="int" name="NRMM">     4</i>
     <i name="TIME">      0.40000000</i>
    </separator>
   </separator>
   <separator name="electronic mixer" >
    <i name="AMIX">      0.40000000</i>
    <i name="BMIX">      1.00000000</i>
    <i name="AMIN">      0.10000000</i>
    <i name="AMIX_MAG">      1.60000000</i>
    <i name="BMIX_MAG">      1.00000000</i>
    <separator name="electronic mixer details" >
     <i type="int" name="IMIX">     4</i>
     <i type="logical" name="MIXFIRST"> F  </i>
     <i type="int" name="MAXMIX">   -45</i>
     <i name="WC">    100.00000000</i>
     <i type="int" name="INIMIX">     1</i>
     <i type="int" name="MIXPRE">     1</i>
     <i type="int" name="MREMOVE">     5</i>
    </separator>
   </separator>
   <separator name="electronic dipolcorrection" >
    <i type="logical" name="LDIPOL"> F  </i>
    <i type="logical" name="LMONO"> F  </i>
    <i type="int" name="IDIPOL">     0</i>
    <i name="EPSILON">      1.00000000</i>
    <v name="DIPOL">   -100.00000000   -100.00000000   -100.00000000</v>
    <i name="EFIELD">      0.00000000</i>
   </separator>
  </separator>
  <separator name="grids" >
   <i type="int" name="NGX">    36</i>
   <i type="int" name="NGY">    36</i>
   <i type="int" name="NGZ">    36</i>
   <i type="int" name="NGXF">    48</i>
   <i type="int" name="NGYF">    48</i>
   <i type="int" name="NGZF">    48</i>
   <i type="logical" name="ADDGRID"> T  </i>
  </separator>
  <separator name="ionic" >
   <i type="int" name="NSW">   100</i>
   <i type="int" name="IBRION">     2</i>
   <i type="int" name="MDALGO">     0</i>
   <i type="int" name="ISIF">     2</i>
   <i name="PSTRESS">      0.00000000</i>
   <i name="EDIFFG">     -0.01000000</i>
   <i type="int" name="NFREE">     1</i>
   <i name="POTIM">      0.50000000</i>
   <i name="SMASS">     -3.00000000</i>
   <i name="SCALEE">      1.00000000</i>
  </separator>
  <separator name="ionic md" >
   <i name="TEBEG">      0.00010000</i>
   <i name="TEEND">      0.00010000</i>
   <i type="int" name="NBLOCK">     1</i>
   <i type="int" name="KBLOCK">   100</i>
   <i type="int" name="NPACO">   256</i>
   <i name="APACO">     16.00000000</i>
  </separator>
  <separator name="symmetry" >
   <i type="int" name="ISYM">     2</i>
   <i name="SYMPREC">      0.00001000</i>
  </separator>
  <separator name="dos" >
   <i type="int" name="LORBIT">     0</i>
   <v name="RWIGS">     -1.00000000</v>
   <i type="int" name="NEDOS">   301</i>
   <i name="EMIN">     10.00000000</i>
   <i name="EMAX">    -10.00000000</i>
   <i name="EFERMI">      0.00000000</i>
  </separator>
  <separator name="writing" >
   <i type="int" name="NWRITE">     2</i>
   <i type="logical" name="LWAVE"> F  </i>
   <i type="logical" name="LDOWNSAMPLE"> F  </i>
   <i type="logical" name="LCHARG"> F  </i>
   <i type="logical" name="LPARD"> F  </i>
   <i type="logical" name="LVTOT"> F  </i>
   <i type="logical" name="LVHAR"> F  </i>
   <i type="logical" name="LELF"> F  </i>
   <i type="logical" name="LOPTICS"> F  </i>
   <v name="STM">      0.00000000      0.00000000      0.00000000      0.00000000      0.00000000      0.00000000      0.00000000</v>
  </separator>
  <separator name="performance" >
   <i type="int" name="NPAR">    24</i>
   <i type="int" name="NSIM">     4</i>
   <i type="int" name="NBLK">    -1</i>
   <i type="logical" name="LPLANE"> T  </i>
   <i type="logical" name="LSCALAPACK"> T  </i>
   <i type="logical" name="LSCAAWARE"> F  </i>
   <i type="logical" name="LSCALU"> F  </i>
   <i type="logical" name="LASYNC"> F  </i>
   <i type="logical" name="LORBITALREAL"> F  </i>
  </separator>
  <separator name="miscellaneous" >
   <i type="int" name="IDIOT">     3</i>
   <i type="int" name="ISPECIAL">     0</i>
   <i type="logical" name="LMUSIC"> F  </i>
   <v name="POMASS">     12.01100000</v>
   <v name="DARWINR">      0.00000000</v>
   <v name="DARWINV">      1.00000000</v>
   <i type="logical" name="LCORR"> T  </i>
  </separator>
  <i type="logical" name="GGA_COMPAT"> T  </i>
  <i type="logical" name="LBERRY"> F  </i>
  <i type="int" name="ICORELEVEL">     0</i>
  <i type="logical" name="LDAU"> F  </i>
  <i type="int" name="I_CONSTRAINED_M">     0</i>
  <separator name="electronic exchange-correlation" >
   <i type="string" name="GGA">--</i>
   <i type="int" name="VOSKOWN">     0</i>
   <i type="logical" name="LHFCALC"> F  </i>
   <i type="string" name="PRECFOCK"></i>
   <i type="logical" name="LSYMGRAD"> F  </i>
   <i type="logical" name="LHFONE"> F  </i>
   <i type="logical" name="LRHFCALC"> F  </i>
   <i type="logical" name="LTHOMAS"> F  </i>
   <i type="logical" name="LMODELHF"> F  </i>
   <i name="ENCUT4O">     -1.00000000</i>
   <i type="int" name="EXXOEP">     0</i>
   <i type="int" name="FOURORBIT">     0</i>
   <i name="AEXX">      0.00000000</i>
   <i name="HFALPHA">      0.00000000</i>
   <i name="MCALPHA">      0.00000000</i>
   <i name="ALDAX">      1.00000000</i>
   <i name="AGGAX">      1.00000000</i>
   <i name="ALDAC">      1.00000000</i>
   <i name="AGGAC">      1.00000000</i>
   <i type="int" name="NKREDX">     1</i>
   <i type="int" name="NKREDY">     1</i>
   <i type="int" name="NKREDZ">     1</i>
   <i type="logical" name="SHIFTRED"> F  </i>
   <i type="logical" name="ODDONLY"> F  </i>
   <i type="logical" name="EVENONLY"> F  </i>
   <i type="int" name="LMAXFOCK">     0</i>
   <i type="int" name="NMAXFOCKAE">     0</i>
   <i type="logical" name="LFOCKAEDFT"> F  </i>
   <i name="HFSCREEN">      0.00000000</i>
   <i name="HFSCREENC">      0.00000000</i>
   <i type="int" name="NBANDSGWLOW">     0</i>
  </separator>
  <separator name="vdW DFT" >
   <i type="logical" name="LUSE_VDW"> F  </i>
   <i name="Zab_VDW">     -0.84910000</i>
   <i name="PARAM1">      0.12340000</i>
   <i name="PARAM2">      1.00000000</i>
   <i name="PARAM3">      0.00000000</i>
  </separator>
  <separator name="model GW" >
   <i type="int" name="MODEL_GW">     0</i>
   <i name="MODEL_EPS0">      3.42268098</i>
   <i name="MODEL_ALPHA">      1.00000000</i>
  </separator>
  <separator name="linear response parameters" >
   <i type="logical" name="LEPSILON"> F  </i>
   <i type="logical" name="LRPA"> F  </i>
   <i type="logical" name="LNABLA"> F  </i>
   <i type="logical" name="LVEL"> F  </i>
   <i type="int" name="KINTER">     0</i>
   <i name="CSHIFT">      0.10000000</i>
   <i name="OMEGAMAX">     -1.00000000</i>
   <i name="DEG_THRESHOLD">      0.00200000</i>
   <i name="RTIME">     -0.10000000</i>
   <i name="WPLASMAI">      0.00000000</i>
   <v name="DFIELD">      0.00000000      0.00000000      0.00000000</v>
   <v name="WPLASMA">      0.00000000      0.00000000      0.00000000      0.00000000      0.00000000      0.00000000      0.00000000      0.00000000      0.00000000</v>
  </separator>
  <separator name="orbital magnetization" >
   <i type="logical" name="NUCIND"> F  </i>
   <v name="MAGPOS">      0.00000000      0.00000000      0.00000000</v>
   <i type="logical" name="LNICSALL"> T  </i>
   <i type="logical" name="ORBITALMAG"> F  </i>
   <i type="logical" name="LMAGBLOCH"> F  </i>
   <i type="logical" name="LCHIMAG"> F  </i>
   <i type="logical" name="LGAUGE"> T  </i>
   <i type="int" name="MAGATOM">     0</i>
   <v name="MAGDIPOL">      0.00000000      0.00000000      0.00000000</v>
   <v name="AVECCONST">      0.00000000      0.00000000      0.00000000</v>
  </separator>
  <separator name="response functions" >
   <i type="logical" name="LADDER"> F  </i>
   <i type="logical" name="LRPAFORCE"> F  </i>
   <i type="logical" name="LFXC"> F  </i>
   <i type="logical" name="LHARTREE"> T  </i>
   <i type="int" name="IBSE">     0</i>
   <v type="int" name="KPOINT">    -1     0     0     0</v>
   <i type="logical" name="LTCTE"> F  </i>
   <i type="logical" name="LTETE"> F  </i>
   <i type="logical" name="LTRIPLET"> F  </i>
   <i type="logical" name="LFXCEPS"> F  </i>
   <i type="logical" name="LFXHEG"> F  </i>
   <i type="int" name="NATURALO">     2</i>
   <i type="logical" name="L2ORDER"> F  </i>
   <i type="logical" name="LMP2LT"> F  </i>
   <i type="logical" name="LUSEW"> F  </i>
   <i name="ENCUTGW">     -2.00000000</i>
   <i name="ENCUTGWSOFT">     -2.00000000</i>
   <i name="ENCUTLF">     -1.00000000</i>
   <i type="int" name="LMAXMP2">    -1</i>
   <i name="SCISSOR">      0.00000000</i>
   <i type="int" name="NOMEGA">     0</i>
   <i type="int" name="NOMEGAR">     0</i>
   <i type="int" name="NBANDSGW">    -1</i>
   <i type="int" name="NBANDSO">    -1</i>
   <i type="int" name="NBANDSV">    -1</i>
   <i type="int" name="NELM">    40</i>
   <i type="int" name="NELMHF">     1</i>
   <i type="int" name="DIM">     3</i>
   <i type="int" name="ANTIRES">     0</i>
   <i name="OMEGAMAX">    -30.00000000</i>
   <i name="OMEGAMIN">    -30.00000000</i>
   <i name="OMEGATL">   -200.00000000</i>
   <i type="int" name="OMEGAGRID">   140</i>
   <i name="CSHIFT">     -0.10000000</i>
   <i type="logical" name="SELFENERGY"> F  </i>
   <i type="logical" name="LSPECTRAL"> F  </i>
   <i type="logical" name="LSPECTRALGW"> F  </i>
   <i type="logical" name="LSINGLES"> F  </i>
   <i type="logical" name="LFERMIGW"> F  </i>
   <i type="logical" name="ODDONLYGW"> F  </i>
   <i type="logical" name="EVENONLYGW"> F  </i>
   <i type="int" name="NKREDLFX">     1</i>
   <i type="int" name="NKREDLFY">     1</i>
   <i type="int" name="NKREDLFZ">     1</i>
   <i type="int" name="MAXMEM">  2800</i>
   <i type="int" name="TELESCOPE">     0</i>
   <i type="int" name="TAUPAR">     1</i>
   <i type="int" name="OMEGAPAR">    -1</i>
   <i name="LAMBDA">      1.00000000</i>
  </separator>
  <separator name="External order field" >
   <i name="OFIELD_KAPPA">      0.00000000</i>
   <v name="OFIELD_K">      0.00000000      0.00000000      0.00000000</v>
   <i name="OFIELD_Q6_NEAR">      0.00000000</i>
   <i name="OFIELD_Q6_FAR">      0.00000000</i>
   <i name="OFIELD_A">      0.00000000</i>
  </separator>
 </parameters>
 <atominfo>
  <atoms>       8 </atoms>
  <types>       1 </types>
  <array name="atoms" >
   <dimension dim="1">ion</dimension>
   <field type="string">element</field>
   <field type="int">atomtype</field>
   <set>
    <rc><c>C </c><c>   1</c></rc>
    <rc><c>C </c><c>   1</c></rc>
    <rc><c>C </c><c>   1</c></rc>
    <rc><c>C </c><c>   1</c></rc>
    <rc><c>C </c><c>   1</c></rc>
    <rc><c>C </c><c>   1</c></rc>
    <rc><c>C </c><c>   1</c></rc>
    <rc><c>C </c><c>   1</c></rc>
   </set>
  </array>
  <array name="atomtypes" >
   <dimension dim="1">type</dimension>
   <field type="int">atomspertype</field>
   <field type="string">element</field>
   <field>mass</field>
   <field>valence</field>
   <field type="string">pseudopotential</field>
   <set>
    <rc><c>   8</c><c>C </c><c>     12.01100000</c><c>      4.00000000</c><c>  PAW_PBE C_h 06Feb2004                 </c></rc>
   </set>
  </array>
 </atominfo>
 <structure name="initialpos" >
  <crystal>
   <varray name="basis" >
    <v>       3.57360507      -0.01191202      -0.01191202 </v>
    <v>      -0.01191202       3.57360507      -0.01191202 </v>
    <v>      -0.01191202      -0.01191202       3.57360507 </v>
   </varray>
   <i name="volume">     45.63574642 </i>
   <varray name="rec_basis" >
    <v>       0.27983571       0.00093591       0.00093591 </v>
    <v>       0.00093591       0.27983571       0.00093591 </v>
    <v>       0.00093591       0.00093591       0.27983571 </v>
   </varray>
  </crystal>
  <varray name="positions" >
   <v>       0.25000000       0.25000000       0.25000000 </v>
   <v>       0.00000000       0.00000000       0.00000000 </v>
   <v>       0.25000000       0.75000000       0.75000000 </v>
   <v>       0.00000000       0.50000000       0.50000000 </v>
   <v>       0.75000000       0.25000000       0.75000000 </v>
   <v>       0.50000000       0.00000000       0.50000000 </v>
   <v>       0.75000000       0.75000000       0.25000000 </v>
   <v>       0.50000000       0.50000000       0.00000000 </v>
  </varray>
 </structure>
 <calculation>
  <scstep>
   <time name="dav">    4.48    5.65</time>
   <time name="total">    4.63    6.00</time>
   <energy>
    <i name="alphaZ">     76.88112699 </i>
    <i name="ewald">  -1389.16605673 </i>
    <i name="hartreedc">    -70.49338211 </i>
    <i name="XCdc">     62.04455704 </i>
    <i name="pawpsdc">    914.77613359 </i>
    <i name="pawaedc">   -872.73161751 </i>
    <i name="eentropy">     -0.00087410 </i>
    <i name="bandstr">    203.14614118 </i>
    <i name="atom">   1177.21277265 </i>
    <i name="e_fr_energy">    101.66880099 </i>
    <i name="e_wo_entrp">    101.66967509 </i>
    <i name="e_0_energy">    101.66923804 </i>
   </energy>
  </scstep>
  <scstep>
   <time name="dav">    7.62    7.72</time>
   <time name="total">    7.62    7.71</time>
   <energy>
    <i name="e_fr_energy">    -72.45570715 </i>
    <i name="e_wo_entrp">    -72.45570715 </i>
    <i name="e_0_energy">    -72.45570715 </i>
   </energy>
  </scstep>
  <scstep>
   <time name="dav">    5.17    5.20</time>
   <time name="total">    5.18    5.21</time>
   <energy>
    <i name="e_fr_energy">    -75.25488045 </i>
    <i name="e_wo_entrp">    -75.25488045 </i>
    <i name="e_0_energy">    -75.25488045 </i>
   </energy>
  </scstep>
  <scstep>
   <time name="dav">    9.66    9.69</time>
   <time name="total">    9.66    9.69</time>
   <energy>
    <i name="e_fr_energy">    -75.27474511 </i>
    <i name="e_wo_entrp">    -75.27474511 </i>
    <i name="e_0_energy">    -75.27474511 </i>
   </energy>
  </scstep>
  <scstep>
   <time name="dav">    5.08    5.10</time>
   <time name="total">    5.30    5.40</time>
   <energy>
    <i name="e_fr_energy">    -75.27474828 </i>
    <i name="e_wo_entrp">    -75.27474828 </i>
    <i name="e_0_energy">    -75.27474828 </i>
   </energy>
  </scstep>
  <scstep>
   <time name="dav">    5.52    5.53</time>
   <time name="total">    5.74    6.02</time>
   <energy>
    <i name="e_fr_energy">    -73.44748585 </i>
    <i name="e_wo_entrp">    -73.44748585 </i>
    <i name="e_0_energy">    -73.44748585 </i>
   </energy>
  </scstep>
  <scstep>
   <time name="dav">    6.79    6.81</time>
   <time name="total">    7.03    7.18</time>
   <energy>
    <i name="e_fr_energy">    -72.83573242 </i>
    <i name="e_wo_entrp">    -72.83573242 </i>
    <i name="e_0_energy">    -72.83573242 </i>
   </energy>
  </scstep>
  <scstep>
   <time name="dav">    8.11    8.13</time>
   <time name="total">    8.33    8.36</time>
   <energy>
    <i name="e_fr_energy">    -72.83411557 </i>
    <i name="e_wo_entrp">    -72.83411557 </i>
    <i name="e_0_energy">    -72.83411557 </i>
   </energy>
  </scstep>
  <scstep>
   <time name="dav">    6.87    6.89</time>
   <time name="total">    7.09    7.12</time>
   <energy>
    <i name="e_fr_energy">    -72.83429289 </i>
    <i name="e_wo_entrp">    -72.83429289 </i>
    <i name="e_0_energy">    -72.83429289 </i>
   </energy>
  </scstep>
  <scstep>
   <time name="dav">    7.75    7.77</time>
   <time name="total">    7.97    8.00</time>
   <energy>
    <i name="e_fr_energy">    -72.83441584 </i>
    <i name="e_wo_entrp">    -72.83441584 </i>
    <i name="e_0_energy">    -72.83441584 </i>
   </energy>
  </scstep>
  <scstep>
   <time name="dav">    7.47    7.49</time>
   <time name="total">    7.69    7.72</time>
   <energy>
    <i name="e_fr_energy">    -72.83441687 </i>
    <i name="e_wo_entrp">    -72.83441687 </i>
    <i name="e_0_energy">    -72.83441687 </i>
   </energy>
  </scstep>
  <scstep>
   <time name="dav">    7.74    7.76</time>
   <time name="total">    7.96    7.99</time>
   <energy>
    <i name="e_fr_energy">    -72.83441724 </i>
    <i name="e_wo_entrp">    -72.83441724 </i>
    <i name="e_0_energy">    -72.83441724 </i>
   </energy>
  </scstep>
  <scstep>
   <time name="dav">    7.63    7.64</time>
   <time name="total">    7.64    7.67</time>
   <energy>
    <i name="alphaZ">     76.88112699 </i>
    <i name="ewald">  -1389.16605673 </i>
    <i name="hartreedc">   -105.60257284 </i>
    <i name="XCdc">     65.06884246 </i>
    <i name="pawpsdc">  14458.29256589 </i>
    <i name="pawaedc"> -14416.76368928 </i>
    <i name="eentropy">     -0.00000000 </i>
    <i name="bandstr">     61.24259362 </i>
    <i name="atom">   1177.21277265 </i>
    <i name="e_fr_energy">    -72.83441724 </i>
    <i name="e_wo_entrp">    -72.83441724 </i>
    <i name="e_0_energy">    -72.83441724 </i>
   </energy>
  </scstep>
  <structure>
   <crystal>
    <varray name="basis" >
     <v>       3.57360507      -0.01191202      -0.01191202 </v>
     <v>      -0.01191202       3.57360507      -0.01191202 </v>
     <v>      -0.01191202      -0.01191202       3.57360507 </v>
    </varray>
    <i name="volume">     45.63574642 </i>
    <varray name="rec_basis" >
     <v>       0.27983571       0.00093591       0.00093591 </v>
     <v>       0.00093591       0.27983571       0.00093591 </v>
     <v>       0.00093591       0.00093591       0.27983571 </v>
    </varray>
   </crystal>
   <varray name="positions" >
    <v>       0.25000000       0.25000000       0.25000000 </v>
    <v>       0.00000000       0.00000000       0.00000000 </v>
    <v>       0.25000000       0.75000000       0.75000000 </v>
    <v>       0.00000000       0.50000000       0.50000000 </v>
    <v>       0.75000000       0.25000000       0.75000000 </v>
    <v>       0.50000000       0.00000000       0.50000000 </v>
    <v>       0.75000000       0.75000000       0.25000000 </v>
    <v>       0.50000000       0.50000000       0.00000000 </v>
   </varray>
  </structure>
  <varray name="forces" >
   <v>       0.02061255       0.02061255       0.02061255 </v>
   <v>      -0.02061255      -0.02061255      -0.02061255 </v>
   <v>       0.02061255       0.02061255       0.02061255 </v>
   <v>      -0.02061255      -0.02061255      -0.02061255 </v>
   <v>       0.02061255       0.02061255       0.02061255 </v>
   <v>      -0.02061255      -0.02061255      -0.02061255 </v>
   <v>       0.02061255       0.02061255       0.02061255 </v>
   <v>      -0.02061255      -0.02061255      -0.02061255 </v>
  </varray>
  <varray name="stress" >
   <v>     -12.96939507      37.49102256      37.49102256 </v>
   <v>      37.49102256     -12.96939507      37.49102256 </v>
   <v>      37.49102256      37.49102256     -12.96939507 </v>
  </varray>
  <energy>
   <i name="e_fr_energy">    -72.83441724 </i>
   <i name="e_wo_entrp">    -72.83441724 </i>
   <i name="e_0_energy">     -0.00000000 </i>
  </energy>
  <time name="totalsc">   97.29  100.26</time>
 </calculation>
 <calculation>
  <scstep>
   <time name="dav">    6.07    6.09</time>
   <time name="total">    6.29    6.32</time>
   <energy>
    <i name="alphaZ">     76.88112699 </i>
    <i name="ewald">  -1389.19294973 </i>
    <i name="hartreedc">   -105.58962353 </i>
    <i name="XCdc">     65.06812488 </i>
    <i name="pawpsdc">  14458.33084950 </i>
    <i name="pawaedc"> -14416.80197202 </i>
    <i name="eentropy">     -0.00000000 </i>
    <i name="bandstr">     61.25768040 </i>
    <i name="atom">   1177.21277265 </i>
    <i name="e_fr_energy">    -72.83399084 </i>
    <i name="e_wo_entrp">    -72.83399084 </i>
    <i name="e_0_energy">    -72.83399084 </i>
   </energy>
  </scstep>
  <scstep>
   <time name="dav">    8.47    8.49</time>
   <time name="total">    8.70    8.73</time>
   <energy>
    <i name="e_fr_energy">    -72.83402725 </i>
    <i name="e_wo_entrp">    -72.83402725 </i>
    <i name="e_0_energy">    -72.83402725 </i>
   </energy>
  </scstep>
  <scstep>
   <time name="dav">    6.60    6.62</time>
   <time name="total">    6.82    6.85</time>
   <energy>
    <i name="e_fr_energy">    -72.83401766 </i>
    <i name="e_wo_entrp">    -72.83401766 </i>
    <i name="e_0_energy">    -72.83401766 </i>
   </energy>
  </scstep>
  <scstep>
   <time name="dav">    7.94    7.96</time>
   <time name="total">    8.17    8.19</time>
   <energy>
    <i name="e_fr_energy">    -72.83401792 </i>
    <i name="e_wo_entrp">    -72.83401792 </i>
    <i name="e_0_energy">    -72.83401792 </i>
   </energy>
  </scstep>
  <scstep>
   <time name="dav">    6.49    6.51</time>
   <time name="total">    6.72    6.75</time>
   <energy>
    <i name="e_fr_energy">    -72.83401789 </i>
    <i name="e_wo_entrp">    -72.83401789 </i>
    <i name="e_0_energy">    -72.83401789 </i>
   </energy>
  </scstep>
  <scstep>
   <time name="dav">    7.49    7.51</time>
   <time name="total">    7.50    7.53</time>
   <energy>
    <i name="alphaZ">     76.88112699 </i>
    <i name="ewald">  -1389.19294973 </i>
    <i name="hartreedc">   -105.58681026 </i>
    <i name="XCdc">     65.06788121 </i>
    <i name="pawpsdc">  14455.84547119 </i>
    <i name="pawaedc"> -14414.31641542 </i>
    <i name="eentropy">     -0.00000000 </i>
    <i name="bandstr">     61.25490548 </i>
    <i name="atom">   1177.21277265 </i>
    <i name="e_fr_energy">    -72.83401789 </i>
    <i name="e_wo_entrp">    -72.83401789 </i>
    <i name="e_0_energy">    -72.83401789 </i>
   </energy>
  </scstep>
  <structure>
   <crystal>
    <varray name="basis" >
     <v>       3.57360507      -0.01191202      -0.01191202 </v>
     <v>      -0.01191202       3.57360507      -0.01191202 </v>
     <v>      -0.01191202      -0.01191202       3.57360507 </v>
    </varray>
    <i name="volume">     45.63574642 </i>
    <varray name="rec_basis" >
     <v>       0.27983571       0.00093591       0.00093591 </v>
     <v>       0.00093591       0.27983571       0.00093591 </v>
     <v>       0.00093591       0.00093591       0.27983571 </v>
    </varray>
   </crystal>
   <varray name="positions" >
    <v>       0.25028013       0.25028013       0.25028013 </v>
    <v>      -0.00028013      -0.00028013      -0.00028013 </v>
    <v>       0.25028013       0.75028013       0.75028013 </v>
    <v>      -0.00028013       0.49971987       0.49971987 </v>
    <v>       0.75028013       0.25028013       0.75028013 </v>
    <v>       0.49971987      -0.00028013       0.49971987 </v>
    <v>       0.75028013       0.75028013       0.25028013 </v>
    <v>       0.49971987       0.49971987      -0.00028013 </v>
   </varray>
  </structure>
  <varray name="forces" >
   <v>      -0.05395606      -0.05395606      -0.05395606 </v>
   <v>       0.05395606       0.05395606       0.05395606 </v>
   <v>      -0.05395606      -0.05395606      -0.05395606 </v>
   <v>       0.05395606       0.05395606       0.05395606 </v>
   <v>      -0.05395606      -0.05395606      -0.05395606 </v>
   <v>       0.05395606       0.05395606       0.05395606 </v>
   <v>      -0.05395606      -0.05395606      -0.05395606 </v>
   <v>       0.05395606       0.05395606       0.05395606 </v>
  </varray>
  <varray name="stress" >
   <v>     -13.22665025      36.52197701      36.52197701 </v>
   <v>      36.52197701     -13.22665025      36.52197701 </v>
   <v>      36.52197701      36.52197701     -13.22665025 </v>
  </varray>
  <energy>
   <i name="e_fr_energy">    -72.83401789 </i>
   <i name="e_wo_entrp">    -72.83401789 </i>
   <i name="e_0_energy">     -0.00000000 </i>
  </energy>
  <time name="totalsc">   49.72   49.91</time>
 </calculation>
 <calculation>
  <scstep>
   <time name="dav">    6.07    6.09</time>
   <time name="total">    6.30    6.32</time>
   <energy>
    <i name="alphaZ">     76.88112699 </i>
    <i name="ewald">  -1389.17387420 </i>
    <i name="hartreedc">   -105.59588959 </i>
    <i name="XCdc">     65.06839372 </i>
    <i name="pawpsdc">  14455.84972047 </i>
    <i name="pawaedc"> -14414.32066560 </i>
    <i name="eentropy">     -0.00000000 </i>
    <i name="bandstr">     61.24394445 </i>
    <i name="atom">   1177.21277265 </i>
    <i name="e_fr_energy">    -72.83447112 </i>
    <i name="e_wo_entrp">    -72.83447112 </i>
    <i name="e_0_energy">    -72.83447112 </i>
   </energy>
  </scstep>
  <scstep>
   <time name="dav">    8.45    8.47</time>
   <time name="total">    8.67    8.70</time>
   <energy>
    <i name="e_fr_energy">    -72.83448970 </i>
    <i name="e_wo_entrp">    -72.83448970 </i>
    <i name="e_0_energy">    -72.83448970 </i>
   </energy>
  </scstep>
  <scstep>
   <time name="dav">    6.53    6.54</time>
   <time name="total">    6.75    6.78</time>
   <energy>
    <i name="e_fr_energy">    -72.83448482 </i>
    <i name="e_wo_entrp">    -72.83448482 </i>
    <i name="e_0_energy">    -72.83448482 </i>
   </energy>
  </scstep>
  <scstep>
   <time name="dav">    7.69    7.71</time>
   <time name="total">    7.92    7.95</time>
   <energy>
    <i name="e_fr_energy">    -72.83448500 </i>
    <i name="e_wo_entrp">    -72.83448500 </i>
    <i name="e_0_energy">    -72.83448500 </i>
   </energy>
  </scstep>
  <scstep>
   <time name="dav">    6.64    6.66</time>
   <time name="total">    6.87    6.89</time>
   <energy>
    <i name="e_fr_energy">    -72.83448500 </i>
    <i name="e_wo_entrp">    -72.83448500 </i>
    <i name="e_0_energy">    -72.83448500 </i>
   </energy>
  </scstep>
  <scstep>
   <time name="dav">    6.51    6.53</time>
   <time name="total">    6.52    6.55</time>
   <energy>
    <i name="alphaZ">     76.88112699 </i>
    <i name="ewald">  -1389.17387420 </i>
    <i name="hartreedc">   -105.59814649 </i>
    <i name="XCdc">     65.06857575 </i>
    <i name="pawpsdc">  14457.62075262 </i>
    <i name="pawaedc"> -14416.09182326 </i>
    <i name="eentropy">     -0.00000000 </i>
    <i name="bandstr">     61.24613093 </i>
    <i name="atom">   1177.21277265 </i>
    <i name="e_fr_energy">    -72.83448500 </i>
    <i name="e_wo_entrp">    -72.83448500 </i>
    <i name="e_0_energy">    -72.83448500 </i>
   </energy>
  </scstep>
  <structure>
   <crystal>
    <varray name="basis" >
     <v>       3.57360507      -0.01191202      -0.01191202 </v>
     <v>      -0.01191202       3.57360507      -0.01191202 </v>
     <v>      -0.01191202      -0.01191202       3.57360507 </v>
    </varray>
    <i name="volume">     45.63574642 </i>
    <varray name="rec_basis" >
     <v>       0.27983571       0.00093591       0.00093591 </v>
     <v>       0.00093591       0.27983571       0.00093591 </v>
     <v>       0.00093591       0.00093591       0.27983571 </v>
    </varray>
   </crystal>
   <varray name="positions" >
    <v>       0.25007716       0.25007716       0.25007716 </v>
    <v>      -0.00007716      -0.00007716      -0.00007716 </v>
    <v>       0.25007716       0.75007716       0.75007716 </v>
    <v>      -0.00007716       0.49992284       0.49992284 </v>
    <v>       0.75007716       0.25007716       0.75007716 </v>
    <v>       0.49992284      -0.00007716       0.49992284 </v>
    <v>       0.75007716       0.75007716       0.25007716 </v>
    <v>       0.49992284       0.49992284      -0.00007716 </v>
   </varray>
  </structure>
  <varray name="forces" >
   <v>      -0.00002078      -0.00002078      -0.00002078 </v>
   <v>       0.00002078       0.00002078       0.00002078 </v>
   <v>      -0.00002078      -0.00002078      -0.00002078 </v>
   <v>       0.00002078       0.00002078       0.00002078 </v>
   <v>      -0.00002078      -0.00002078      -0.00002078 </v>
   <v>       0.00002078       0.00002078       0.00002078 </v>
   <v>      -0.00002078      -0.00002078      -0.00002078 </v>
   <v>       0.00002078       0.00002078       0.00002078 </v>
  </varray>
  <varray name="stress" >
   <v>     -13.04879681      37.22006422      37.22006422 </v>
   <v>      37.22006422     -13.04879681      37.22006422 </v>
   <v>      37.22006422      37.22006422     -13.04879681 </v>
  </varray>
  <energy>
   <i name="e_fr_energy">    -72.83448500 </i>
   <i name="e_wo_entrp">    -72.83448500 </i>
   <i name="e_0_energy">     -0.00000000 </i>
  </energy>
  <time name="totalsc">   48.18   48.38</time>
  <eigenvalues>
   <array>
    <dimension dim="1">band</dimension>
    <dimension dim="2">kpoint</dimension>
    <dimension dim="3">spin</dimension>
    <field>eigene</field>
    <field>occ</field>
    <set>
     <set comment="spin 1">
      <set comment="kpoint 1">
       <r>  -10.5104    1.0000 </r>
       <r>   -2.4295    1.0000 </r>
       <r>   -2.4295    1.0000 </r>
       <r>   -2.4295    1.0000 </r>
       <r>   -1.2713    1.0000 </r>
       <r>   -1.2713    1.0000 </r>
       <r>   -1.2713    1.0000 </r>
       <r>    4.5437    1.0000 </r>
       <r>    4.5437    1.0000 </r>
       <r>    4.5437    1.0000 </r>
       <r>    4.5515    1.0000 </r>
       <r>    4.5515    1.0000 </r>
       <r>    4.5515    1.0000 </r>
       <r>   10.6257    1.0000 </r>
       <r>   10.7759    1.0000 </r>
       <r>   10.7759    1.0000 </r>
       <r>   15.4406    0.0000 </r>
       <r>   15.4406    0.0000 </r>
       <r>   15.4406    0.0000 </r>
       <r>   15.9937    0.0000 </r>
       <r>   15.9937    0.0000 </r>
       <r>   15.9937    0.0000 </r>
       <r>   16.4302    0.0000 </r>
       <r>   16.4302    0.0000 </r>
      </set>
      <set comment="kpoint 2">
       <r>  -10.4159    1.0000 </r>
       <r>   -3.5142    1.0000 </r>
       <r>   -2.3740    1.0000 </r>
       <r>   -2.3740    1.0000 </r>
       <r>   -1.2084    1.0000 </r>
       <r>   -1.2084    1.0000 </r>
       <r>   -0.0991    1.0000 </r>
       <r>    4.2119    1.0000 </r>
       <r>    4.2119    1.0000 </r>
       <r>    4.4901    1.0000 </r>
       <r>    4.4901    1.0000 </r>
       <r>    4.6324    1.0000 </r>
       <r>    4.6440    1.0000 </r>
       <r>   10.1880    1.0000 </r>
       <r>   10.4035    1.0000 </r>
       <r>   10.6620    1.0000 </r>
       <r>   15.2571    0.0000 </r>
       <r>   15.6951    0.0000 </r>
       <r>   15.6951    0.0000 </r>
       <r>   16.3945    0.0000 </r>
       <r>   16.4010    0.0000 </r>
       <r>   16.4927    0.0000 </r>
       <r>   16.4927    0.0000 </r>
       <r>   16.8820    0.0000 </r>
      </set>
      <set comment="kpoint 3">
       <r>  -10.2279    1.0000 </r>
       <r>   -4.5407    1.0000 </r>
       <r>   -2.2586    1.0000 </r>
       <r>   -2.2586    1.0000 </r>
       <r>   -1.1011    1.0000 </r>
       <r>   -1.1011    1.0000 </r>
       <r>    1.0954    1.0000 </r>
       <r>    3.7614    1.0000 </r>
       <r>    3.7614    1.0000 </r>
       <r>    4.2535    1.0000 </r>
       <r>    4.2535    1.0000 </r>
       <r>    4.8150    1.0000 </r>
       <r>    4.8276    1.0000 </r>
       <r>    9.5677    1.0000 </r>
       <r>    9.7996    1.0000 </r>
       <r>   10.2891    1.0000 </r>
       <r>   15.1267    0.0000 </r>
       <r>   16.2768    0.0000 </r>
       <r>   16.2919    0.0000 </r>
       <r>   16.2919    0.0000 </r>
       <r>   16.9730    0.0000 </r>
       <r>   17.3030    0.0000 </r>
       <r>   17.3030    0.0000 </r>
       <r>   17.6445    0.0000 </r>
      </set>
      <set comment="kpoint 4">
       <r>   -9.9468    1.0000 </r>
       <r>   -5.5006    1.0000 </r>
       <r>   -2.0931    1.0000 </r>
       <r>   -2.0931    1.0000 </r>
       <r>   -0.9653    1.0000 </r>
       <r>   -0.9653    1.0000 </r>
       <r>    2.2938    1.0000 </r>
       <r>    3.2712    1.0000 </r>
       <r>    3.2712    1.0000 </r>
       <r>    3.9085    1.0000 </r>
       <r>    3.9085    1.0000 </r>
       <r>    5.0920    1.0000 </r>
       <r>    5.1004    1.0000 </r>
       <r>    8.8542    1.0000 </r>
       <r>    9.0954    1.0000 </r>
       <r>    9.7146    1.0000 </r>
       <r>   15.0735    0.0000 </r>
       <r>   16.0992    0.0000 </r>
       <r>   17.1713    0.0000 </r>
       <r>   17.1713    0.0000 </r>
       <r>   17.6833    0.0000 </r>
       <r>   18.3401    0.0000 </r>
       <r>   18.3401    0.0000 </r>
       <r>   18.5837    0.0000 </r>
      </set>
      <set comment="kpoint 5">
       <r>   -9.5734    1.0000 </r>
       <r>   -6.3873    1.0000 </r>
       <r>   -1.8962    1.0000 </r>
       <r>   -1.8962    1.0000 </r>
       <r>   -0.8285    1.0000 </r>
       <r>   -0.8285    1.0000 </r>
       <r>    2.8179    1.0000 </r>
       <r>    2.8179    1.0000 </r>
       <r>    3.4741    1.0000 </r>
       <r>    3.5355    1.0000 </r>
       <r>    3.5355    1.0000 </r>
       <r>    5.4605    1.0000 </r>
       <r>    5.4656    1.0000 </r>
       <r>    8.1037    1.0000 </r>
       <r>    8.3698    1.0000 </r>
       <r>    8.9936    1.0000 </r>
       <r>   15.0936    0.0000 </r>
       <r>   15.8901    0.0000 </r>
       <r>   18.2559    0.0000 </r>
       <r>   18.2559    0.0000 </r>
       <r>   18.5297    0.0000 </r>
       <r>   19.5244    0.0000 </r>
       <r>   19.5244    0.0000 </r>
       <r>   19.6174    0.0000 </r>
      </set>
      <set comment="kpoint 6">
       <r>   -9.1087    1.0000 </r>
       <r>   -7.1959    1.0000 </r>
       <r>   -1.7010    1.0000 </r>
       <r>   -1.7010    1.0000 </r>
       <r>   -0.7292    1.0000 </r>
       <r>   -0.7292    1.0000 </r>
       <r>    2.4720    1.0000 </r>
       <r>    2.4720    1.0000 </r>
       <r>    3.2174    1.0000 </r>
       <r>    3.2174    1.0000 </r>
       <r>    4.6067    1.0000 </r>
       <r>    5.9046    1.0000 </r>
       <r>    5.9439    1.0000 </r>
       <r>    7.3358    1.0000 </r>
       <r>    7.6664    1.0000 </r>
       <r>    8.1817    1.0000 </r>
       <r>   15.1789    0.0000 </r>
       <r>   15.6723    0.0000 </r>
       <r>   19.4619    0.0000 </r>
       <r>   19.4619    0.0000 </r>
       <r>   19.5052    0.0000 </r>
       <r>   20.6968    0.0000 </r>
       <r>   20.7038    0.0000 </r>
       <r>   20.7572    0.0000 </r>
      </set>
      <set comment="kpoint 7">
       <r>   -8.5543    1.0000 </r>
       <r>   -7.9222    1.0000 </r>
       <r>   -1.5602    1.0000 </r>
       <r>   -1.5602    1.0000 </r>
       <r>   -0.6982    1.0000 </r>
       <r>   -0.6982    1.0000 </r>
       <r>    2.2849    1.0000 </r>
       <r>    2.2849    1.0000 </r>
       <r>    3.0371    1.0000 </r>
       <r>    3.0371    1.0000 </r>
       <r>    5.6459    1.0000 </r>
       <r>    6.4276    1.0000 </r>
       <r>    6.5252    1.0000 </r>
       <r>    6.5493    1.0000 </r>
       <r>    7.0102    1.0000 </r>
       <r>    7.3548    1.0000 </r>
       <r>   15.3189    0.0000 </r>
       <r>   15.4663    0.0000 </r>
       <r>   20.5871    0.0000 </r>
       <r>   20.6466    0.0000 </r>
       <r>   20.6466    0.0000 </r>
       <r>   21.6089    0.0000 </r>
       <r>   21.6889    0.0000 </r>
       <r>   21.6897    0.0000 </r>
      </set>
      <set comment="kpoint 8">
       <r>   -8.5632    1.0000 </r>
       <r>   -7.9119    1.0000 </r>
       <r>   -1.5360    1.0000 </r>
       <r>   -1.5360    1.0000 </r>
       <r>   -0.7304    1.0000 </r>
       <r>   -0.7304    1.0000 </r>
       <r>    2.2744    1.0000 </r>
       <r>    2.2744    1.0000 </r>
       <r>    3.0573    1.0000 </r>
       <r>    3.0573    1.0000 </r>
       <r>    5.6089    1.0000 </r>
       <r>    6.4165    1.0000 </r>
       <r>    6.5405    1.0000 </r>
       <r>    6.6125    1.0000 </r>
       <r>    7.0227    1.0000 </r>
       <r>    7.3073    1.0000 </r>
       <r>   15.2887    0.0000 </r>
       <r>   15.5016    0.0000 </r>
       <r>   20.5548    0.0000 </r>
       <r>   20.8695    0.0000 </r>
       <r>   20.8695    0.0000 </r>
       <r>   21.4508    0.0000 </r>
       <r>   21.4508    0.0000 </r>
       <r>   21.6942    0.0000 </r>
      </set>
      <set comment="kpoint 9">
       <r>   -9.1162    1.0000 </r>
       <r>   -7.1841    1.0000 </r>
       <r>   -1.6446    1.0000 </r>
       <r>   -1.6446    1.0000 </r>
       <r>   -0.8044    1.0000 </r>
       <r>   -0.8044    1.0000 </r>
       <r>    2.4386    1.0000 </r>
       <r>    2.4386    1.0000 </r>
       <r>    3.2745    1.0000 </r>
       <r>    3.2745    1.0000 </r>
       <r>    4.5669    1.0000 </r>
       <r>    5.8950    1.0000 </r>
       <r>    6.0040    1.0000 </r>
       <r>    7.3219    1.0000 </r>
       <r>    7.6801    1.0000 </r>
       <r>    8.1582    1.0000 </r>
       <r>   15.1542    0.0000 </r>
       <r>   15.7127    0.0000 </r>
       <r>   19.4756    0.0000 </r>
       <r>   19.7305    0.0000 </r>
       <r>   19.7305    0.0000 </r>
       <r>   20.4528    0.0000 </r>
       <r>   20.4528    0.0000 </r>
       <r>   20.6878    0.0000 </r>
      </set>
      <set comment="kpoint 10">
       <r>   -9.5795    1.0000 </r>
       <r>   -6.3740    1.0000 </r>
       <r>   -1.8329    1.0000 </r>
       <r>   -1.8329    1.0000 </r>
       <r>   -0.9129    1.0000 </r>
       <r>   -0.9129    1.0000 </r>
       <r>    2.7591    1.0000 </r>
       <r>    2.7591    1.0000 </r>
       <r>    3.4376    1.0000 </r>
       <r>    3.6225    1.0000 </r>
       <r>    3.6225    1.0000 </r>
       <r>    5.4526    1.0000 </r>
       <r>    5.5151    1.0000 </r>
       <r>    8.0692    1.0000 </r>
       <r>    8.3843    1.0000 </r>
       <r>    8.9863    1.0000 </r>
       <r>   15.0744    0.0000 </r>
       <r>   15.9354    0.0000 </r>
       <r>   18.5027    0.0000 </r>
       <r>   18.5218    0.0000 </r>
       <r>   18.5218    0.0000 </r>
       <r>   19.2221    0.0000 </r>
       <r>   19.2221    0.0000 </r>
       <r>   19.6051    0.0000 </r>
      </set>
      <set comment="kpoint 11">
       <r>   -9.9515    1.0000 </r>
       <r>   -5.4856    1.0000 </r>
       <r>   -2.0370    1.0000 </r>
       <r>   -2.0370    1.0000 </r>
       <r>   -1.0391    1.0000 </r>
       <r>   -1.0391    1.0000 </r>
       <r>    2.2617    1.0000 </r>
       <r>    3.1876    1.0000 </r>
       <r>    3.1876    1.0000 </r>
       <r>    4.0186    1.0000 </r>
       <r>    4.0186    1.0000 </r>
       <r>    5.0943    1.0000 </r>
       <r>    5.1301    1.0000 </r>
       <r>    8.8078    1.0000 </r>
       <r>    9.1100    1.0000 </r>
       <r>    9.7173    1.0000 </r>
       <r>   15.0600    0.0000 </r>
       <r>   16.1508    0.0000 </r>
       <r>   17.4271    0.0000 </r>
       <r>   17.4271    0.0000 </r>
       <r>   17.6598    0.0000 </r>
       <r>   18.0517    0.0000 </r>
       <r>   18.0517    0.0000 </r>
       <r>   18.5700    0.0000 </r>
      </set>
      <set comment="kpoint 12">
       <r>  -10.2313    1.0000 </r>
       <r>   -4.5241    1.0000 </r>
       <r>   -2.2161    1.0000 </r>
       <r>   -2.2161    1.0000 </r>
       <r>   -1.1563    1.0000 </r>
       <r>   -1.1563    1.0000 </r>
       <r>    1.0670    1.0000 </r>
       <r>    3.6562    1.0000 </r>
       <r>    3.6562    1.0000 </r>
       <r>    4.3805    1.0000 </r>
       <r>    4.3805    1.0000 </r>
       <r>    4.8231    1.0000 </r>
       <r>    4.8419    1.0000 </r>
       <r>    9.5163    1.0000 </r>
       <r>    9.8133    1.0000 </r>
       <r>   10.2985    1.0000 </r>
       <r>   15.1189    0.0000 </r>
       <r>   16.3378    0.0000 </r>
       <r>   16.5309    0.0000 </r>
       <r>   16.5309    0.0000 </r>
       <r>   16.9538    0.0000 </r>
       <r>   17.0379    0.0000 </r>
       <r>   17.0379    0.0000 </r>
       <r>   17.6311    0.0000 </r>
      </set>
      <set comment="kpoint 13">
       <r>  -10.4180    1.0000 </r>
       <r>   -3.4958    1.0000 </r>
       <r>   -2.3478    1.0000 </r>
       <r>   -2.3478    1.0000 </r>
       <r>   -1.2422    1.0000 </r>
       <r>   -1.2422    1.0000 </r>
       <r>   -0.1243    1.0000 </r>
       <r>    4.0894    1.0000 </r>
       <r>    4.0894    1.0000 </r>
       <r>    4.6272    1.0000 </r>
       <r>    4.6272    1.0000 </r>
       <r>    4.6414    1.0000 </r>
       <r>    4.6486    1.0000 </r>
       <r>   10.1390    1.0000 </r>
       <r>   10.4138    1.0000 </r>
       <r>   10.6780    1.0000 </r>
       <r>   15.2548    0.0000 </r>
       <r>   15.8962    0.0000 </r>
       <r>   15.8962    0.0000 </r>
       <r>   16.2745    0.0000 </r>
       <r>   16.2745    0.0000 </r>
       <r>   16.3870    0.0000 </r>
       <r>   16.4735    0.0000 </r>
       <r>   16.8715    0.0000 </r>
      </set>
      <set comment="kpoint 14">
       <r>  -10.5111    1.0000 </r>
       <r>   -2.4207    1.0000 </r>
       <r>   -2.4207    1.0000 </r>
       <r>   -2.4091    1.0000 </r>
       <r>   -1.2938    1.0000 </r>
       <r>   -1.2826    1.0000 </r>
       <r>   -1.2826    1.0000 </r>
       <r>    4.4094    1.0000 </r>
       <r>    4.4094    1.0000 </r>
       <r>    4.5493    1.0000 </r>
       <r>    4.5505    1.0000 </r>
       <r>    4.6911    1.0000 </r>
       <r>    4.6911    1.0000 </r>
       <r>   10.5873    1.0000 </r>
       <r>   10.7798    1.0000 </r>
       <r>   10.8010    1.0000 </r>
       <r>   15.4421    0.0000 </r>
       <r>   15.5305    0.0000 </r>
       <r>   15.5305    0.0000 </r>
       <r>   15.8978    0.0000 </r>
       <r>   15.8978    0.0000 </r>
       <r>   15.9868    0.0000 </r>
       <r>   16.4259    0.0000 </r>
       <r>   16.4962    0.0000 </r>
      </set>
      <set comment="kpoint 15">
       <r>  -10.3209    1.0000 </r>
       <r>   -3.4493    1.0000 </r>
       <r>   -3.4493    1.0000 </r>
       <r>   -2.3218    1.0000 </r>
       <r>   -1.1491    1.0000 </r>
       <r>   -0.0554    1.0000 </r>
       <r>   -0.0554    1.0000 </r>
       <r>    3.6825    1.0000 </r>
       <r>    4.3028    1.0000 </r>
       <r>    4.3028    1.0000 </r>
       <r>    4.5888    1.0000 </r>
       <r>    4.5888    1.0000 </r>
       <r>    4.7102    1.0000 </r>
       <r>    9.6518    1.0000 </r>
       <r>   10.1251    1.0000 </r>
       <r>   10.6615    1.0000 </r>
       <r>   15.5741    0.0000 </r>
       <r>   15.5741    0.0000 </r>
       <r>   15.6409    0.0000 </r>
       <r>   16.6179    0.0000 </r>
       <r>   16.8385    0.0000 </r>
       <r>   16.8385    0.0000 </r>
       <r>   17.0517    0.0000 </r>
       <r>   17.2248    0.0000 </r>
      </set>
      <set comment="kpoint 16">
       <r>  -10.1323    1.0000 </r>
       <r>   -4.4691    1.0000 </r>
       <r>   -3.3139    1.0000 </r>
       <r>   -2.2181    1.0000 </r>
       <r>   -1.0498    1.0000 </r>
       <r>    0.0061    1.0000 </r>
       <r>    1.1064    1.0000 </r>
       <r>    3.1129    1.0000 </r>
       <r>    3.8566    1.0000 </r>
       <r>    4.3728    1.0000 </r>
       <r>    4.4954    1.0000 </r>
       <r>    4.7273    1.0000 </r>
       <r>    4.7865    1.0000 </r>
       <r>    8.9751    1.0000 </r>
       <r>    9.5578    1.0000 </r>
       <r>   10.4462    1.0000 </r>
       <r>   15.4767    0.0000 </r>
       <r>   15.9520    0.0000 </r>
       <r>   16.2157    0.0000 </r>
       <r>   16.6037    0.0000 </r>
       <r>   17.3743    0.0000 </r>
       <r>   17.5996    0.0000 </r>
       <r>   17.6879    0.0000 </r>
       <r>   17.8883    0.0000 </r>
      </set>
      <set comment="kpoint 17">
       <r>   -9.8509    1.0000 </r>
       <r>   -5.4240    1.0000 </r>
       <r>   -3.1140    1.0000 </r>
       <r>   -2.0811    1.0000 </r>
       <r>   -0.9262    1.0000 </r>
       <r>    0.0593    1.0000 </r>
       <r>    2.2488    1.0000 </r>
       <r>    2.5851    1.0000 </r>
       <r>    3.3679    1.0000 </r>
       <r>    4.0729    1.0000 </r>
       <r>    4.5701    1.0000 </r>
       <r>    4.7906    1.0000 </r>
       <r>    5.0899    1.0000 </r>
       <r>    8.2339    1.0000 </r>
       <r>    8.8776    1.0000 </r>
       <r>    9.9884    1.0000 </r>
       <r>   15.4430    0.0000 </r>
       <r>   16.4504    0.0000 </r>
       <r>   16.6056    0.0000 </r>
       <r>   17.1239    0.0000 </r>
       <r>   18.0581    0.0000 </r>
       <r>   18.5859    0.0000 </r>
       <r>   18.5966    0.0000 </r>
       <r>   18.6427    0.0000 </r>
      </set>
      <set comment="kpoint 18">
       <r>   -9.4772    1.0000 </r>
       <r>   -6.3071    1.0000 </r>
       <r>   -2.8608    1.0000 </r>
       <r>   -1.9496    1.0000 </r>
       <r>   -0.7958    1.0000 </r>
       <r>    0.0633    1.0000 </r>
       <r>    2.1817    1.0000 </r>
       <r>    2.8996    1.0000 </r>
       <r>    3.3326    1.0000 </r>
       <r>    3.7878    1.0000 </r>
       <r>    4.3044    1.0000 </r>
       <r>    5.1855    1.0000 </r>
       <r>    5.5180    1.0000 </r>
       <r>    7.4708    1.0000 </r>
       <r>    8.1685    1.0000 </r>
       <r>    9.3431    1.0000 </r>
       <r>   15.4760    0.0000 </r>
       <r>   16.2521    0.0000 </r>
       <r>   17.5313    0.0000 </r>
       <r>   18.2274    0.0000 </r>
       <r>   18.8805    0.0000 </r>
       <r>   19.5267    0.0000 </r>
       <r>   19.6056    0.0000 </r>
       <r>   19.7369    0.0000 </r>
      </set>
      <set comment="kpoint 19">
       <r>   -9.0125    1.0000 </r>
       <r>   -7.1129    1.0000 </r>
       <r>   -2.5738    1.0000 </r>
       <r>   -1.8925    1.0000 </r>
       <r>   -0.6584    1.0000 </r>
       <r>   -0.0233    1.0000 </r>
       <r>    1.9753    1.0000 </r>
       <r>    2.4927    1.0000 </r>
       <r>    3.6171    1.0000 </r>
       <r>    4.0074    1.0000 </r>
       <r>    4.3112    1.0000 </r>
       <r>    5.6655    1.0000 </r>
       <r>    6.1045    1.0000 </r>
       <r>    6.7055    1.0000 </r>
       <r>    7.4759    1.0000 </r>
       <r>    8.5699    1.0000 </r>
       <r>   15.5700    0.0000 </r>
       <r>   16.0409    0.0000 </r>
       <r>   18.6414    0.0000 </r>
       <r>   19.4472    0.0000 </r>
       <r>   19.8319    0.0000 </r>
       <r>   20.4925    0.0000 </r>
       <r>   20.6771    0.0000 </r>
       <r>   20.8672    0.0000 </r>
      </set>
      <set comment="kpoint 20">
       <r>   -8.4582    1.0000 </r>
       <r>   -7.8369    1.0000 </r>
       <r>   -2.2860    1.0000 </r>
       <r>   -1.9782    1.0000 </r>
       <r>   -0.4894    1.0000 </r>
       <r>   -0.2069    1.0000 </r>
       <r>    1.9898    1.0000 </r>
       <r>    2.1722    1.0000 </r>
       <r>    3.6231    1.0000 </r>
       <r>    3.7548    1.0000 </r>
       <r>    5.1656    1.0000 </r>
       <r>    5.9360    1.0000 </r>
       <r>    6.2123    1.0000 </r>
       <r>    6.8252    1.0000 </r>
       <r>    6.8561    1.0000 </r>
       <r>    7.7288    1.0000 </r>
       <r>   15.7155    0.0000 </r>
       <r>   15.8386    0.0000 </r>
       <r>   19.8238    0.0000 </r>
       <r>   20.5721    0.0000 </r>
       <r>   20.8878    0.0000 </r>
       <r>   21.3518    0.0000 </r>
       <r>   21.4818    0.0000 </r>
       <r>   21.7432    0.0000 </r>
      </set>
      <set comment="kpoint 21">
       <r>   -8.4760    1.0000 </r>
       <r>   -7.8162    1.0000 </r>
       <r>   -2.1997    1.0000 </r>
       <r>   -2.0496    1.0000 </r>
       <r>   -0.4429    1.0000 </r>
       <r>   -0.2960    1.0000 </r>
       <r>    1.9754    1.0000 </r>
       <r>    2.1827    1.0000 </r>
       <r>    3.6186    1.0000 </r>
       <r>    3.7973    1.0000 </r>
       <r>    5.1356    1.0000 </r>
       <r>    5.9358    1.0000 </r>
       <r>    6.2312    1.0000 </r>
       <r>    6.8178    1.0000 </r>
       <r>    6.8901    1.0000 </r>
       <r>    7.7058    1.0000 </r>
       <r>   15.6625    0.0000 </r>
       <r>   15.9010    0.0000 </r>
       <r>   20.0601    0.0000 </r>
       <r>   20.6568    0.0000 </r>
       <r>   20.8258    0.0000 </r>
       <r>   21.1892    0.0000 </r>
       <r>   21.5776    0.0000 </r>
       <r>   21.8156    0.0000 </r>
      </set>
      <set comment="kpoint 22">
       <r>   -9.0275    1.0000 </r>
       <r>   -7.0892    1.0000 </r>
       <r>   -2.4900    1.0000 </r>
       <r>   -1.9271    1.0000 </r>
       <r>   -0.6684    1.0000 </r>
       <r>   -0.1325    1.0000 </r>
       <r>    1.9552    1.0000 </r>
       <r>    2.4893    1.0000 </r>
       <r>    3.6550    1.0000 </r>
       <r>    4.0816    1.0000 </r>
       <r>    4.2570    1.0000 </r>
       <r>    5.7011    1.0000 </r>
       <r>    6.1373    1.0000 </r>
       <r>    6.6784    1.0000 </r>
       <r>    7.4758    1.0000 </r>
       <r>    8.5594    1.0000 </r>
       <r>   15.5269    0.0000 </r>
       <r>   16.1124    0.0000 </r>
       <r>   18.8971    0.0000 </r>
       <r>   19.6506    0.0000 </r>
       <r>   19.7737    0.0000 </r>
       <r>   20.5553    0.0000 </r>
       <r>   20.5915    0.0000 </r>
       <r>   20.7360    0.0000 </r>
      </set>
      <set comment="kpoint 23">
       <r>   -9.4895    1.0000 </r>
       <r>   -6.2804    1.0000 </r>
       <r>   -2.7880    1.0000 </r>
       <r>   -1.9455    1.0000 </r>
       <r>   -0.8485    1.0000 </r>
       <r>   -0.0444    1.0000 </r>
       <r>    2.1453    1.0000 </r>
       <r>    2.8706    1.0000 </r>
       <r>    3.2689    1.0000 </r>
       <r>    3.8660    1.0000 </r>
       <r>    4.4038    1.0000 </r>
       <r>    5.2380    1.0000 </r>
       <r>    5.5338    1.0000 </r>
       <r>    7.4233    1.0000 </r>
       <r>    8.1730    1.0000 </r>
       <r>    9.3429    1.0000 </r>
       <r>   15.4433    0.0000 </r>
       <r>   16.3327    0.0000 </r>
       <r>   17.7881    0.0000 </r>
       <r>   18.4143    0.0000 </r>
       <r>   18.8271    0.0000 </r>
       <r>   19.4802    0.0000 </r>
       <r>   19.5466    0.0000 </r>
       <r>   19.6855    0.0000 </r>
      </set>
[...]
       <r>   -4.6954    1.0000 </r>
       <r>   -4.5145    1.0000 </r>
       <r>   -2.2177    1.0000 </r>
       <r>   -2.2149    1.0000 </r>
       <r>   -1.4934    1.0000 </r>
       <r>   -0.9678    1.0000 </r>
       <r>    7.0837    1.0000 </r>
       <r>    7.2126    1.0000 </r>
       <r>    7.5948    1.0000 </r>
       <r>    7.6964    1.0000 </r>
       <r>    7.7616    1.0000 </r>
       <r>    7.8045    1.0000 </r>
       <r>    8.0538    1.0000 </r>
       <r>    8.1917    1.0000 </r>
       <r>   18.9184    0.0000 </r>
       <r>   18.9207    0.0000 </r>
       <r>   19.0123    0.0000 </r>
       <r>   19.0792    0.0000 </r>
       <r>   19.5224    0.0000 </r>
       <r>   19.6388    0.0000 </r>
       <r>   19.7898    0.0000 </r>
       <r>   19.8845    0.0000 </r>
      </set>
      <set comment="kpoint 278">
       <r>   -5.5181    1.0000 </r>
       <r>   -5.0669    1.0000 </r>
       <r>   -5.0669    1.0000 </r>
       <r>   -4.5971    1.0000 </r>
       <r>   -2.3008    1.0000 </r>
       <r>   -2.0151    1.0000 </r>
       <r>   -2.0151    1.0000 </r>
       <r>   -1.5735    1.0000 </r>
       <r>    7.3946    1.0000 </r>
       <r>    7.6880    1.0000 </r>
       <r>    7.6880    1.0000 </r>
       <r>    7.8073    1.0000 </r>
       <r>    7.9354    1.0000 </r>
       <r>    7.9736    1.0000 </r>
       <r>    7.9736    1.0000 </r>
       <r>    8.1936    1.0000 </r>
       <r>   19.0268    0.0000 </r>
       <r>   19.1418    0.0000 </r>
       <r>   19.1418    0.0000 </r>
       <r>   19.2234    0.0000 </r>
       <r>   19.3648    0.0000 </r>
       <r>   19.5973    0.0000 </r>
       <r>   19.6827    0.0000 </r>
       <r>   19.6827    0.0000 </r>
      </set>
      <set comment="kpoint 279">
       <r>   -4.9942    1.0000 </r>
       <r>   -4.8626    1.0000 </r>
       <r>   -4.8626    1.0000 </r>
       <r>   -4.8626    1.0000 </r>
       <r>   -2.3807    1.0000 </r>
       <r>   -2.3807    1.0000 </r>
       <r>   -2.3807    1.0000 </r>
       <r>   -2.0748    1.0000 </r>
       <r>    7.9652    1.0000 </r>
       <r>    7.9652    1.0000 </r>
       <r>    7.9652    1.0000 </r>
       <r>    7.9986    1.0000 </r>
       <r>    7.9986    1.0000 </r>
       <r>    8.0356    1.0000 </r>
       <r>    8.0356    1.0000 </r>
       <r>    8.0356    1.0000 </r>
       <r>   19.2321    0.0000 </r>
       <r>   19.2321    0.0000 </r>
       <r>   19.2667    0.0000 </r>
       <r>   19.2667    0.0000 </r>
       <r>   19.2667    0.0000 </r>
       <r>   19.3461    0.0000 </r>
       <r>   19.3461    0.0000 </r>
       <r>   19.3495    0.0000 </r>
      </set>
      <set comment="kpoint 280">
       <r>   -5.1508    1.0000 </r>
       <r>   -4.8607    1.0000 </r>
       <r>   -4.8607    1.0000 </r>
       <r>   -4.6794    1.0000 </r>
       <r>   -2.3855    1.0000 </r>
       <r>   -2.3841    1.0000 </r>
       <r>   -2.3841    1.0000 </r>
       <r>   -2.0987    1.0000 </r>
       <r>    7.8517    1.0000 </r>
       <r>    7.9094    1.0000 </r>
       <r>    7.9745    1.0000 </r>
       <r>    7.9745    1.0000 </r>
       <r>    8.0296    1.0000 </r>
       <r>    8.0296    1.0000 </r>
       <r>    8.1133    1.0000 </r>
       <r>    8.1277    1.0000 </r>
       <r>   19.1619    0.0000 </r>
       <r>   19.1985    0.0000 </r>
       <r>   19.1985    0.0000 </r>
       <r>   19.2192    0.0000 </r>
       <r>   19.3532    0.0000 </r>
       <r>   19.3538    0.0000 </r>
       <r>   19.4686    0.0000 </r>
       <r>   19.4689    0.0000 </r>
      </set>
     </set>
    </set>
   </array>
  </eigenvalues>
  <separator name="orbital magnetization" >
   <v name="MAGDIPOLOUT">      0.00000000      0.00000000      0.00000000</v>
  </separator>
  <dos>
   <i name="efermi">     11.09022658 </i>
   <total>
    <array>
     <dimension dim="1">gridpoints</dimension>
     <dimension dim="2">spin</dimension>
     <field>energy</field>
     <field>total</field>
     <field>integrated</field>
     <set>
      <set comment="spin 1">
       <r>   -12.1713     0.0000     0.0000 </r>
       <r>   -12.0495     0.0000     0.0000 </r>
       <r>   -11.9278     0.0000     0.0000 </r>
       <r>   -11.8060     0.0000     0.0000 </r>
       <r>   -11.6843     0.0000     0.0000 </r>
       <r>   -11.5625     0.0000     0.0000 </r>
       <r>   -11.4408     0.0000     0.0000 </r>
       <r>   -11.3190     0.0000     0.0000 </r>
       <r>   -11.1973     0.0000     0.0000 </r>
       <r>   -11.0755     0.0000     0.0000 </r>
       <r>   -10.9538     0.0000     0.0000 </r>
       <r>   -10.8320     0.0000     0.0000 </r>
       <r>   -10.7103     0.0000     0.0000 </r>
       <r>   -10.5885     0.0007     0.0001 </r>
       <r>   -10.4668     0.0536     0.0066 </r>
       <r>   -10.3450     0.1733     0.0277 </r>
       <r>   -10.2233     0.2190     0.0544 </r>
       <r>   -10.1015     0.3275     0.0943 </r>
       <r>    -9.9798     0.2347     0.1228 </r>
       <r>    -9.8580     0.4422     0.1767 </r>
       <r>    -9.7363     0.3471     0.2189 </r>
       <r>    -9.6145     0.4004     0.2677 </r>
       <r>    -9.4928     0.5001     0.3285 </r>
       <r>    -9.3710     0.4928     0.3885 </r>
       <r>    -9.2493     0.5415     0.4545 </r>
       <r>    -9.1276     0.3880     0.5017 </r>
       <r>    -9.0058     0.6747     0.5838 </r>
       <r>    -8.8841     0.6503     0.6630 </r>
       <r>    -8.7623     0.5332     0.7279 </r>
       <r>    -8.6406     0.4933     0.7880 </r>
       <r>    -8.5188     0.7365     0.8777 </r>
       <r>    -8.3971     0.8136     0.9767 </r>
       <r>    -8.2753     0.5836     1.0478 </r>
       <r>    -8.1536     0.7568     1.1399 </r>
       <r>    -8.0318     0.6354     1.2173 </r>
       <r>    -7.9101     0.8511     1.3209 </r>
       <r>    -7.7883     0.5898     1.3927 </r>
       <r>    -7.6666     0.9439     1.5076 </r>
       <r>    -7.5448     1.0317     1.6332 </r>
       <r>    -7.4231     0.5602     1.7014 </r>
       <r>    -7.3013     0.8135     1.8005 </r>
       <r>    -7.1796     0.7293     1.8892 </r>
       <r>    -7.0578     1.2137     2.0370 </r>
       <r>    -6.9361     0.8980     2.1463 </r>
       <r>    -6.8143     0.9390     2.2607 </r>
       <r>    -6.6926     0.7676     2.3541 </r>
       <r>    -6.5708     1.0520     2.4822 </r>
       <r>    -6.4491     0.8745     2.5887 </r>
       <r>    -6.3273     1.0858     2.7209 </r>
       <r>    -6.2056     1.0270     2.8459 </r>
       <r>    -6.0839     1.1065     2.9806 </r>
       <r>    -5.9621     1.0682     3.1107 </r>
       <r>    -5.8404     1.1853     3.2550 </r>
       <r>    -5.7186     1.2003     3.4011 </r>
       <r>    -5.5969     0.7174     3.4884 </r>
       <r>    -5.4751     1.0468     3.6159 </r>
       <r>    -5.3534     1.6075     3.8116 </r>
       <r>    -5.2316     1.2665     3.9658 </r>
       <r>    -5.1099     1.2650     4.1198 </r>
       <r>    -4.9881     1.3967     4.2898 </r>
       <r>    -4.8664     1.2127     4.4375 </r>
       <r>    -4.7446     1.3773     4.6052 </r>
       <r>    -4.6229     1.5613     4.7952 </r>
       <r>    -4.5011     1.7333     5.0063 </r>
       <r>    -4.3794     1.2917     5.1635 </r>
       <r>    -4.2576     1.3178     5.3240 </r>
       <r>    -4.1359     1.5454     5.5121 </r>
       <r>    -4.0141     1.8215     5.7339 </r>
       <r>    -3.8924     0.9688     5.8518 </r>
       <r>    -3.7706     1.1774     5.9952 </r>
       <r>    -3.6489     1.0523     6.1233 </r>
       <r>    -3.5271     1.0703     6.2536 </r>
       <r>    -3.4054     1.6434     6.4537 </r>
       <r>    -3.2836     1.2380     6.6044 </r>
       <r>    -3.1619     0.8232     6.7046 </r>
       <r>    -3.0402     1.1273     6.8419 </r>
       <r>    -2.9184     1.0987     6.9756 </r>
       <r>    -2.7967     1.2088     7.1228 </r>
       <r>    -2.6749     0.8634     7.2279 </r>
       <r>    -2.5532     0.6238     7.3039 </r>
       <r>    -2.4314     0.6486     7.3828 </r>
       <r>    -2.3097     1.0084     7.5056 </r>
       <r>    -2.1879     1.3066     7.6647 </r>
       <r>    -2.0662     1.2840     7.8210 </r>
       <r>    -1.9444     1.4619     7.9990 </r>
       <r>    -1.8227     1.0846     8.1310 </r>
       <r>    -1.7009     0.7318     8.2201 </r>
       <r>    -1.5792     0.7536     8.3119 </r>
       <r>    -1.4574     1.1319     8.4497 </r>
       <r>    -1.3357     0.8589     8.5543 </r>
       <r>    -1.2139     0.9418     8.6689 </r>
       <r>    -1.0922     1.7246     8.8789 </r>
       <r>    -0.9704     1.7933     9.0972 </r>
       <r>    -0.8487     1.6751     9.3012 </r>
       <r>    -0.7269     2.3717     9.5899 </r>
       <r>    -0.6052     2.1591     9.8528 </r>
       <r>    -0.4834     2.2929    10.1319 </r>
       <r>    -0.3617     1.3955    10.3018 </r>
       <r>    -0.2399     2.1075    10.5584 </r>
       <r>    -0.1182     2.2634    10.8340 </r>
       <r>     0.0035     2.6152    11.1524 </r>
       <r>     0.1253     1.5903    11.3460 </r>
       <r>     0.2470     1.3952    11.5159 </r>
       <r>     0.3688     0.8874    11.6239 </r>
       <r>     0.4905     1.1101    11.7591 </r>
       <r>     0.6123     1.4149    11.9313 </r>
       <r>     0.7340     1.1176    12.0674 </r>
       <r>     0.8558     1.1606    12.2087 </r>
       <r>     0.9775     1.4050    12.3797 </r>
       <r>     1.0993     1.6257    12.5777 </r>
       <r>     1.2210     0.8526    12.6815 </r>
       <r>     1.3428     0.8568    12.7858 </r>
       <r>     1.4645     1.2611    12.9393 </r>
       <r>     1.5863     1.1393    13.0780 </r>
       <r>     1.7080     1.0246    13.2028 </r>
       <r>     1.8298     1.5145    13.3871 </r>
       <r>     1.9515     1.5449    13.5752 </r>
       <r>     2.0733     2.3550    13.8619 </r>
       <r>     2.1950     1.5191    14.0469 </r>
       <r>     2.3168     2.5182    14.3535 </r>
       <r>     2.4385     1.9478    14.5906 </r>
       <r>     2.5603     2.6076    14.9081 </r>
       <r>     2.6820     1.9032    15.1398 </r>
       <r>     2.8038     1.6058    15.3353 </r>
       <r>     2.9255     1.4200    15.5082 </r>
       <r>     3.0472     1.9222    15.7422 </r>
       <r>     3.1690     3.0753    16.1166 </r>
       <r>     3.2907     2.9157    16.4716 </r>
       <r>     3.4125     1.2687    16.6261 </r>
       <r>     3.5342     1.7710    16.8417 </r>
       <r>     3.6560     2.2248    17.1125 </r>
       <r>     3.7777     2.3596    17.3998 </r>
       <r>     3.8995     2.7025    17.7289 </r>
       <r>     4.0212     2.4297    18.0247 </r>
       <r>     4.1430     2.3345    18.3089 </r>
       <r>     4.2647     1.8073    18.5289 </r>
       <r>     4.3865     2.9542    18.8886 </r>
       <r>     4.5082     3.3896    19.3013 </r>
       <r>     4.6300     3.2023    19.6911 </r>
       <r>     4.7517     2.8940    20.0435 </r>
       <r>     4.8735     2.8990    20.3964 </r>
       <r>     4.9952     2.7782    20.7347 </r>
       <r>     5.1170     2.7825    21.0734 </r>
       <r>     5.2387     4.0842    21.5707 </r>
       <r>     5.3605     4.0908    22.0687 </r>
       <r>     5.4822     2.2187    22.3388 </r>
       <r>     5.6040     1.8656    22.5660 </r>
       <r>     5.7257     3.0338    22.9353 </r>
       <r>     5.8475     3.3958    23.3488 </r>
       <r>     5.9692     3.9006    23.8237 </r>
       <r>     6.0909     2.4129    24.1174 </r>
       <r>     6.2127     2.3277    24.4008 </r>
       <r>     6.3344     3.1214    24.7808 </r>
       <r>     6.4562     2.8988    25.1338 </r>
       <r>     6.5779     2.4986    25.4380 </r>
       <r>     6.6997     3.3031    25.8401 </r>
       <r>     6.8214     2.4644    26.1401 </r>
       <r>     6.9432     2.2496    26.4140 </r>
       <r>     7.0649     2.9116    26.7685 </r>
       <r>     7.1867     3.4353    27.1868 </r>
       <r>     7.3084     2.3295    27.4704 </r>
       <r>     7.4302     2.1682    27.7343 </r>
       <r>     7.5519     2.7021    28.0633 </r>
       <r>     7.6737     1.9125    28.2962 </r>
       <r>     7.7954     3.7016    28.7468 </r>
       <r>     7.9172     2.9247    29.1029 </r>
       <r>     8.0389     1.6625    29.3053 </r>
       <r>     8.1607     1.6698    29.5086 </r>
       <r>     8.2824     2.4287    29.8043 </r>
       <r>     8.4042     2.0421    30.0529 </r>
       <r>     8.5259     2.0109    30.2977 </r>
       <r>     8.6477     1.1628    30.4393 </r>
       <r>     8.7694     0.7468    30.5302 </r>
       <r>     8.8912     1.3385    30.6932 </r>
       <r>     9.0129     1.7114    30.9015 </r>
       <r>     9.1346     1.1679    31.0437 </r>
       <r>     9.2564     0.8732    31.1500 </r>
       <r>     9.3781     0.7727    31.2441 </r>
       <r>     9.4999     0.6055    31.3178 </r>
       <r>     9.6216     1.1771    31.4611 </r>
       <r>     9.7434     0.8716    31.5672 </r>
       <r>     9.8651     0.4454    31.6215 </r>
       <r>     9.9869     0.6053    31.6952 </r>
       <r>    10.1086     0.4557    31.7506 </r>
       <r>    10.2304     0.6478    31.8295 </r>
       <r>    10.3521     0.3419    31.8711 </r>
       <r>    10.4739     0.4839    31.9300 </r>
       <r>    10.5956     0.1718    31.9510 </r>
       <r>    10.7174     0.2775    31.9847 </r>
       <r>    10.8391     0.1177    31.9991 </r>
       <r>    10.9609     0.0076    32.0000 </r>
       <r>    11.0826     0.0000    32.0000 </r>
       <r>    11.2044     0.0000    32.0000 </r>
       <r>    11.3261     0.0000    32.0000 </r>
       <r>    11.4479     0.0000    32.0000 </r>
       <r>    11.5696     0.0000    32.0000 </r>
       <r>    11.6914     0.0000    32.0000 </r>
       <r>    11.8131     0.0000    32.0000 </r>
       <r>    11.9349     0.0000    32.0000 </r>
       <r>    12.0566     0.0000    32.0000 </r>
       <r>    12.1783     0.0000    32.0000 </r>
       <r>    12.3001     0.0000    32.0000 </r>
       <r>    12.4218     0.0000    32.0000 </r>
       <r>    12.5436     0.0000    32.0000 </r>
       <r>    12.6653     0.0000    32.0000 </r>
       <r>    12.7871     0.0000    32.0000 </r>
       <r>    12.9088     0.0000    32.0000 </r>
       <r>    13.0306     0.0000    32.0000 </r>
       <r>    13.1523     0.0000    32.0000 </r>
       <r>    13.2741     0.0000    32.0000 </r>
       <r>    13.3958     0.0000    32.0000 </r>
       <r>    13.5176     0.0000    32.0000 </r>
       <r>    13.6393     0.0000    32.0000 </r>
       <r>    13.7611     0.0000    32.0000 </r>
       <r>    13.8828     0.0000    32.0000 </r>
       <r>    14.0046     0.0000    32.0000 </r>
       <r>    14.1263     0.0000    32.0000 </r>
       <r>    14.2481     0.0000    32.0000 </r>
       <r>    14.3698     0.0000    32.0000 </r>
       <r>    14.4916     0.0000    32.0000 </r>
       <r>    14.6133     0.0000    32.0000 </r>
       <r>    14.7351     0.0000    32.0000 </r>
       <r>    14.8568     0.0000    32.0000 </r>
       <r>    14.9786     0.0009    32.0001 </r>
       <r>    15.1003     0.2333    32.0285 </r>
       <r>    15.2220     0.3449    32.0705 </r>
       <r>    15.3438     0.2583    32.1020 </r>
       <r>    15.4655     0.5108    32.1641 </r>
       <r>    15.5873     1.0284    32.2894 </r>
       <r>    15.7090     0.9376    32.4035 </r>
       <r>    15.8308     0.5966    32.4761 </r>
       <r>    15.9525     0.9182    32.5879 </r>
       <r>    16.0743     0.8677    32.6936 </r>
       <r>    16.1960     1.4744    32.8731 </r>
       <r>    16.3178     2.0708    33.1252 </r>
       <r>    16.4395     1.6795    33.3297 </r>
       <r>    16.5613     1.3974    33.4998 </r>
       <r>    16.6830     1.6235    33.6975 </r>
       <r>    16.8048     1.4533    33.8744 </r>
       <r>    16.9265     1.8154    34.0954 </r>
       <r>    17.0483     2.0252    34.3420 </r>
       <r>    17.1700     2.5399    34.6512 </r>
       <r>    17.2918     2.3691    34.9397 </r>
       <r>    17.4135     1.9700    35.1795 </r>
       <r>    17.5353     1.8943    35.4101 </r>
       <r>    17.6570     2.2023    35.6782 </r>
       <r>    17.7788     2.6084    35.9958 </r>
       <r>    17.9005     2.5751    36.3093 </r>
       <r>    18.0223     2.3373    36.5939 </r>
       <r>    18.1440     2.0410    36.8424 </r>
       <r>    18.2658     2.8364    37.1877 </r>
       <r>    18.3875     3.1263    37.5683 </r>
       <r>    18.5092     3.3999    37.9822 </r>
       <r>    18.6310     4.1028    38.4817 </r>
       <r>    18.7527     3.1810    38.8690 </r>
       <r>    18.8745     3.1667    39.2546 </r>
       <r>    18.9962     3.1876    39.6427 </r>
       <r>    19.1180     4.0877    40.1403 </r>
       <r>    19.2397     3.9581    40.6222 </r>
       <r>    19.3615     3.4413    41.0412 </r>
       <r>    19.4832     5.3094    41.6876 </r>
       <r>    19.6050     4.9136    42.2858 </r>
       <r>    19.7267     3.7745    42.7454 </r>
       <r>    19.8485     3.2105    43.1362 </r>
       <r>    19.9702     2.9939    43.5007 </r>
       <r>    20.0920     2.9572    43.8608 </r>
       <r>    20.2137     2.1429    44.1217 </r>
       <r>    20.3355     2.2773    44.3989 </r>
       <r>    20.4572     3.2515    44.7948 </r>
       <r>    20.5790     3.5587    45.2280 </r>
       <r>    20.7007     3.1253    45.6086 </r>
       <r>    20.8225     2.6557    45.9319 </r>
       <r>    20.9442     2.6684    46.2568 </r>
       <r>    21.0660     2.4616    46.5564 </r>
       <r>    21.1877     2.0164    46.8019 </r>
       <r>    21.3095     1.4377    46.9770 </r>
       <r>    21.4312     1.4521    47.1538 </r>
       <r>    21.5529     2.0061    47.3980 </r>
       <r>    21.6747     1.1967    47.5437 </r>
       <r>    21.7964     1.4680    47.7224 </r>
       <r>    21.9182     0.9998    47.8441 </r>
       <r>    22.0399     0.4825    47.9029 </r>
       <r>    22.1617     0.3973    47.9512 </r>
       <r>    22.2834     0.0866    47.9618 </r>
       <r>    22.4052     0.0044    47.9623 </r>
       <r>    22.5269     0.0460    47.9679 </r>
       <r>    22.6487     0.1948    47.9916 </r>
       <r>    22.7704     0.0677    47.9999 </r>
       <r>    22.8922     0.0010    48.0000 </r>
       <r>    23.0139     0.0000    48.0000 </r>
       <r>    23.1357     0.0000    48.0000 </r>
       <r>    23.2574     0.0000    48.0000 </r>
       <r>    23.3792     0.0000    48.0000 </r>
       <r>    23.5009     0.0000    48.0000 </r>
       <r>    23.6227     0.0000    48.0000 </r>
       <r>    23.7444     0.0000    48.0000 </r>
       <r>    23.8662     0.0000    48.0000 </r>
       <r>    23.9879     0.0000    48.0000 </r>
       <r>    24.1097     0.0000    48.0000 </r>
       <r>    24.2314     0.0000    48.0000 </r>
       <r>    24.3532     0.0000    48.0000 </r>
      </set>
     </set>
    </array>
   </total>
  </dos>
 </calculation>
 <structure name="finalpos" >
  <crystal>
   <varray name="basis" >
    <v>       3.57360507      -0.01191202      -0.01191202 </v>
    <v>      -0.01191202       3.57360507      -0.01191202 </v>
    <v>      -0.01191202      -0.01191202       3.57360507 </v>
   </varray>
   <i name="volume">     45.63574642 </i>
   <varray name="rec_basis" >
    <v>       0.27983571       0.00093591       0.00093591 </v>
    <v>       0.00093591       0.27983571       0.00093591 </v>
    <v>       0.00093591       0.00093591       0.27983571 </v>
   </varray>
  </crystal>
  <varray name="positions" >
   <v>       0.25007716       0.25007716       0.25007716 </v>
   <v>      -0.00007716      -0.00007716      -0.00007716 </v>
   <v>       0.25007716       0.75007716       0.75007716 </v>
   <v>      -0.00007716       0.49992284       0.49992284 </v>
   <v>       0.75007716       0.25007716       0.75007716 </v>
   <v>       0.49992284      -0.00007716       0.49992284 </v>
   <v>       0.75007716       0.75007716       0.25007716 </v>
   <v>       0.49992284       0.49992284      -0.00007716 </v>
  </varray>
 </structure>
</modeling>
