unknown system                          
           1
     3.573605   -0.011912   -0.011912
    -0.011912    3.573605   -0.011912
    -0.011912   -0.011912    3.573605
   C 
   8
Direct configuration=     1
   0.25000000  0.25000000  0.25000000
   0.00000000  0.00000000  0.00000000
   0.25000000  0.75000000  0.75000000
   0.00000000  0.50000000  0.50000000
   0.75000000  0.25000000  0.75000000
   0.50000000  0.00000000  0.50000000
   0.75000000  0.75000000  0.25000000
   0.50000000  0.50000000  0.00000000
Direct configuration=     2
   0.25028013  0.25028013  0.25028013
  -0.00028013 -0.00028013 -0.00028013
   0.25028013  0.75028013  0.75028013
  -0.00028013  0.49971987  0.49971987
   0.75028013  0.25028013  0.75028013
   0.49971987 -0.00028013  0.49971987
   0.75028013  0.75028013  0.25028013
   0.49971987  0.49971987 -0.00028013
Direct configuration=     3
   0.25007716  0.25007716  0.25007716
  -0.00007716 -0.00007716 -0.00007716
   0.25007716  0.75007716  0.75007716
  -0.00007716  0.49992284  0.49992284
   0.75007716  0.25007716  0.75007716
   0.49992284 -0.00007716  0.49992284
   0.75007716  0.75007716  0.25007716
   0.49992284  0.49992284 -0.00007716
