   8   8   0   0
  0.5704232E+01  0.3573694E-09  0.3573694E-09  0.3573694E-09  0.5000000E-15
  1.000000000000000E-004
  CAR 
 unknown system                          
     24.43214210    -12.17611091  301     11.01674272      1.00000000
    -12.176  0.0000E+00  0.0000E+00
    -12.054  0.0000E+00  0.0000E+00
    -11.932  0.0000E+00  0.0000E+00
    -11.810  0.0000E+00  0.0000E+00
    -11.688  0.0000E+00  0.0000E+00
    -11.566  0.0000E+00  0.0000E+00
    -11.444  0.0000E+00  0.0000E+00
    -11.322  0.0000E+00  0.0000E+00
    -11.200  0.0000E+00  0.0000E+00
    -11.078  0.0000E+00  0.0000E+00
    -10.956  0.0000E+00  0.0000E+00
    -10.834  0.0000E+00  0.0000E+00
    -10.712  0.3438E-11  0.4196E-12
    -10.590  0.6354E-05  0.7753E-06
    -10.468  0.5315E-03  0.6563E-04
    -10.346  0.1730E-02  0.2767E-03
    -10.224  0.2190E-02  0.5439E-03
    -10.102  0.3274E-02  0.9434E-03
     -9.980  0.2353E-02  0.1231E-02
     -9.858  0.4436E-02  0.1772E-02
     -9.736  0.3447E-02  0.2192E-02
     -9.614  0.4032E-02  0.2684E-02
     -9.492  0.4990E-02  0.3293E-02
     -9.369  0.4932E-02  0.3895E-02
     -9.247  0.5402E-02  0.4554E-02
     -9.125  0.3877E-02  0.5027E-02
     -9.003  0.6835E-02  0.5861E-02
     -8.881  0.6414E-02  0.6644E-02
     -8.759  0.5404E-02  0.7304E-02
     -8.637  0.4859E-02  0.7896E-02
     -8.515  0.7528E-02  0.8815E-02
     -8.393  0.7963E-02  0.9787E-02
     -8.271  0.5895E-02  0.1051E-01
     -8.149  0.7614E-02  0.1144E-01
     -8.027  0.6399E-02  0.1222E-01
     -7.905  0.8278E-02  0.1323E-01
     -7.783  0.6252E-02  0.1399E-01
     -7.661  0.9408E-02  0.1514E-01
     -7.539  0.1016E-01  0.1638E-01
     -7.417  0.5813E-02  0.1709E-01
     -7.295  0.7825E-02  0.1804E-01
     -7.173  0.7886E-02  0.1900E-01
     -7.051  0.1184E-01  0.2045E-01
     -6.929  0.8927E-02  0.2154E-01
     -6.807  0.9360E-02  0.2268E-01
     -6.685  0.7641E-02  0.2361E-01
     -6.563  0.1076E-01  0.2492E-01
     -6.441  0.8793E-02  0.2600E-01
     -6.319  0.1036E-01  0.2726E-01
     -6.197  0.1051E-01  0.2854E-01
     -6.075  0.1124E-01  0.2991E-01
     -5.953  0.1058E-01  0.3121E-01
     -5.831  0.1171E-01  0.3263E-01
     -5.709  0.1248E-01  0.3416E-01
     -5.587  0.6648E-02  0.3497E-01
     -5.465  0.1142E-01  0.3636E-01
     -5.343  0.1530E-01  0.3823E-01
     -5.221  0.1392E-01  0.3993E-01
     -5.099  0.1160E-01  0.4134E-01
     -4.976  0.1418E-01  0.4307E-01
     -4.854  0.1287E-01  0.4464E-01
     -4.732  0.1237E-01  0.4615E-01
     -4.610  0.1707E-01  0.4824E-01
     -4.488  0.1478E-01  0.5004E-01
     -4.366  0.1452E-01  0.5181E-01
     -4.244  0.1485E-01  0.5362E-01
     -4.122  0.1437E-01  0.5538E-01
     -4.000  0.1509E-01  0.5722E-01
     -3.878  0.1350E-01  0.5887E-01
     -3.756  0.9649E-02  0.6005E-01
     -3.634  0.1199E-01  0.6151E-01
     -3.512  0.9416E-02  0.6266E-01
     -3.390  0.1599E-01  0.6461E-01
     -3.268  0.1387E-01  0.6630E-01
     -3.146  0.7753E-02  0.6725E-01
     -3.024  0.1108E-01  0.6860E-01
     -2.902  0.1186E-01  0.7005E-01
     -2.780  0.9496E-02  0.7120E-01
     -2.658  0.9938E-02  0.7242E-01
     -2.536  0.6113E-02  0.7316E-01
     -2.414  0.6298E-02  0.7393E-01
     -2.292  0.1167E-01  0.7536E-01
     -2.170  0.1253E-01  0.7689E-01
     -2.048  0.1283E-01  0.7845E-01
     -1.926  0.1378E-01  0.8013E-01
     -1.804  0.1075E-01  0.8144E-01
     -1.682  0.7391E-02  0.8235E-01
     -1.560  0.8009E-02  0.8332E-01
     -1.438  0.1082E-01  0.8464E-01
     -1.316  0.8308E-02  0.8566E-01
     -1.194  0.1071E-01  0.8697E-01
     -1.072  0.1865E-01  0.8924E-01
     -0.950  0.1645E-01  0.9125E-01
     -0.828  0.1820E-01  0.9347E-01
     -0.706  0.2309E-01  0.9629E-01
     -0.583  0.2242E-01  0.9902E-01
     -0.461  0.2158E-01  0.1017E+00
     -0.339  0.1444E-01  0.1034E+00
     -0.217  0.2122E-01  0.1060E+00
     -0.095  0.2445E-01  0.1090E+00
      0.027  0.2255E-01  0.1117E+00
      0.149  0.1726E-01  0.1138E+00
      0.271  0.1269E-01  0.1154E+00
      0.393  0.8472E-02  0.1164E+00
      0.515  0.1279E-01  0.1180E+00
      0.637  0.1357E-01  0.1196E+00
      0.759  0.1029E-01  0.1209E+00
      0.881  0.1232E-01  0.1224E+00
      1.003  0.1470E-01  0.1242E+00
      1.125  0.1507E-01  0.1260E+00
      1.247  0.8119E-02  0.1270E+00
      1.369  0.9159E-02  0.1281E+00
      1.491  0.1273E-01  0.1297E+00
      1.613  0.1034E-01  0.1310E+00
      1.735  0.1333E-01  0.1326E+00
      1.857  0.1334E-01  0.1342E+00
      1.979  0.1832E-01  0.1365E+00
      2.101  0.1970E-01  0.1389E+00
      2.223  0.1908E-01  0.1412E+00
      2.345  0.2339E-01  0.1440E+00
      2.467  0.2191E-01  0.1467E+00
      2.589  0.2425E-01  0.1497E+00
      2.711  0.1760E-01  0.1518E+00
      2.833  0.1600E-01  0.1538E+00
      2.955  0.1432E-01  0.1555E+00
      3.077  0.2339E-01  0.1584E+00
      3.199  0.3076E-01  0.1621E+00
      3.321  0.2454E-01  0.1651E+00
      3.443  0.1419E-01  0.1669E+00
      3.565  0.1747E-01  0.1690E+00
      3.687  0.2351E-01  0.1719E+00
      3.809  0.2497E-01  0.1749E+00
      3.932  0.2564E-01  0.1780E+00
      4.054  0.2419E-01  0.1810E+00
      4.176  0.2161E-01  0.1836E+00
      4.298  0.2229E-01  0.1863E+00
      4.420  0.2997E-01  0.1900E+00
      4.542  0.3371E-01  0.1941E+00
      4.664  0.3063E-01  0.1978E+00
      4.786  0.2913E-01  0.2014E+00
      4.908  0.2709E-01  0.2047E+00
      5.030  0.3024E-01  0.2084E+00
      5.152  0.2991E-01  0.2120E+00
      5.274  0.4200E-01  0.2172E+00
      5.396  0.3528E-01  0.2215E+00
      5.518  0.2052E-01  0.2240E+00
      5.640  0.2236E-01  0.2267E+00
      5.762  0.3158E-01  0.2306E+00
      5.884  0.3689E-01  0.2351E+00
      6.006  0.3207E-01  0.2390E+00
      6.128  0.2445E-01  0.2420E+00
      6.250  0.2657E-01  0.2452E+00
      6.372  0.2986E-01  0.2488E+00
      6.494  0.2746E-01  0.2522E+00
      6.616  0.2913E-01  0.2557E+00
      6.738  0.2868E-01  0.2592E+00
      6.860  0.2484E-01  0.2623E+00
      6.982  0.2351E-01  0.2651E+00
      7.104  0.3311E-01  0.2692E+00
      7.226  0.2917E-01  0.2727E+00
      7.348  0.2391E-01  0.2757E+00
      7.470  0.2279E-01  0.2784E+00
      7.592  0.2334E-01  0.2813E+00
      7.714  0.2538E-01  0.2844E+00
      7.836  0.3676E-01  0.2889E+00
      7.958  0.2376E-01  0.2918E+00
      8.080  0.1460E-01  0.2936E+00
      8.202  0.2106E-01  0.2961E+00
      8.325  0.2186E-01  0.2988E+00
      8.447  0.2043E-01  0.3013E+00
      8.569  0.1903E-01  0.3036E+00
      8.691  0.8956E-02  0.3047E+00
      8.813  0.9079E-02  0.3058E+00
      8.935  0.1536E-01  0.3077E+00
      9.057  0.1467E-01  0.3095E+00
      9.179  0.1218E-01  0.3110E+00
      9.301  0.6674E-02  0.3118E+00
      9.423  0.7313E-02  0.3127E+00
      9.545  0.8072E-02  0.3137E+00
      9.667  0.1130E-01  0.3150E+00
      9.789  0.7358E-02  0.3159E+00
      9.911  0.4221E-02  0.3164E+00
     10.033  0.6216E-02  0.3172E+00
     10.155  0.5042E-02  0.3178E+00
     10.277  0.5183E-02  0.3185E+00
     10.399  0.3253E-02  0.3188E+00
     10.521  0.4962E-02  0.3195E+00
     10.643  0.1177E-02  0.3196E+00
     10.765  0.2600E-02  0.3199E+00
     10.887  0.6958E-03  0.3200E+00
     11.009  0.4257E-05  0.3200E+00
     11.131  0.1091E-11  0.3200E+00
     11.253  0.0000E+00  0.3200E+00
     11.375  0.0000E+00  0.3200E+00
     11.497  0.0000E+00  0.3200E+00
     11.619  0.0000E+00  0.3200E+00
     11.741  0.0000E+00  0.3200E+00
     11.863  0.0000E+00  0.3200E+00
     11.985  0.0000E+00  0.3200E+00
     12.107  0.0000E+00  0.3200E+00
     12.229  0.0000E+00  0.3200E+00
     12.351  0.0000E+00  0.3200E+00
     12.473  0.0000E+00  0.3200E+00
     12.595  0.0000E+00  0.3200E+00
     12.718  0.0000E+00  0.3200E+00
     12.840  0.0000E+00  0.3200E+00
     12.962  0.0000E+00  0.3200E+00
     13.084  0.0000E+00  0.3200E+00
     13.206  0.0000E+00  0.3200E+00
     13.328  0.0000E+00  0.3200E+00
     13.450  0.0000E+00  0.3200E+00
     13.572  0.0000E+00  0.3200E+00
     13.694  0.0000E+00  0.3200E+00
     13.816  0.0000E+00  0.3200E+00
     13.938  0.0000E+00  0.3200E+00
     14.060  0.0000E+00  0.3200E+00
     14.182  0.0000E+00  0.3200E+00
     14.304  0.0000E+00  0.3200E+00
     14.426  0.0000E+00  0.3200E+00
     14.548  0.0000E+00  0.3200E+00
     14.670  0.0000E+00  0.3200E+00
     14.792  0.1948E-16  0.3200E+00
     14.914  0.2179E-07  0.3200E+00
     15.036  0.4428E-03  0.3201E+00
     15.158  0.4135E-02  0.3206E+00
     15.280  0.2538E-02  0.3209E+00
     15.402  0.2860E-02  0.3212E+00
     15.524  0.9833E-02  0.3224E+00
     15.646  0.9262E-02  0.3235E+00
     15.768  0.7212E-02  0.3244E+00
     15.890  0.6886E-02  0.3253E+00
     16.012  0.1092E-01  0.3266E+00
     16.134  0.9481E-02  0.3278E+00
     16.256  0.1888E-01  0.3301E+00
     16.378  0.2038E-01  0.3325E+00
     16.500  0.1339E-01  0.3342E+00
     16.622  0.1540E-01  0.3361E+00
     16.744  0.1489E-01  0.3379E+00
     16.866  0.1627E-01  0.3399E+00
     16.988  0.2080E-01  0.3424E+00
     17.110  0.2257E-01  0.3452E+00
     17.233  0.2272E-01  0.3479E+00
     17.355  0.2036E-01  0.3504E+00
     17.477  0.2241E-01  0.3531E+00
     17.599  0.2123E-01  0.3557E+00
     17.721  0.2471E-01  0.3588E+00
     17.843  0.2039E-01  0.3612E+00
     17.965  0.2717E-01  0.3646E+00
     18.087  0.2395E-01  0.3675E+00
     18.209  0.2575E-01  0.3706E+00
     18.331  0.2737E-01  0.3740E+00
     18.453  0.3369E-01  0.3781E+00
     18.575  0.3757E-01  0.3827E+00
     18.697  0.3319E-01  0.3867E+00
     18.819  0.3398E-01  0.3909E+00
     18.941  0.3479E-01  0.3951E+00
     19.063  0.3872E-01  0.3998E+00
     19.185  0.3970E-01  0.4047E+00
     19.307  0.2847E-01  0.4081E+00
     19.429  0.4290E-01  0.4134E+00
     19.551  0.5208E-01  0.4197E+00
     19.673  0.4729E-01  0.4255E+00
     19.795  0.3168E-01  0.4294E+00
     19.917  0.3613E-01  0.4338E+00
     20.039  0.2448E-01  0.4368E+00
     20.161  0.2483E-01  0.4398E+00
     20.283  0.2628E-01  0.4430E+00
     20.405  0.2930E-01  0.4466E+00
     20.527  0.3053E-01  0.4503E+00
     20.649  0.3383E-01  0.4544E+00
     20.771  0.3030E-01  0.4581E+00
     20.893  0.2570E-01  0.4613E+00
     21.015  0.2487E-01  0.4643E+00
     21.137  0.2090E-01  0.4668E+00
     21.259  0.1786E-01  0.4690E+00
     21.381  0.1693E-01  0.4711E+00
     21.503  0.1743E-01  0.4732E+00
     21.626  0.1434E-01  0.4750E+00
     21.748  0.1198E-01  0.4764E+00
     21.870  0.1405E-01  0.4781E+00
     21.992  0.5985E-02  0.4789E+00
     22.114  0.3735E-02  0.4793E+00
     22.236  0.1537E-02  0.4795E+00
     22.358  0.9248E-03  0.4796E+00
     22.480  0.8739E-03  0.4797E+00
     22.602  0.5619E-03  0.4798E+00
     22.724  0.7209E-03  0.4799E+00
     22.846  0.8412E-03  0.4800E+00
     22.968  0.6713E-05  0.4800E+00
     23.090  0.3034E-11  0.4800E+00
     23.212  0.0000E+00  0.4800E+00
     23.334  0.0000E+00  0.4800E+00
     23.456  0.0000E+00  0.4800E+00
     23.578  0.0000E+00  0.4800E+00
     23.700  0.0000E+00  0.4800E+00
     23.822  0.0000E+00  0.4800E+00
     23.944  0.0000E+00  0.4800E+00
     24.066  0.0000E+00  0.4800E+00
     24.188  0.0000E+00  0.4800E+00
     24.310  0.0000E+00  0.4800E+00
     24.432  0.0000E+00  0.4800E+00
