       N       E                     dE             d eps       ncg     rms          rms(c)
DAV:   1     0.100115199495E+03    0.10012E+03   -0.25922E+04 13440   0.199E+03
DAV:   2    -0.724989332340E+02   -0.17261E+03   -0.16950E+03 21720   0.224E+02
DAV:   3    -0.752464137621E+02   -0.27475E+01   -0.27475E+01 15480   0.401E+01
DAV:   4    -0.752643001924E+02   -0.17886E-01   -0.17886E-01 25080   0.254E+00
DAV:   5    -0.752643027321E+02   -0.25398E-05   -0.25398E-05 15264   0.363E-02    0.165E+01
DAV:   6    -0.734351400192E+02    0.18292E+01   -0.13799E+00 16008   0.627E+00    0.108E+01
DAV:   7    -0.728228675691E+02    0.61227E+00   -0.17905E+00 19728   0.721E+00    0.229E+00
DAV:   8    -0.728212270761E+02    0.16405E-02   -0.24320E-02 21360   0.118E+00    0.119E-01
DAV:   9    -0.728214083114E+02   -0.18124E-03   -0.46345E-04 19896   0.144E-01    0.622E-02
DAV:  10    -0.728215313841E+02   -0.12307E-03   -0.11730E-04 20472   0.858E-02    0.481E-03
DAV:  11    -0.728215323956E+02   -0.10116E-05   -0.16049E-06 21024   0.998E-03    0.278E-03
DAV:  12    -0.728215327588E+02   -0.36322E-06   -0.68060E-08 20352   0.235E-03    0.135E-04
DAV:  13    -0.728215327754E+02   -0.16529E-07   -0.79402E-10 21024   0.217E-04    0.772E-05
DAV:  14    -0.728215327780E+02   -0.26739E-08   -0.21389E-10 18456   0.116E-04
   1 F= -.72821533E+02 E0= -.72821533E+02  d E =-.728215E+02
       N       E                     dE             d eps       ncg     rms          rms(c)
DAV:   1    -0.728212423919E+02    0.29038E-03   -0.79843E-02 16944   0.228E+00    0.553E-02
DAV:   2    -0.728212708193E+02   -0.28427E-04   -0.46869E-04 22872   0.158E-01    0.276E-02
DAV:   3    -0.728212639231E+02    0.68962E-05   -0.19030E-05 18072   0.290E-02    0.588E-03
DAV:   4    -0.728212641344E+02   -0.21132E-06   -0.18122E-06 21576   0.945E-03    0.213E-03
DAV:   5    -0.728212641384E+02   -0.40254E-08   -0.16846E-07 18864   0.286E-03    0.357E-04
DAV:   6    -0.728212641321E+02    0.63683E-08   -0.11461E-08 18792   0.796E-04
   2 F= -.72821264E+02 E0= -.72821264E+02  d E =0.268646E-03
       N       E                     dE             d eps       ncg     rms          rms(c)
DAV:   1    -0.728215779163E+02   -0.31378E-03   -0.39705E-02 16632   0.161E+00    0.393E-02
DAV:   2    -0.728215930410E+02   -0.15125E-04   -0.24069E-04 23064   0.113E-01    0.195E-02
DAV:   3    -0.728215897172E+02    0.33239E-05   -0.90452E-06 17760   0.200E-02    0.446E-03
DAV:   4    -0.728215898378E+02   -0.12066E-06   -0.96917E-07 21648   0.685E-03    0.148E-03
DAV:   5    -0.728215898262E+02    0.11652E-07   -0.92838E-08 18528   0.214E-03    0.279E-04
DAV:   6    -0.728215898276E+02   -0.13843E-08   -0.60370E-09 16248   0.581E-04
   3 F= -.72821590E+02 E0= -.72821590E+02  d E =-.570495E-04
