 vasp.5.4.4.18Apr17-6-g9f103f2a35 (build Jan 14 2019 14:48:31) complex          
  
 executed on             LinuxIFC date 2019.08.26  21:09:05
 running on   24 total cores
 distrk:  each k-point on   24 cores,    1 groups
 distr:  one band on NCORES_PER_BAND=   1 cores,   24 groups


--------------------------------------------------------------------------------------------------------


 INCAR:
 POTCAR:    PAW_PBE C_h 06Feb2004                 

 ----------------------------------------------------------------------------- 
|                                                                             |
|           W    W    AA    RRRRR   N    N  II  N    N   GGGG   !!!           |
|           W    W   A  A   R    R  NN   N  II  NN   N  G    G  !!!           |
|           W    W  A    A  R    R  N N  N  II  N N  N  G       !!!           |
|           W WW W  AAAAAA  RRRRR   N  N N  II  N  N N  G  GGG   !            |
|           WW  WW  A    A  R   R   N   NN  II  N   NN  G    G                |
|           W    W  A    A  R    R  N    N  II  N    N   GGGG   !!!           |
|                                                                             |
|      For optimal performance we recommend to set                            |
|        NCORE= 4 - approx SQRT( number of cores)                             |
|      NCORE specifies how many cores store one orbital (NPAR=cpu/NCORE).     |
|      This setting can  greatly improve the performance of VASP for DFT.     |
|      The default,   NCORE=1            might be grossly inefficient         |
|      on modern multi-core architectures or massively parallel machines.     |
|      Do your own testing !!!!                                               |
|      Unfortunately you need to use the default for GW and RPA calculations. |
|      (for HF NCORE is supported but not extensively tested yet)             |
|                                                                             |
 ----------------------------------------------------------------------------- 

 POTCAR:    PAW_PBE C_h 06Feb2004                 
   VRHFIN =C: s2p2                                                              
   LEXCH  = PE                                                                  
   EATOM  =   147.1560 eV,   10.8157 Ry                                         
                                                                                
   TITEL  = PAW_PBE C_h 06Feb2004                                               
   LULTRA =        F    use ultrasoft PP ?                                      
   IUNSCR =        1    unscreen: 0-lin 1-nonlin 2-no                           
   RPACOR =    0.800    partial core radius                                     
   POMASS =   12.011; ZVAL   =    4.000    mass and valenz                      
   RCORE  =    1.100    outmost cutoff radius                                   
   RWIGS  =    1.630; RWIGS  =    0.863    wigner-seitz radius (au A)           
   ENMAX  =  700.000; ENMIN  =  500.000 eV                                      
   ICORE  =        2    local potential                                         
   LCOR   =        T    correct aug charges                                     
   LPAW   =        T    paw PP                                                  
   EAUG   =  946.768                                                            
   DEXC   =    0.000                                                            
   RMAX   =    1.128    core radius for proj-oper                               
   RAUG   =    1.300    factor for augmentation sphere                          
   RDEP   =    1.162    radius for radial grids                                 
   RDEPT  =    1.088    core radius for aug-charge                              
                                                                                
   Atomic configuration                                                         
    4 entries                                                                   
     n  l   j            E        occ.                                          
     1  0  0.50      -273.3789   2.0000                                         
     2  0  0.50       -13.7508   2.0000                                         
     2  1  0.50        -5.2854   2.0000                                         
     3  2  1.50        -5.4423   0.0000                                         
   Description                                                                  
     l       E           TYP  RCUT    TYP  RCUT                                 
     0    -13.7508458     23  1.100                                             
     0     -8.2022199     23  1.100                                             
     1     -5.2854383     23  1.100                                             
     1      1.1560700     23  1.100                                             
     2     -5.4423304      7  1.100                                             
  local pseudopotential read in
  partial core-charges read in
  partial kinetic energy density read in
  atomic valenz-charges read in
  non local Contribution for L=           0  read in
    real space projection operators read in
  non local Contribution for L=           0  read in
    real space projection operators read in
  non local Contribution for L=           1  read in
    real space projection operators read in
  non local Contribution for L=           1  read in
    real space projection operators read in
    PAW grid and wavefunctions read in
 
   number of l-projection  operators is LMAX  =           4
   number of lm-projection operators is LMMAX =           8
 
  PAW_PBE C_h 06Feb2004                 :
 energy of atom  1       EATOM= -147.1560
 kinetic energy error for atom=    0.0044 (will be added to EATOM!!)
 
 
 POSCAR: C8                                      
  positions in direct lattice
  velocities in cartesian coordinates
 exchange correlation table for  LEXCH =        8
   RHO(1)=    0.500       N(1)  =     2000
   RHO(2)=  100.500       N(2)  =     4000

 VTST: version 3.1, (03/28/14)

 CHAIN: initializing optimizer
 
 OPT: Using VASP Conjugate-Gradient optimizer
 CHAIN: Read ICHAIN            0
 
 POSCAR: C8                                      
  positions in direct lattice
  velocities in cartesian coordinates
 


--------------------------------------------------------------------------------------------------------


 ion  position               nearest neighbor table
   1  0.250  0.250  0.250-   4 1.54   6 1.54   8 1.54   2 1.56
   2  0.000  0.000  0.000-   3 1.54   5 1.54   7 1.54   1 1.56
   3  0.250  0.750  0.750-   2 1.54   6 1.54   8 1.54   4 1.56
   4  0.000  0.500  0.500-   1 1.54   5 1.54   7 1.54   3 1.56
   5  0.750  0.250  0.750-   2 1.54   4 1.54   8 1.54   6 1.56
   6  0.500  0.000  0.500-   1 1.54   3 1.54   7 1.54   5 1.56
   7  0.750  0.750  0.250-   2 1.54   4 1.54   6 1.54   8 1.56
   8  0.500  0.500  0.000-   1 1.54   3 1.54   5 1.54   7 1.56
 
  LATTYP: Found a trigonal (rhomboedric) cell.
 ALAT       =     3.5736944100
 COS(alpha) =     0.0100244988
  
  Lattice vectors:
  
 A1 = (   3.5736050710,   0.0178680254,   0.0178680254)
 A2 = (   0.0178680254,   3.5736050710,   0.0178680254)
 A3 = (   0.0178680254,   0.0178680254,   3.5736050710)


Analysis of symmetry for initial positions (statically):
=====================================================================
 Subroutine PRICEL returns following result:
 
  LATTYP: Found a trigonal (rhomboedric) cell.
 ALAT       =     2.5396178388
 COS(alpha) =     0.5099250056
  
  Lattice vectors:
  
 A1 = (  -0.0178680254,  -1.7957365482,  -1.7957365482)
 A2 = (  -1.7957365482,  -1.7957365482,  -0.0178680254)
 A3 = (  -1.7957365482,  -0.0178680254,  -1.7957365482)
 
   4 primitive cells build up your supercell.
 

 Routine SETGRP: Setting up the symmetry group for a 
 trigonal (rhombohedral) supercell.


 Subroutine GETGRP returns: Found 12 space group operations
 (whereof  6 operations were pure point group operations)
 out of a pool of 12 trial point group operations.


The static configuration has the point symmetry C_3v.
 The point group associated with its full space group is D_3d.


Analysis of symmetry for dynamics (positions and initial velocities):
=====================================================================
 Subroutine PRICEL returns following result:
 
  LATTYP: Found a trigonal (rhomboedric) cell.
 ALAT       =     2.5396178388
 COS(alpha) =     0.5099250056
  
  Lattice vectors:
  
 A1 = (  -0.0178680254,  -1.7957365482,  -1.7957365482)
 A2 = (  -1.7957365482,  -1.7957365482,  -0.0178680254)
 A3 = (  -1.7957365482,  -0.0178680254,  -1.7957365482)
 
   4 primitive cells build up your supercell.
 

 Routine SETGRP: Setting up the symmetry group for a 
 trigonal (rhombohedral) supercell.


 Subroutine GETGRP returns: Found 12 space group operations
 (whereof  6 operations were pure point group operations)
 out of a pool of 12 trial point group operations.


The dynamic configuration has the point symmetry C_3v.
 The point group associated with its full space group is D_3d.


 Subroutine INISYM returns: Found 12 space group operations
 (whereof  6 operations are pure point group operations),
 and found     4 'primitive' translations

 
 
 KPOINTS: K-Mesh Generated with KP-Resolved Value 

Automatic generation of k-mesh.
Space group operators:
 irot       det(A)        alpha          n_x          n_y          n_z        tau_x        tau_y        tau_z
    1     1.000000     0.000000     1.000000     0.000000     0.000000     0.000000     0.000000     0.000000
    2    -1.000000   180.000000     0.000000     0.707107    -0.707107     0.000000     0.000000     0.000000
    3     1.000000   120.000000    -0.577350    -0.577350    -0.577350     0.000000     0.000000     0.000000
    4    -1.000000   180.000000     0.707107    -0.707107    -0.000000     0.000000     0.000000     0.000000
    5     1.000000   120.000000     0.577350     0.577350     0.577350     0.000000     0.000000     0.000000
    6    -1.000000   180.000000     0.707107     0.000000    -0.707107     0.000000     0.000000     0.000000
    7    -1.000000     0.000000     1.000000     0.000000     0.000000    -0.750000    -0.750000    -0.750000
    8     1.000000   180.000000     0.000000     0.707107    -0.707107    -0.750000    -0.750000    -0.750000
    9    -1.000000   120.000000    -0.577350    -0.577350    -0.577350    -0.750000    -0.750000    -0.750000
   10     1.000000   180.000000     0.707107    -0.707107    -0.000000    -0.750000    -0.750000    -0.750000
   11    -1.000000   120.000000     0.577350     0.577350     0.577350    -0.750000    -0.750000    -0.750000
   12     1.000000   180.000000     0.707107     0.000000    -0.707107    -0.750000    -0.750000    -0.750000
 
 Subroutine IBZKPT returns following result:
 ===========================================
 
 Found    280 irreducible k-points:
 
 Following reciprocal coordinates:
            Coordinates               Weight
  0.035714  0.035714  0.035714      2.000000
  0.107143  0.035714  0.035714      6.000000
  0.178571  0.035714  0.035714      6.000000
  0.250000  0.035714  0.035714      6.000000
  0.321429  0.035714  0.035714      6.000000
  0.392857  0.035714  0.035714      6.000000
  0.464286  0.035714  0.035714      6.000000
 -0.464286  0.035714  0.035714      6.000000
 -0.392857  0.035714  0.035714      6.000000
 -0.321429  0.035714  0.035714      6.000000
 -0.250000  0.035714  0.035714      6.000000
 -0.178571  0.035714  0.035714      6.000000
 -0.107143  0.035714  0.035714      6.000000
 -0.035714  0.035714  0.035714      6.000000
  0.107143  0.107143  0.035714      6.000000
  0.178571  0.107143  0.035714     12.000000
  0.250000  0.107143  0.035714     12.000000
  0.321429  0.107143  0.035714     12.000000
  0.392857  0.107143  0.035714     12.000000
  0.464286  0.107143  0.035714     12.000000
 -0.464286  0.107143  0.035714     12.000000
 -0.392857  0.107143  0.035714     12.000000
 -0.321429  0.107143  0.035714     12.000000
 -0.250000  0.107143  0.035714     12.000000
 -0.178571  0.107143  0.035714     12.000000
 -0.107143  0.107143  0.035714     12.000000
 -0.035714  0.107143  0.035714     12.000000
  0.178571  0.178571  0.035714      6.000000
  0.250000  0.178571  0.035714     12.000000
  0.321429  0.178571  0.035714     12.000000
  0.392857  0.178571  0.035714     12.000000
  0.464286  0.178571  0.035714     12.000000
 -0.464286  0.178571  0.035714     12.000000
 -0.392857  0.178571  0.035714     12.000000
 -0.321429  0.178571  0.035714     12.000000
 -0.250000  0.178571  0.035714     12.000000
 -0.178571  0.178571  0.035714     12.000000
 -0.107143  0.178571  0.035714     12.000000
 -0.035714  0.178571  0.035714     12.000000
  0.250000  0.250000  0.035714      6.000000
  0.321429  0.250000  0.035714     12.000000
  0.392857  0.250000  0.035714     12.000000
  0.464286  0.250000  0.035714     12.000000
 -0.464286  0.250000  0.035714     12.000000
 -0.392857  0.250000  0.035714     12.000000
 -0.321429  0.250000  0.035714     12.000000
 -0.250000  0.250000  0.035714     12.000000
 -0.178571  0.250000  0.035714     12.000000
 -0.107143  0.250000  0.035714     12.000000
 -0.035714  0.250000  0.035714     12.000000
  0.321429  0.321429  0.035714      6.000000
  0.392857  0.321429  0.035714     12.000000
  0.464286  0.321429  0.035714     12.000000
 -0.464286  0.321429  0.035714     12.000000
 -0.392857  0.321429  0.035714     12.000000
 -0.321429  0.321429  0.035714     12.000000
 -0.250000  0.321429  0.035714     12.000000
 -0.178571  0.321429  0.035714     12.000000
 -0.107143  0.321429  0.035714     12.000000
 -0.035714  0.321429  0.035714     12.000000
  0.392857  0.392857  0.035714      6.000000
  0.464286  0.392857  0.035714     12.000000
 -0.464286  0.392857  0.035714     12.000000
 -0.392857  0.392857  0.035714     12.000000
 -0.321429  0.392857  0.035714     12.000000
 -0.250000  0.392857  0.035714     12.000000
 -0.178571  0.392857  0.035714     12.000000
 -0.107143  0.392857  0.035714     12.000000
 -0.035714  0.392857  0.035714     12.000000
  0.464286  0.464286  0.035714      6.000000
 -0.464286  0.464286  0.035714     12.000000
 -0.392857  0.464286  0.035714     12.000000
 -0.321429  0.464286  0.035714     12.000000
 -0.250000  0.464286  0.035714     12.000000
 -0.178571  0.464286  0.035714     12.000000
 -0.107143  0.464286  0.035714     12.000000
 -0.035714  0.464286  0.035714     12.000000
 -0.464286 -0.464286  0.035714      6.000000
 -0.392857 -0.464286  0.035714     12.000000
 -0.321429 -0.464286  0.035714     12.000000
 -0.250000 -0.464286  0.035714     12.000000
 -0.178571 -0.464286  0.035714     12.000000
 -0.107143 -0.464286  0.035714     12.000000
 -0.392857 -0.392857  0.035714      6.000000
 -0.321429 -0.392857  0.035714     12.000000
 -0.250000 -0.392857  0.035714     12.000000
 -0.178571 -0.392857  0.035714     12.000000
 -0.107143 -0.392857  0.035714     12.000000
 -0.321429 -0.321429  0.035714      6.000000
 -0.250000 -0.321429  0.035714     12.000000
 -0.178571 -0.321429  0.035714     12.000000
 -0.107143 -0.321429  0.035714     12.000000
 -0.250000 -0.250000  0.035714      6.000000
 -0.178571 -0.250000  0.035714     12.000000
 -0.107143 -0.250000  0.035714     12.000000
 -0.178571 -0.178571  0.035714      6.000000
 -0.107143 -0.178571  0.035714     12.000000
 -0.107143 -0.107143  0.035714      6.000000
  0.107143  0.107143  0.107143      2.000000
  0.178571  0.107143  0.107143      6.000000
  0.250000  0.107143  0.107143      6.000000
  0.321429  0.107143  0.107143      6.000000
  0.392857  0.107143  0.107143      6.000000
  0.464286  0.107143  0.107143      6.000000
 -0.464286  0.107143  0.107143      6.000000
 -0.392857  0.107143  0.107143      6.000000
 -0.321429  0.107143  0.107143      6.000000
 -0.250000  0.107143  0.107143      6.000000
 -0.178571  0.107143  0.107143      6.000000
 -0.107143  0.107143  0.107143      6.000000
  0.178571  0.178571  0.107143      6.000000
  0.250000  0.178571  0.107143     12.000000
  0.321429  0.178571  0.107143     12.000000
  0.392857  0.178571  0.107143     12.000000
  0.464286  0.178571  0.107143     12.000000
 -0.464286  0.178571  0.107143     12.000000
 -0.392857  0.178571  0.107143     12.000000
 -0.321429  0.178571  0.107143     12.000000
 -0.250000  0.178571  0.107143     12.000000
 -0.178571  0.178571  0.107143     12.000000
 -0.107143  0.178571  0.107143     12.000000
  0.250000  0.250000  0.107143      6.000000
  0.321429  0.250000  0.107143     12.000000
  0.392857  0.250000  0.107143     12.000000
  0.464286  0.250000  0.107143     12.000000
 -0.464286  0.250000  0.107143     12.000000
 -0.392857  0.250000  0.107143     12.000000
 -0.321429  0.250000  0.107143     12.000000
 -0.250000  0.250000  0.107143     12.000000
 -0.178571  0.250000  0.107143     12.000000
 -0.107143  0.250000  0.107143     12.000000
  0.321429  0.321429  0.107143      6.000000
  0.392857  0.321429  0.107143     12.000000
  0.464286  0.321429  0.107143     12.000000
 -0.464286  0.321429  0.107143     12.000000
 -0.392857  0.321429  0.107143     12.000000
 -0.321429  0.321429  0.107143     12.000000
 -0.250000  0.321429  0.107143     12.000000
 -0.178571  0.321429  0.107143     12.000000
 -0.107143  0.321429  0.107143     12.000000
  0.392857  0.392857  0.107143      6.000000
  0.464286  0.392857  0.107143     12.000000
 -0.464286  0.392857  0.107143     12.000000
 -0.392857  0.392857  0.107143     12.000000
 -0.321429  0.392857  0.107143     12.000000
 -0.250000  0.392857  0.107143     12.000000
 -0.178571  0.392857  0.107143     12.000000
 -0.107143  0.392857  0.107143     12.000000
  0.464286  0.464286  0.107143      6.000000
 -0.464286  0.464286  0.107143     12.000000
 -0.392857  0.464286  0.107143     12.000000
 -0.321429  0.464286  0.107143     12.000000
 -0.250000  0.464286  0.107143     12.000000
 -0.178571  0.464286  0.107143     12.000000
 -0.107143  0.464286  0.107143     12.000000
 -0.464286 -0.464286  0.107143      6.000000
 -0.392857 -0.464286  0.107143     12.000000
 -0.321429 -0.464286  0.107143     12.000000
 -0.250000 -0.464286  0.107143     12.000000
 -0.178571 -0.464286  0.107143     12.000000
 -0.392857 -0.392857  0.107143      6.000000
 -0.321429 -0.392857  0.107143     12.000000
 -0.250000 -0.392857  0.107143     12.000000
 -0.178571 -0.392857  0.107143     12.000000
 -0.321429 -0.321429  0.107143      6.000000
 -0.250000 -0.321429  0.107143     12.000000
 -0.178571 -0.321429  0.107143     12.000000
 -0.250000 -0.250000  0.107143      6.000000
 -0.178571 -0.250000  0.107143     12.000000
 -0.178571 -0.178571  0.107143      6.000000
  0.178571  0.178571  0.178571      2.000000
  0.250000  0.178571  0.178571      6.000000
  0.321429  0.178571  0.178571      6.000000
  0.392857  0.178571  0.178571      6.000000
  0.464286  0.178571  0.178571      6.000000
 -0.464286  0.178571  0.178571      6.000000
 -0.392857  0.178571  0.178571      6.000000
 -0.321429  0.178571  0.178571      6.000000
 -0.250000  0.178571  0.178571      6.000000
 -0.178571  0.178571  0.178571      6.000000
  0.250000  0.250000  0.178571      6.000000
  0.321429  0.250000  0.178571     12.000000
  0.392857  0.250000  0.178571     12.000000
  0.464286  0.250000  0.178571     12.000000
 -0.464286  0.250000  0.178571     12.000000
 -0.392857  0.250000  0.178571     12.000000
 -0.321429  0.250000  0.178571     12.000000
 -0.250000  0.250000  0.178571     12.000000
 -0.178571  0.250000  0.178571     12.000000
  0.321429  0.321429  0.178571      6.000000
  0.392857  0.321429  0.178571     12.000000
  0.464286  0.321429  0.178571     12.000000
 -0.464286  0.321429  0.178571     12.000000
 -0.392857  0.321429  0.178571     12.000000
 -0.321429  0.321429  0.178571     12.000000
 -0.250000  0.321429  0.178571     12.000000
 -0.178571  0.321429  0.178571     12.000000
  0.392857  0.392857  0.178571      6.000000
  0.464286  0.392857  0.178571     12.000000
 -0.464286  0.392857  0.178571     12.000000
 -0.392857  0.392857  0.178571     12.000000
 -0.321429  0.392857  0.178571     12.000000
 -0.250000  0.392857  0.178571     12.000000
 -0.178571  0.392857  0.178571     12.000000
  0.464286  0.464286  0.178571      6.000000
 -0.464286  0.464286  0.178571     12.000000
 -0.392857  0.464286  0.178571     12.000000
 -0.321429  0.464286  0.178571     12.000000
 -0.250000  0.464286  0.178571     12.000000
 -0.178571  0.464286  0.178571     12.000000
 -0.464286 -0.464286  0.178571      6.000000
 -0.392857 -0.464286  0.178571     12.000000
 -0.321429 -0.464286  0.178571     12.000000
 -0.250000 -0.464286  0.178571     12.000000
 -0.392857 -0.392857  0.178571      6.000000
 -0.321429 -0.392857  0.178571     12.000000
 -0.250000 -0.392857  0.178571     12.000000
 -0.321429 -0.321429  0.178571      6.000000
 -0.250000 -0.321429  0.178571     12.000000
 -0.250000 -0.250000  0.178571      6.000000
  0.250000  0.250000  0.250000      2.000000
  0.321429  0.250000  0.250000      6.000000
  0.392857  0.250000  0.250000      6.000000
  0.464286  0.250000  0.250000      6.000000
 -0.464286  0.250000  0.250000      6.000000
 -0.392857  0.250000  0.250000      6.000000
 -0.321429  0.250000  0.250000      6.000000
 -0.250000  0.250000  0.250000      6.000000
  0.321429  0.321429  0.250000      6.000000
  0.392857  0.321429  0.250000     12.000000
  0.464286  0.321429  0.250000     12.000000
 -0.464286  0.321429  0.250000     12.000000
 -0.392857  0.321429  0.250000     12.000000
 -0.321429  0.321429  0.250000     12.000000
 -0.250000  0.321429  0.250000     12.000000
  0.392857  0.392857  0.250000      6.000000
  0.464286  0.392857  0.250000     12.000000
 -0.464286  0.392857  0.250000     12.000000
 -0.392857  0.392857  0.250000     12.000000
 -0.321429  0.392857  0.250000     12.000000
 -0.250000  0.392857  0.250000     12.000000
  0.464286  0.464286  0.250000      6.000000
 -0.464286  0.464286  0.250000     12.000000
 -0.392857  0.464286  0.250000     12.000000
 -0.321429  0.464286  0.250000     12.000000
 -0.250000  0.464286  0.250000     12.000000
 -0.464286 -0.464286  0.250000      6.000000
 -0.392857 -0.464286  0.250000     12.000000
 -0.321429 -0.464286  0.250000     12.000000
 -0.392857 -0.392857  0.250000      6.000000
 -0.321429 -0.392857  0.250000     12.000000
 -0.321429 -0.321429  0.250000      6.000000
  0.321429  0.321429  0.321429      2.000000
  0.392857  0.321429  0.321429      6.000000
  0.464286  0.321429  0.321429      6.000000
 -0.464286  0.321429  0.321429      6.000000
 -0.392857  0.321429  0.321429      6.000000
 -0.321429  0.321429  0.321429      6.000000
  0.392857  0.392857  0.321429      6.000000
  0.464286  0.392857  0.321429     12.000000
 -0.464286  0.392857  0.321429     12.000000
 -0.392857  0.392857  0.321429     12.000000
 -0.321429  0.392857  0.321429     12.000000
  0.464286  0.464286  0.321429      6.000000
 -0.464286  0.464286  0.321429     12.000000
 -0.392857  0.464286  0.321429     12.000000
 -0.321429  0.464286  0.321429     12.000000
 -0.464286 -0.464286  0.321429      6.000000
 -0.392857 -0.464286  0.321429     12.000000
 -0.392857 -0.392857  0.321429      6.000000
  0.392857  0.392857  0.392857      2.000000
  0.464286  0.392857  0.392857      6.000000
 -0.464286  0.392857  0.392857      6.000000
 -0.392857  0.392857  0.392857      6.000000
  0.464286  0.464286  0.392857      6.000000
 -0.464286  0.464286  0.392857     12.000000
 -0.392857  0.464286  0.392857     12.000000
 -0.464286 -0.464286  0.392857      6.000000
  0.464286  0.464286  0.464286      2.000000
 -0.464286  0.464286  0.464286      6.000000
 
 Following cartesian coordinates:
            Coordinates               Weight
  0.009895  0.009895  0.009895      2.000000
  0.029884  0.009796  0.009796      6.000000
  0.049873  0.009696  0.009696      6.000000
  0.069861  0.009597  0.009597      6.000000
  0.089850  0.009497  0.009497      6.000000
  0.109839  0.009398  0.009398      6.000000
  0.129828  0.009298  0.009298      6.000000
 -0.130027  0.010591  0.010591      6.000000
 -0.110038  0.010492  0.010492      6.000000
 -0.090049  0.010392  0.010392      6.000000
 -0.070060  0.010293  0.010293      6.000000
 -0.050071  0.010193  0.010193      6.000000
 -0.030083  0.010094  0.010094      6.000000
 -0.010094  0.009994  0.009994      6.000000
  0.029784  0.029784  0.009696      6.000000
  0.049773  0.029685  0.009597     12.000000
  0.069762  0.029585  0.009497     12.000000
  0.089751  0.029486  0.009398     12.000000
  0.109740  0.029387  0.009298     12.000000
  0.129728  0.029287  0.009199     12.000000
 -0.130126  0.030580  0.010492     12.000000
 -0.110137  0.030480  0.010392     12.000000
 -0.090149  0.030381  0.010293     12.000000
 -0.070160  0.030282  0.010193     12.000000
 -0.050171  0.030182  0.010094     12.000000
 -0.030182  0.030083  0.009994     12.000000
 -0.010193  0.029983  0.009895     12.000000
  0.049674  0.049674  0.009497      6.000000
  0.069663  0.049574  0.009398     12.000000
  0.089651  0.049475  0.009298     12.000000
  0.109640  0.049375  0.009199     12.000000
  0.129629  0.049276  0.009099     12.000000
 -0.130226  0.050569  0.010392     12.000000
 -0.110237  0.050469  0.010293     12.000000
 -0.090248  0.050370  0.010193     12.000000
 -0.070259  0.050270  0.010094     12.000000
 -0.050270  0.050171  0.009994     12.000000
 -0.030282  0.050071  0.009895     12.000000
 -0.010293  0.049972  0.009796     12.000000
  0.069563  0.069563  0.009298      6.000000
  0.089552  0.069464  0.009199     12.000000
  0.109541  0.069364  0.009099     12.000000
  0.129530  0.069265  0.009000     12.000000
 -0.130325  0.070558  0.010293     12.000000
 -0.110336  0.070458  0.010193     12.000000
 -0.090347  0.070359  0.010094     12.000000
 -0.070359  0.070259  0.009994     12.000000
 -0.050370  0.070160  0.009895     12.000000
 -0.030381  0.070060  0.009796     12.000000
 -0.010392  0.069961  0.009696     12.000000
  0.089452  0.089452  0.009099      6.000000
  0.109441  0.089353  0.009000     12.000000
  0.129430  0.089254  0.008900     12.000000
 -0.130425  0.090546  0.010193     12.000000
 -0.110436  0.090447  0.010094     12.000000
 -0.090447  0.090347  0.009994     12.000000
 -0.070458  0.090248  0.009895     12.000000
 -0.050469  0.090149  0.009796     12.000000
 -0.030480  0.090049  0.009696     12.000000
 -0.010492  0.089950  0.009597     12.000000
  0.109342  0.109342  0.008900      6.000000
  0.129331  0.109242  0.008801     12.000000
 -0.130524  0.110535  0.010094     12.000000
 -0.110535  0.110436  0.009994     12.000000
 -0.090546  0.110336  0.009895     12.000000
 -0.070558  0.110237  0.009796     12.000000
 -0.050569  0.110137  0.009696     12.000000
 -0.030580  0.110038  0.009597     12.000000
 -0.010591  0.109938  0.009497     12.000000
  0.129231  0.129231  0.008702      6.000000
 -0.130623  0.130524  0.009994     12.000000
 -0.110635  0.130425  0.009895     12.000000
 -0.090646  0.130325  0.009796     12.000000
 -0.070657  0.130226  0.009696     12.000000
 -0.050668  0.130126  0.009597     12.000000
 -0.030679  0.130027  0.009497     12.000000
 -0.010691  0.129927  0.009398     12.000000
 -0.129331 -0.129331  0.011287      6.000000
 -0.109342 -0.129430  0.011188     12.000000
 -0.089353 -0.129530  0.011088     12.000000
 -0.069364 -0.129629  0.010989     12.000000
 -0.049375 -0.129728  0.010889     12.000000
 -0.029387 -0.129828  0.010790     12.000000
 -0.109441 -0.109441  0.011088      6.000000
 -0.089452 -0.109541  0.010989     12.000000
 -0.069464 -0.109640  0.010889     12.000000
 -0.049475 -0.109740  0.010790     12.000000
 -0.029486 -0.109839  0.010691     12.000000
 -0.089552 -0.089552  0.010889      6.000000
 -0.069563 -0.089651  0.010790     12.000000
 -0.049574 -0.089751  0.010691     12.000000
 -0.029585 -0.089850  0.010591     12.000000
 -0.069663 -0.069663  0.010691      6.000000
 -0.049674 -0.069762  0.010591     12.000000
 -0.029685 -0.069861  0.010492     12.000000
 -0.049773 -0.049773  0.010492      6.000000
 -0.029784 -0.049873  0.010392     12.000000
 -0.029884 -0.029884  0.010293      6.000000
  0.029685  0.029685  0.029685      2.000000
  0.049674  0.029585  0.029585      6.000000
  0.069663  0.029486  0.029486      6.000000
  0.089651  0.029387  0.029387      6.000000
  0.109640  0.029287  0.029287      6.000000
  0.129629  0.029188  0.029188      6.000000
 -0.130226  0.030480  0.030480      6.000000
 -0.110237  0.030381  0.030381      6.000000
 -0.090248  0.030282  0.030282      6.000000
 -0.070259  0.030182  0.030182      6.000000
 -0.050270  0.030083  0.030083      6.000000
 -0.030282  0.029983  0.029983      6.000000
  0.049574  0.049574  0.029486      6.000000
  0.069563  0.049475  0.029387     12.000000
  0.089552  0.049375  0.029287     12.000000
  0.109541  0.049276  0.029188     12.000000
  0.129530  0.049176  0.029088     12.000000
 -0.130325  0.050469  0.030381     12.000000
 -0.110336  0.050370  0.030282     12.000000
 -0.090347  0.050270  0.030182     12.000000
 -0.070359  0.050171  0.030083     12.000000
 -0.050370  0.050071  0.029983     12.000000
 -0.030381  0.049972  0.029884     12.000000
  0.069464  0.069464  0.029287      6.000000
  0.089452  0.069364  0.029188     12.000000
  0.109441  0.069265  0.029088     12.000000
  0.129430  0.069165  0.028989     12.000000
 -0.130425  0.070458  0.030282     12.000000
 -0.110436  0.070359  0.030182     12.000000
 -0.090447  0.070259  0.030083     12.000000
 -0.070458  0.070160  0.029983     12.000000
 -0.050469  0.070060  0.029884     12.000000
 -0.030480  0.069961  0.029784     12.000000
  0.089353  0.089353  0.029088      6.000000
  0.109342  0.089254  0.028989     12.000000
  0.129331  0.089154  0.028889     12.000000
 -0.130524  0.090447  0.030182     12.000000
 -0.110535  0.090347  0.030083     12.000000
 -0.090546  0.090248  0.029983     12.000000
 -0.070558  0.090149  0.029884     12.000000
 -0.050569  0.090049  0.029784     12.000000
 -0.030580  0.089950  0.029685     12.000000
  0.109242  0.109242  0.028889      6.000000
  0.129231  0.109143  0.028790     12.000000
 -0.130623  0.110436  0.030083     12.000000
 -0.110635  0.110336  0.029983     12.000000
 -0.090646  0.110237  0.029884     12.000000
 -0.070657  0.110137  0.029784     12.000000
 -0.050668  0.110038  0.029685     12.000000
 -0.030679  0.109938  0.029585     12.000000
  0.129132  0.129132  0.028690      6.000000
 -0.130723  0.130425  0.029983     12.000000
 -0.110734  0.130325  0.029884     12.000000
 -0.090745  0.130226  0.029784     12.000000
 -0.070756  0.130126  0.029685     12.000000
 -0.050768  0.130027  0.029585     12.000000
 -0.030779  0.129927  0.029486     12.000000
 -0.129430 -0.129430  0.031276      6.000000
 -0.109441 -0.129530  0.031177     12.000000
 -0.089452 -0.129629  0.031077     12.000000
 -0.069464 -0.129728  0.030978     12.000000
 -0.049475 -0.129828  0.030878     12.000000
 -0.109541 -0.109541  0.031077      6.000000
 -0.089552 -0.109640  0.030978     12.000000
 -0.069563 -0.109740  0.030878     12.000000
 -0.049574 -0.109839  0.030779     12.000000
 -0.089651 -0.089651  0.030878      6.000000
 -0.069663 -0.089751  0.030779     12.000000
 -0.049674 -0.089850  0.030679     12.000000
 -0.069762 -0.069762  0.030679      6.000000
 -0.049773 -0.069861  0.030580     12.000000
 -0.049873 -0.049873  0.030480      6.000000
  0.049475  0.049475  0.049475      2.000000
  0.069464  0.049375  0.049375      6.000000
  0.089452  0.049276  0.049276      6.000000
  0.109441  0.049176  0.049176      6.000000
  0.129430  0.049077  0.049077      6.000000
 -0.130425  0.050370  0.050370      6.000000
 -0.110436  0.050270  0.050270      6.000000
 -0.090447  0.050171  0.050171      6.000000
 -0.070458  0.050071  0.050071      6.000000
 -0.050469  0.049972  0.049972      6.000000
  0.069364  0.069364  0.049276      6.000000
  0.089353  0.069265  0.049176     12.000000
  0.109342  0.069165  0.049077     12.000000
  0.129331  0.069066  0.048978     12.000000
 -0.130524  0.070359  0.050270     12.000000
 -0.110535  0.070259  0.050171     12.000000
 -0.090546  0.070160  0.050071     12.000000
 -0.070558  0.070060  0.049972     12.000000
 -0.050569  0.069961  0.049873     12.000000
  0.089254  0.089254  0.049077      6.000000
  0.109242  0.089154  0.048978     12.000000
  0.129231  0.089055  0.048878     12.000000
 -0.130623  0.090347  0.050171     12.000000
 -0.110635  0.090248  0.050071     12.000000
 -0.090646  0.090149  0.049972     12.000000
 -0.070657  0.090049  0.049873     12.000000
 -0.050668  0.089950  0.049773     12.000000
  0.109143  0.109143  0.048878      6.000000
  0.129132  0.109043  0.048779     12.000000
 -0.130723  0.110336  0.050071     12.000000
 -0.110734  0.110237  0.049972     12.000000
 -0.090745  0.110137  0.049873     12.000000
 -0.070756  0.110038  0.049773     12.000000
 -0.050768  0.109938  0.049674     12.000000
  0.129032  0.129032  0.048679      6.000000
 -0.130822  0.130325  0.049972     12.000000
 -0.110833  0.130226  0.049873     12.000000
 -0.090845  0.130126  0.049773     12.000000
 -0.070856  0.130027  0.049674     12.000000
 -0.050867  0.129927  0.049574     12.000000
 -0.129530 -0.129530  0.051265      6.000000
 -0.109541 -0.129629  0.051165     12.000000
 -0.089552 -0.129728  0.051066     12.000000
 -0.069563 -0.129828  0.050967     12.000000
 -0.109640 -0.109640  0.051066      6.000000
 -0.089651 -0.109740  0.050967     12.000000
 -0.069663 -0.109839  0.050867     12.000000
 -0.089751 -0.089751  0.050867      6.000000
 -0.069762 -0.089850  0.050768     12.000000
 -0.069861 -0.069861  0.050668      6.000000
  0.069265  0.069265  0.069265      2.000000
  0.089254  0.069165  0.069165      6.000000
  0.109242  0.069066  0.069066      6.000000
  0.129231  0.068966  0.068966      6.000000
 -0.130623  0.070259  0.070259      6.000000
 -0.110635  0.070160  0.070160      6.000000
 -0.090646  0.070060  0.070060      6.000000
 -0.070657  0.069961  0.069961      6.000000
  0.089154  0.089154  0.069066      6.000000
  0.109143  0.089055  0.068966     12.000000
  0.129132  0.088955  0.068867     12.000000
 -0.130723  0.090248  0.070160     12.000000
 -0.110734  0.090149  0.070060     12.000000
 -0.090745  0.090049  0.069961     12.000000
 -0.070756  0.089950  0.069861     12.000000
  0.109043  0.109043  0.068867      6.000000
  0.129032  0.108944  0.068767     12.000000
 -0.130822  0.110237  0.070060     12.000000
 -0.110833  0.110137  0.069961     12.000000
 -0.090845  0.110038  0.069861     12.000000
 -0.070856  0.109938  0.069762     12.000000
  0.128933  0.128933  0.068668      6.000000
 -0.130922  0.130226  0.069961     12.000000
 -0.110933  0.130126  0.069861     12.000000
 -0.090944  0.130027  0.069762     12.000000
 -0.070955  0.129927  0.069663     12.000000
 -0.129629 -0.129629  0.071254      6.000000
 -0.109640 -0.129728  0.071154     12.000000
 -0.089651 -0.129828  0.071055     12.000000
 -0.109740 -0.109740  0.071055      6.000000
 -0.089751 -0.109839  0.070955     12.000000
 -0.089850 -0.089850  0.070856      6.000000
  0.089055  0.089055  0.089055      2.000000
  0.109043  0.088955  0.088955      6.000000
  0.129032  0.088856  0.088856      6.000000
 -0.130822  0.090149  0.090149      6.000000
 -0.110833  0.090049  0.090049      6.000000
 -0.090845  0.089950  0.089950      6.000000
  0.108944  0.108944  0.088856      6.000000
  0.128933  0.108845  0.088756     12.000000
 -0.130922  0.110137  0.090049     12.000000
 -0.110933  0.110038  0.089950     12.000000
 -0.090944  0.109938  0.089850     12.000000
  0.128833  0.128833  0.088657      6.000000
 -0.131021  0.130126  0.089950     12.000000
 -0.111032  0.130027  0.089850     12.000000
 -0.091044  0.129927  0.089751     12.000000
 -0.129728 -0.129728  0.091242      6.000000
 -0.109740 -0.129828  0.091143     12.000000
 -0.109839 -0.109839  0.091044      6.000000
  0.108845  0.108845  0.108845      2.000000
  0.128833  0.108745  0.108745      6.000000
 -0.131021  0.110038  0.110038      6.000000
 -0.111032  0.109938  0.109938      6.000000
  0.128734  0.128734  0.108646      6.000000
 -0.131121  0.130027  0.109938     12.000000
 -0.111132  0.129927  0.109839     12.000000
 -0.129828 -0.129828  0.111231      6.000000
  0.128634  0.128634  0.128634      2.000000
 -0.131220  0.129927  0.129927      6.000000
 


--------------------------------------------------------------------------------------------------------




 Dimension of arrays:
   k-points           NKPTS =    280   k-points in BZ     NKDIM =    280   number of bands    NBANDS=     24
   number of dos      NEDOS =    301   number of ions     NIONS =      8
   non local maximal  LDIM  =      4   non local SUM 2l+1 LMDIM =      8
   total plane-waves  NPLWV =  46656
   max r-space proj   IRMAX =      1   max aug-charges    IRDMAX=  16274
   dimension x,y,z NGX =    36 NGY =   36 NGZ =   36
   dimension x,y,z NGXF=    48 NGYF=   48 NGZF=   48
   support grid    NGXF=    96 NGYF=   96 NGZF=   96
   ions per type =               8
   NGX,Y,Z   is equivalent  to a cutoff of  16.75, 16.75, 16.75 a.u.
   NGXF,Y,Z  is equivalent  to a cutoff of  22.33, 22.33, 22.33 a.u.

 SYSTEM =  unknown system                          
 POSCAR =  C8                                      

 Startparameter for this run:
   NWRITE =      2    write-flag & timer
   PREC   = high      normal or accurate (medium, high low for compatibility)
   ISTART =      0    job   : 0-new  1-cont  2-samecut
   ICHARG =      2    charge: 1-file 2-atom 10-const
   ISPIN  =      1    spin polarized calculation?
   LNONCOLLINEAR =      F non collinear calculations
   LSORBIT =      F    spin-orbit coupling
   INIWAV =      1    electr: 0-lowe 1-rand  2-diag
   LASPH  =      F    aspherical Exc in radial PAW
   METAGGA=      F    non-selfconsistent MetaGGA calc.

 Electronic Relaxation 1
   ENCUT  =  875.0 eV  64.31 Ry    8.02 a.u.   8.62  8.62  8.62*2*pi/ulx,y,z
   ENINI  =  875.0     initial cutoff
   ENAUG  =  946.8 eV  augmentation charge cutoff
   NELM   =     40;   NELMIN=  4; NELMDL= -5     # of ELM steps 
   EDIFF  = 0.1E-07   stopping-criterion for ELM
   LREAL  =      F    real-space projection
   NLSPLINE    = F    spline interpolate recip. space projectors
   LCOMPAT=      F    compatible to vasp.4.4
   GGA_COMPAT  = T    GGA compatible to vasp.4.4-vasp.4.6
   LMAXPAW     = -100 max onsite density
   LMAXMIX     =    2 max onsite mixed and CHGCAR
   VOSKOWN=      0    Vosko Wilk Nusair interpolation
   ROPT   =    0.00000
 Ionic relaxation
   EDIFFG = -.1E-01   stopping-criterion for IOM
   NSW    =    100    number of steps for IOM
   NBLOCK =      1;   KBLOCK =    100    inner block; outer block 
   IBRION =      2    ionic relax: 0-MD 1-quasi-New 2-CG
   NFREE  =      1    steps in history (QN), initial steepest desc. (CG)
   ISIF   =      2    stress and relaxation
   IWAVPR =     11    prediction:  0-non 1-charg 2-wave 3-comb
   ISYM   =      2    0-nonsym 1-usesym 2-fastsym
   LCORR  =      T    Harris-Foulkes like correction to forces

   POTIM  = 0.5000    time-step for ionic-motion
   TEIN   =    0.0    initial temperature
   TEBEG  =    0.0;   TEEND  =   0.0 temperature during run
   SMASS  =  -3.00    Nose mass-parameter (am)
   estimated Nose-frequenzy (Omega)   =  0.10E-29 period in steps =****** mass=  -0.292E-27a.u.
   SCALEE = 1.0000    scale energy and forces
   NPACO  =    256;   APACO  = 16.0  distance and # of slots for P.C.
   PSTRESS=    0.0 pullay stress

  Mass of Ions in am
   POMASS =  12.01
  Ionic Valenz
   ZVAL   =   4.00
  Atomic Wigner-Seitz radii
   RWIGS  =  -1.00
  virtual crystal weights 
   VCA    =   1.00
   NELECT =      32.0000    total number of electrons
   NUPDOWN=      -1.0000    fix difference up-down

 DOS related values:
   EMIN   =  10.00;   EMAX   =-10.00  energy-range for DOS
   EFERMI =   0.00
   ISMEAR =     0;   SIGMA  =   0.05  broadening in eV -4-tet -1-fermi 0-gaus

 Electronic relaxation 2 (details)
   IALGO  =     38    algorithm
   LDIAG  =      T    sub-space diagonalisation (order eigenvalues)
   LSUBROT=      F    optimize rotation matrix (better conditioning)
   TURBO    =      0    0=normal 1=particle mesh
   IRESTART =      0    0=no restart 2=restart with 2 vectors
   NREBOOT  =      0    no. of reboots
   NMIN     =      0    reboot dimension
   EREF     =   0.00    reference energy to select bands
   IMIX   =      4    mixing-type and parameters
     AMIX     =   0.40;   BMIX     =  1.00
     AMIX_MAG =   1.60;   BMIX_MAG =  1.00
     AMIN     =   0.10
     WC   =   100.;   INIMIX=   1;  MIXPRE=   1;  MAXMIX= -45

 Intra band minimization:
   WEIMIN = 0.0010     energy-eigenvalue tresh-hold
   EBREAK =  0.10E-09  absolut break condition
   DEPER  =   0.30     relativ break condition  

   TIME   =   0.40     timestep for ELM

  volume/ion in A,a.u.               =       5.70        38.49
  Fermi-wavevector in a.u.,A,eV,Ry     =   1.454440  2.748493 28.781699  2.115395
  Thomas-Fermi vector in A             =   2.571590
 
 Write flags
   LWAVE        =      F    write WAVECAR
   LDOWNSAMPLE  =      F    k-point downsampling of WAVECAR
   LCHARG       =      F    write CHGCAR
   LVTOT        =      F    write LOCPOT, total local potential
   LVHAR        =      F    write LOCPOT, Hartree potential only
   LELF         =      F    write electronic localiz. function (ELF)
   LORBIT       =      0    0 simple, 1 ext, 2 COOP (PROOUT), +10 PAW based schemes


 Dipole corrections
   LMONO  =      F    monopole corrections only (constant potential shift)
   LDIPOL =      F    correct potential (dipole corrections)
   IDIPOL =      0    1-x, 2-y, 3-z, 4-all directions 
   EPSILON=  1.0000000 bulk dielectric constant

 Exchange correlation treatment:
   GGA     =    --    GGA type
   LEXCH   =     8    internal setting for exchange type
   VOSKOWN=      0    Vosko Wilk Nusair interpolation
   LHFCALC =     F    Hartree Fock is set to
   LHFONE  =     F    Hartree Fock one center treatment
   AEXX    =    0.0000 exact exchange contribution

 Linear response parameters
   LEPSILON=     F    determine dielectric tensor
   LRPA    =     F    only Hartree local field effects (RPA)
   LNABLA  =     F    use nabla operator in PAW spheres
   LVEL    =     F    velocity operator in full k-point grid
   LINTERFAST=   F  fast interpolation
   KINTER  =     0    interpolate to denser k-point grid
   CSHIFT  =0.1000    complex shift for real part using Kramers Kronig
   OMEGAMAX=  -1.0    maximum frequency
   DEG_THRESHOLD= 0.2000000E-02 threshold for treating states as degnerate
   RTIME   =   -0.100 relaxation time in fs
  (WPLASMAI=    0.000 imaginary part of plasma frequency in eV, 0.658/RTIME)
   DFIELD  = 0.0000000 0.0000000 0.0000000 field for delta impulse in time
 
 Orbital magnetization related:
   ORBITALMAG=     F  switch on orbital magnetization
   LCHIMAG   =     F  perturbation theory with respect to B field
   DQ        =  0.001000  dq finite difference perturbation B field
   LLRAUG    =     F  two centre corrections for induced B field



--------------------------------------------------------------------------------------------------------


 conjugate gradient relaxation of ions
 charge density and potential will be updated during run
 non-spin polarized calculation
 Variant of blocked Davidson
 Davidson routine will perform the subspace rotation
 perform sub-space diagonalisation
    after iterative eigenvector-optimisation
 modified Broyden-mixing scheme, WC =      100.0
 initial mixing is a Kerker type mixing with AMIX =  0.4000 and BMIX =      1.0000
 Hartree-type preconditioning will be used
 using additional bands            8
 reciprocal scheme for non local part
 use partial core corrections
 calculate Harris-corrections to forces 
   (improved forces if not selfconsistent)
 use gradient corrections 
 use of overlap-Matrix (Vanderbilt PP)
 Gauss-broadening in eV      SIGMA  =   0.05


--------------------------------------------------------------------------------------------------------


  energy-cutoff  :      875.00
  volume of cell :       45.63
      direct lattice vectors                 reciprocal lattice vectors
     3.573605071  0.017868025  0.017868025     0.279843389 -0.001392256 -0.001392256
     0.017868025  3.573605071  0.017868025    -0.001392256  0.279843389 -0.001392256
     0.017868025  0.017868025  3.573605071    -0.001392256 -0.001392256  0.279843389

  length of vectors
     3.573694410  3.573694410  3.573694410     0.279850315  0.279850315  0.279850315


 
 k-points in units of 2pi/SCALE and weight: K-Mesh Generated with KP-Resolved Value 
   0.00989496  0.00989496  0.00989496       0.001
   0.02988377  0.00979551  0.00979551       0.002
   0.04987259  0.00969607  0.00969607       0.002
   0.06986140  0.00959662  0.00959662       0.002
   0.08985021  0.00949717  0.00949717       0.002
   0.10983903  0.00939773  0.00939773       0.002
   0.12982784  0.00929828  0.00929828       0.002
  -0.13002673  0.01059109  0.01059109       0.002
  -0.11003792  0.01049164  0.01049164       0.002
  -0.09004911  0.01039219  0.01039219       0.002
  -0.07006029  0.01029275  0.01029275       0.002
  -0.05007148  0.01019330  0.01019330       0.002
  -0.03008267  0.01009385  0.01009385       0.002
  -0.01009385  0.00999441  0.00999441       0.002
   0.02978433  0.02978433  0.00969607       0.002
   0.04977314  0.02968488  0.00959662       0.004
   0.06976195  0.02958543  0.00949717       0.004
   0.08975077  0.02948599  0.00939773       0.004
   0.10973958  0.02938654  0.00929828       0.004
   0.12972839  0.02928709  0.00919883       0.004
  -0.13012618  0.03057990  0.01049164       0.004
  -0.11013737  0.03048045  0.01039219       0.004
  -0.09014855  0.03038101  0.01029275       0.004
  -0.07015974  0.03028156  0.01019330       0.004
  -0.05017093  0.03018211  0.01009385       0.004
  -0.03018211  0.03008267  0.00999441       0.004
  -0.01019330  0.02998322  0.00989496       0.004
   0.04967369  0.04967369  0.00949717       0.002
   0.06966251  0.04957425  0.00939773       0.004
   0.08965132  0.04947480  0.00929828       0.004
   0.10964013  0.04937535  0.00919883       0.004
   0.12962895  0.04927591  0.00909939       0.004
  -0.13022563  0.05056871  0.01039219       0.004
  -0.11023681  0.05046927  0.01029275       0.004
  -0.09024800  0.05036982  0.01019330       0.004
  -0.07025919  0.05027037  0.01009385       0.004
  -0.05027037  0.05017093  0.00999441       0.004
  -0.03028156  0.05007148  0.00989496       0.004
  -0.01029275  0.04997203  0.00979551       0.004
   0.06956306  0.06956306  0.00929828       0.002
   0.08955187  0.06946361  0.00919883       0.004
   0.10954069  0.06936417  0.00909939       0.004
   0.12952950  0.06926472  0.00899994       0.004
  -0.13032508  0.07055753  0.01029275       0.004
  -0.11033626  0.07045808  0.01019330       0.004
  -0.09034745  0.07035863  0.01009385       0.004
  -0.07035863  0.07025919  0.00999441       0.004
  -0.05036982  0.07015974  0.00989496       0.004
  -0.03038101  0.07006029  0.00979551       0.004
  -0.01039219  0.06996085  0.00969607       0.004
   0.08945243  0.08945243  0.00909939       0.002
   0.10944124  0.08935298  0.00899994       0.004
   0.12943005  0.08925353  0.00890049       0.004
  -0.13042452  0.09054634  0.01019330       0.004
  -0.11043571  0.09044689  0.01009385       0.004
  -0.09044689  0.09034745  0.00999441       0.004
  -0.07045808  0.09024800  0.00989496       0.004
  -0.05046927  0.09014855  0.00979551       0.004
  -0.03048045  0.09004911  0.00969607       0.004
  -0.01049164  0.08994966  0.00959662       0.004
   0.10934179  0.10934179  0.00890049       0.002
   0.12933061  0.10924235  0.00880104       0.004
  -0.13052397  0.11053516  0.01009385       0.004
  -0.11053516  0.11043571  0.00999441       0.004
  -0.09054634  0.11033626  0.00989496       0.004
  -0.07055753  0.11023681  0.00979551       0.004
  -0.05056871  0.11013737  0.00969607       0.004
  -0.03057990  0.11003792  0.00959662       0.004
  -0.01059109  0.10993847  0.00949717       0.004
   0.12923116  0.12923116  0.00870160       0.002
  -0.13062342  0.13052397  0.00999441       0.004
  -0.11063460  0.13042452  0.00989496       0.004
  -0.09064579  0.13032508  0.00979551       0.004
  -0.07065698  0.13022563  0.00969607       0.004
  -0.05066816  0.13012618  0.00959662       0.004
  -0.03067935  0.13002673  0.00949717       0.004
  -0.01069053  0.12992729  0.00939773       0.004
  -0.12933061 -0.12933061  0.01128722       0.002
  -0.10934179 -0.12943005  0.01118777       0.004
  -0.08935298 -0.12952950  0.01108832       0.004
  -0.06936417 -0.12962895  0.01098888       0.004
  -0.04937535 -0.12972839  0.01088943       0.004
  -0.02938654 -0.12982784  0.01078998       0.004
  -0.10944124 -0.10944124  0.01108832       0.002
  -0.08945243 -0.10954069  0.01098888       0.004
  -0.06946361 -0.10964013  0.01088943       0.004
  -0.04947480 -0.10973958  0.01078998       0.004
  -0.02948599 -0.10983903  0.01069053       0.004
  -0.08955187 -0.08955187  0.01088943       0.002
  -0.06956306 -0.08965132  0.01078998       0.004
  -0.04957425 -0.08975077  0.01069053       0.004
  -0.02958543 -0.08985021  0.01059109       0.004
  -0.06966251 -0.06966251  0.01069053       0.002
  -0.04967369 -0.06976195  0.01059109       0.004
  -0.02968488 -0.06986140  0.01049164       0.004
  -0.04977314 -0.04977314  0.01049164       0.002
  -0.02978433 -0.04987259  0.01039219       0.004
  -0.02988377 -0.02988377  0.01029275       0.002
   0.02968488  0.02968488  0.02968488       0.001
   0.04967369  0.02958543  0.02958543       0.002
   0.06966251  0.02948599  0.02948599       0.002
   0.08965132  0.02938654  0.02938654       0.002
   0.10964013  0.02928709  0.02928709       0.002
   0.12962895  0.02918765  0.02918765       0.002
  -0.13022563  0.03048045  0.03048045       0.002
  -0.11023681  0.03038101  0.03038101       0.002
  -0.09024800  0.03028156  0.03028156       0.002
  -0.07025919  0.03018211  0.03018211       0.002
  -0.05027037  0.03008267  0.03008267       0.002
  -0.03028156  0.02998322  0.02998322       0.002
   0.04957425  0.04957425  0.02948599       0.002
   0.06956306  0.04947480  0.02938654       0.004
   0.08955187  0.04937535  0.02928709       0.004
   0.10954069  0.04927591  0.02918765       0.004
   0.12952950  0.04917646  0.02908820       0.004
  -0.13032508  0.05046927  0.03038101       0.004
  -0.11033626  0.05036982  0.03028156       0.004
  -0.09034745  0.05027037  0.03018211       0.004
  -0.07035863  0.05017093  0.03008267       0.004
  -0.05036982  0.05007148  0.02998322       0.004
  -0.03038101  0.04997203  0.02988377       0.004
   0.06946361  0.06946361  0.02928709       0.002
   0.08945243  0.06936417  0.02918765       0.004
   0.10944124  0.06926472  0.02908820       0.004
   0.12943005  0.06916527  0.02898875       0.004
  -0.13042452  0.07045808  0.03028156       0.004
  -0.11043571  0.07035863  0.03018211       0.004
  -0.09044689  0.07025919  0.03008267       0.004
  -0.07045808  0.07015974  0.02998322       0.004
  -0.05046927  0.07006029  0.02988377       0.004
  -0.03048045  0.06996085  0.02978433       0.004
   0.08935298  0.08935298  0.02908820       0.002
   0.10934179  0.08925353  0.02898875       0.004
   0.12933061  0.08915409  0.02888931       0.004
  -0.13052397  0.09044689  0.03018211       0.004
  -0.11053516  0.09034745  0.03008267       0.004
  -0.09054634  0.09024800  0.02998322       0.004
  -0.07055753  0.09014855  0.02988377       0.004
  -0.05056871  0.09004911  0.02978433       0.004
  -0.03057990  0.08994966  0.02968488       0.004
   0.10924235  0.10924235  0.02888931       0.002
   0.12923116  0.10914290  0.02878986       0.004
  -0.13062342  0.11043571  0.03008267       0.004
  -0.11063460  0.11033626  0.02998322       0.004
  -0.09064579  0.11023681  0.02988377       0.004
  -0.07065698  0.11013737  0.02978433       0.004
  -0.05066816  0.11003792  0.02968488       0.004
  -0.03067935  0.10993847  0.02958543       0.004
   0.12913171  0.12913171  0.02869041       0.002
  -0.13072286  0.13042452  0.02998322       0.004
  -0.11073405  0.13032508  0.02988377       0.004
  -0.09074524  0.13022563  0.02978433       0.004
  -0.07075642  0.13012618  0.02968488       0.004
  -0.05076761  0.13002673  0.02958543       0.004
  -0.03077879  0.12992729  0.02948599       0.004
  -0.12943005 -0.12943005  0.03127603       0.002
  -0.10944124 -0.12952950  0.03117658       0.004
  -0.08945243 -0.12962895  0.03107714       0.004
  -0.06946361 -0.12972839  0.03097769       0.004
  -0.04947480 -0.12982784  0.03087824       0.004
  -0.10954069 -0.10954069  0.03107714       0.002
  -0.08955187 -0.10964013  0.03097769       0.004
  -0.06956306 -0.10973958  0.03087824       0.004
  -0.04957425 -0.10983903  0.03077879       0.004
  -0.08965132 -0.08965132  0.03087824       0.002
  -0.06966251 -0.08975077  0.03077879       0.004
  -0.04967369 -0.08985021  0.03067935       0.004
  -0.06976195 -0.06976195  0.03067935       0.002
  -0.04977314 -0.06986140  0.03057990       0.004
  -0.04987259 -0.04987259  0.03048045       0.002
   0.04947480  0.04947480  0.04947480       0.001
   0.06946361  0.04937535  0.04937535       0.002
   0.08945243  0.04927591  0.04927591       0.002
   0.10944124  0.04917646  0.04917646       0.002
   0.12943005  0.04907701  0.04907701       0.002
  -0.13042452  0.05036982  0.05036982       0.002
  -0.11043571  0.05027037  0.05027037       0.002
  -0.09044689  0.05017093  0.05017093       0.002
  -0.07045808  0.05007148  0.05007148       0.002
  -0.05046927  0.04997203  0.04997203       0.002
   0.06936417  0.06936417  0.04927591       0.002
   0.08935298  0.06926472  0.04917646       0.004
   0.10934179  0.06916527  0.04907701       0.004
   0.12933061  0.06906583  0.04897757       0.004
  -0.13052397  0.07035863  0.05027037       0.004
  -0.11053516  0.07025919  0.05017093       0.004
  -0.09054634  0.07015974  0.05007148       0.004
  -0.07055753  0.07006029  0.04997203       0.004
  -0.05056871  0.06996085  0.04987259       0.004
   0.08925353  0.08925353  0.04907701       0.002
   0.10924235  0.08915409  0.04897757       0.004
   0.12923116  0.08905464  0.04887812       0.004
  -0.13062342  0.09034745  0.05017093       0.004
  -0.11063460  0.09024800  0.05007148       0.004
  -0.09064579  0.09014855  0.04997203       0.004
  -0.07065698  0.09004911  0.04987259       0.004
  -0.05066816  0.08994966  0.04977314       0.004
   0.10914290  0.10914290  0.04887812       0.002
   0.12913171  0.10904345  0.04877867       0.004
  -0.13072286  0.11033626  0.05007148       0.004
  -0.11073405  0.11023681  0.04997203       0.004
  -0.09074524  0.11013737  0.04987259       0.004
  -0.07075642  0.11003792  0.04977314       0.004
  -0.05076761  0.10993847  0.04967369       0.004
   0.12903227  0.12903227  0.04867922       0.002
  -0.13082231  0.13032508  0.04997203       0.004
  -0.11083350  0.13022563  0.04987259       0.004
  -0.09084468  0.13012618  0.04977314       0.004
  -0.07085587  0.13002673  0.04967369       0.004
  -0.05086706  0.12992729  0.04957425       0.004
  -0.12952950 -0.12952950  0.05126484       0.002
  -0.10954069 -0.12962895  0.05116540       0.004
  -0.08955187 -0.12972839  0.05106595       0.004
  -0.06956306 -0.12982784  0.05096650       0.004
  -0.10964013 -0.10964013  0.05106595       0.002
  -0.08965132 -0.10973958  0.05096650       0.004
  -0.06966251 -0.10983903  0.05086706       0.004
  -0.08975077 -0.08975077  0.05086706       0.002
  -0.06976195 -0.08985021  0.05076761       0.004
  -0.06986140 -0.06986140  0.05066816       0.002
   0.06926472  0.06926472  0.06926472       0.001
   0.08925353  0.06916527  0.06916527       0.002
   0.10924235  0.06906583  0.06906583       0.002
   0.12923116  0.06896638  0.06896638       0.002
  -0.13062342  0.07025919  0.07025919       0.002
  -0.11063460  0.07015974  0.07015974       0.002
  -0.09064579  0.07006029  0.07006029       0.002
  -0.07065698  0.06996085  0.06996085       0.002
   0.08915409  0.08915409  0.06906583       0.002
   0.10914290  0.08905464  0.06896638       0.004
   0.12913171  0.08895519  0.06886693       0.004
  -0.13072286  0.09024800  0.07015974       0.004
  -0.11073405  0.09014855  0.07006029       0.004
  -0.09074524  0.09004911  0.06996085       0.004
  -0.07075642  0.08994966  0.06986140       0.004
   0.10904345  0.10904345  0.06886693       0.002
   0.12903227  0.10894401  0.06876749       0.004
  -0.13082231  0.11023681  0.07006029       0.004
  -0.11083350  0.11013737  0.06996085       0.004
  -0.09084468  0.11003792  0.06986140       0.004
  -0.07085587  0.10993847  0.06976195       0.004
   0.12893282  0.12893282  0.06866804       0.002
  -0.13092176  0.13022563  0.06996085       0.004
  -0.11093294  0.13012618  0.06986140       0.004
  -0.09094413  0.13002673  0.06976195       0.004
  -0.07095532  0.12992729  0.06966251       0.004
  -0.12962895 -0.12962895  0.07125366       0.002
  -0.10964013 -0.12972839  0.07115421       0.004
  -0.08965132 -0.12982784  0.07105476       0.004
  -0.10973958 -0.10973958  0.07105476       0.002
  -0.08975077 -0.10983903  0.07095532       0.004
  -0.08985021 -0.08985021  0.07085587       0.002
   0.08905464  0.08905464  0.08905464       0.001
   0.10904345  0.08895519  0.08895519       0.002
   0.12903227  0.08885575  0.08885575       0.002
  -0.13082231  0.09014855  0.09014855       0.002
  -0.11083350  0.09004911  0.09004911       0.002
  -0.09084468  0.08994966  0.08994966       0.002
   0.10894401  0.10894401  0.08885575       0.002
   0.12893282  0.10884456  0.08875630       0.004
  -0.13092176  0.11013737  0.09004911       0.004
  -0.11093294  0.11003792  0.08994966       0.004
  -0.09094413  0.10993847  0.08985021       0.004
   0.12883337  0.12883337  0.08865685       0.002
  -0.13102120  0.13012618  0.08994966       0.004
  -0.11103239  0.13002673  0.08985021       0.004
  -0.09104358  0.12992729  0.08975077       0.004
  -0.12972839 -0.12972839  0.09124247       0.002
  -0.10973958 -0.12982784  0.09114302       0.004
  -0.10983903 -0.10983903  0.09104358       0.002
   0.10884456  0.10884456  0.10884456       0.001
   0.12883337  0.10874511  0.10874511       0.002
  -0.13102120  0.11003792  0.11003792       0.002
  -0.11103239  0.10993847  0.10993847       0.002
   0.12873393  0.12873393  0.10864567       0.002
  -0.13112065  0.13002673  0.10993847       0.004
  -0.11113184  0.12992729  0.10983903       0.004
  -0.12982784 -0.12982784  0.11123128       0.002
   0.12863448  0.12863448  0.12863448       0.001
  -0.13122010  0.12992729  0.12992729       0.002
 
 k-points in reciprocal lattice and weights: K-Mesh Generated with KP-Resolved Value 
   0.03571429  0.03571429  0.03571429       0.001
   0.10714286  0.03571429  0.03571429       0.002
   0.17857143  0.03571429  0.03571429       0.002
   0.25000000  0.03571429  0.03571429       0.002
   0.32142857  0.03571429  0.03571429       0.002
   0.39285714  0.03571429  0.03571429       0.002
   0.46428571  0.03571429  0.03571429       0.002
  -0.46428571  0.03571429  0.03571429       0.002
  -0.39285714  0.03571429  0.03571429       0.002
  -0.32142857  0.03571429  0.03571429       0.002
  -0.25000000  0.03571429  0.03571429       0.002
  -0.17857143  0.03571429  0.03571429       0.002
  -0.10714286  0.03571429  0.03571429       0.002
  -0.03571429  0.03571429  0.03571429       0.002
   0.10714286  0.10714286  0.03571429       0.002
   0.17857143  0.10714286  0.03571429       0.004
   0.25000000  0.10714286  0.03571429       0.004
   0.32142857  0.10714286  0.03571429       0.004
   0.39285714  0.10714286  0.03571429       0.004
   0.46428571  0.10714286  0.03571429       0.004
  -0.46428571  0.10714286  0.03571429       0.004
  -0.39285714  0.10714286  0.03571429       0.004
  -0.32142857  0.10714286  0.03571429       0.004
  -0.25000000  0.10714286  0.03571429       0.004
  -0.17857143  0.10714286  0.03571429       0.004
  -0.10714286  0.10714286  0.03571429       0.004
  -0.03571429  0.10714286  0.03571429       0.004
   0.17857143  0.17857143  0.03571429       0.002
   0.25000000  0.17857143  0.03571429       0.004
   0.32142857  0.17857143  0.03571429       0.004
   0.39285714  0.17857143  0.03571429       0.004
   0.46428571  0.17857143  0.03571429       0.004
  -0.46428571  0.17857143  0.03571429       0.004
  -0.39285714  0.17857143  0.03571429       0.004
  -0.32142857  0.17857143  0.03571429       0.004
  -0.25000000  0.17857143  0.03571429       0.004
  -0.17857143  0.17857143  0.03571429       0.004
  -0.10714286  0.17857143  0.03571429       0.004
  -0.03571429  0.17857143  0.03571429       0.004
   0.25000000  0.25000000  0.03571429       0.002
   0.32142857  0.25000000  0.03571429       0.004
   0.39285714  0.25000000  0.03571429       0.004
   0.46428571  0.25000000  0.03571429       0.004
  -0.46428571  0.25000000  0.03571429       0.004
  -0.39285714  0.25000000  0.03571429       0.004
  -0.32142857  0.25000000  0.03571429       0.004
  -0.25000000  0.25000000  0.03571429       0.004
  -0.17857143  0.25000000  0.03571429       0.004
  -0.10714286  0.25000000  0.03571429       0.004
  -0.03571429  0.25000000  0.03571429       0.004
   0.32142857  0.32142857  0.03571429       0.002
   0.39285714  0.32142857  0.03571429       0.004
   0.46428571  0.32142857  0.03571429       0.004
  -0.46428571  0.32142857  0.03571429       0.004
  -0.39285714  0.32142857  0.03571429       0.004
  -0.32142857  0.32142857  0.03571429       0.004
  -0.25000000  0.32142857  0.03571429       0.004
  -0.17857143  0.32142857  0.03571429       0.004
  -0.10714286  0.32142857  0.03571429       0.004
  -0.03571429  0.32142857  0.03571429       0.004
   0.39285714  0.39285714  0.03571429       0.002
   0.46428571  0.39285714  0.03571429       0.004
  -0.46428571  0.39285714  0.03571429       0.004
  -0.39285714  0.39285714  0.03571429       0.004
  -0.32142857  0.39285714  0.03571429       0.004
  -0.25000000  0.39285714  0.03571429       0.004
  -0.17857143  0.39285714  0.03571429       0.004
  -0.10714286  0.39285714  0.03571429       0.004
  -0.03571429  0.39285714  0.03571429       0.004
   0.46428571  0.46428571  0.03571429       0.002
  -0.46428571  0.46428571  0.03571429       0.004
  -0.39285714  0.46428571  0.03571429       0.004
  -0.32142857  0.46428571  0.03571429       0.004
  -0.25000000  0.46428571  0.03571429       0.004
  -0.17857143  0.46428571  0.03571429       0.004
  -0.10714286  0.46428571  0.03571429       0.004
  -0.03571429  0.46428571  0.03571429       0.004
  -0.46428571 -0.46428571  0.03571429       0.002
  -0.39285714 -0.46428571  0.03571429       0.004
  -0.32142857 -0.46428571  0.03571429       0.004
  -0.25000000 -0.46428571  0.03571429       0.004
  -0.17857143 -0.46428571  0.03571429       0.004
  -0.10714286 -0.46428571  0.03571429       0.004
  -0.39285714 -0.39285714  0.03571429       0.002
  -0.32142857 -0.39285714  0.03571429       0.004
  -0.25000000 -0.39285714  0.03571429       0.004
  -0.17857143 -0.39285714  0.03571429       0.004
  -0.10714286 -0.39285714  0.03571429       0.004
  -0.32142857 -0.32142857  0.03571429       0.002
  -0.25000000 -0.32142857  0.03571429       0.004
  -0.17857143 -0.32142857  0.03571429       0.004
  -0.10714286 -0.32142857  0.03571429       0.004
  -0.25000000 -0.25000000  0.03571429       0.002
  -0.17857143 -0.25000000  0.03571429       0.004
  -0.10714286 -0.25000000  0.03571429       0.004
  -0.17857143 -0.17857143  0.03571429       0.002
  -0.10714286 -0.17857143  0.03571429       0.004
  -0.10714286 -0.10714286  0.03571429       0.002
   0.10714286  0.10714286  0.10714286       0.001
   0.17857143  0.10714286  0.10714286       0.002
   0.25000000  0.10714286  0.10714286       0.002
   0.32142857  0.10714286  0.10714286       0.002
   0.39285714  0.10714286  0.10714286       0.002
   0.46428571  0.10714286  0.10714286       0.002
  -0.46428571  0.10714286  0.10714286       0.002
  -0.39285714  0.10714286  0.10714286       0.002
  -0.32142857  0.10714286  0.10714286       0.002
  -0.25000000  0.10714286  0.10714286       0.002
  -0.17857143  0.10714286  0.10714286       0.002
  -0.10714286  0.10714286  0.10714286       0.002
   0.17857143  0.17857143  0.10714286       0.002
   0.25000000  0.17857143  0.10714286       0.004
   0.32142857  0.17857143  0.10714286       0.004
   0.39285714  0.17857143  0.10714286       0.004
   0.46428571  0.17857143  0.10714286       0.004
  -0.46428571  0.17857143  0.10714286       0.004
  -0.39285714  0.17857143  0.10714286       0.004
  -0.32142857  0.17857143  0.10714286       0.004
  -0.25000000  0.17857143  0.10714286       0.004
  -0.17857143  0.17857143  0.10714286       0.004
  -0.10714286  0.17857143  0.10714286       0.004
   0.25000000  0.25000000  0.10714286       0.002
   0.32142857  0.25000000  0.10714286       0.004
   0.39285714  0.25000000  0.10714286       0.004
   0.46428571  0.25000000  0.10714286       0.004
  -0.46428571  0.25000000  0.10714286       0.004
  -0.39285714  0.25000000  0.10714286       0.004
  -0.32142857  0.25000000  0.10714286       0.004
  -0.25000000  0.25000000  0.10714286       0.004
  -0.17857143  0.25000000  0.10714286       0.004
  -0.10714286  0.25000000  0.10714286       0.004
   0.32142857  0.32142857  0.10714286       0.002
   0.39285714  0.32142857  0.10714286       0.004
   0.46428571  0.32142857  0.10714286       0.004
  -0.46428571  0.32142857  0.10714286       0.004
  -0.39285714  0.32142857  0.10714286       0.004
  -0.32142857  0.32142857  0.10714286       0.004
  -0.25000000  0.32142857  0.10714286       0.004
  -0.17857143  0.32142857  0.10714286       0.004
  -0.10714286  0.32142857  0.10714286       0.004
   0.39285714  0.39285714  0.10714286       0.002
   0.46428571  0.39285714  0.10714286       0.004
  -0.46428571  0.39285714  0.10714286       0.004
  -0.39285714  0.39285714  0.10714286       0.004
  -0.32142857  0.39285714  0.10714286       0.004
  -0.25000000  0.39285714  0.10714286       0.004
  -0.17857143  0.39285714  0.10714286       0.004
  -0.10714286  0.39285714  0.10714286       0.004
   0.46428571  0.46428571  0.10714286       0.002
  -0.46428571  0.46428571  0.10714286       0.004
  -0.39285714  0.46428571  0.10714286       0.004
  -0.32142857  0.46428571  0.10714286       0.004
  -0.25000000  0.46428571  0.10714286       0.004
  -0.17857143  0.46428571  0.10714286       0.004
  -0.10714286  0.46428571  0.10714286       0.004
  -0.46428571 -0.46428571  0.10714286       0.002
  -0.39285714 -0.46428571  0.10714286       0.004
  -0.32142857 -0.46428571  0.10714286       0.004
  -0.25000000 -0.46428571  0.10714286       0.004
  -0.17857143 -0.46428571  0.10714286       0.004
  -0.39285714 -0.39285714  0.10714286       0.002
  -0.32142857 -0.39285714  0.10714286       0.004
  -0.25000000 -0.39285714  0.10714286       0.004
  -0.17857143 -0.39285714  0.10714286       0.004
  -0.32142857 -0.32142857  0.10714286       0.002
  -0.25000000 -0.32142857  0.10714286       0.004
  -0.17857143 -0.32142857  0.10714286       0.004
  -0.25000000 -0.25000000  0.10714286       0.002
  -0.17857143 -0.25000000  0.10714286       0.004
  -0.17857143 -0.17857143  0.10714286       0.002
   0.17857143  0.17857143  0.17857143       0.001
   0.25000000  0.17857143  0.17857143       0.002
   0.32142857  0.17857143  0.17857143       0.002
   0.39285714  0.17857143  0.17857143       0.002
   0.46428571  0.17857143  0.17857143       0.002
  -0.46428571  0.17857143  0.17857143       0.002
  -0.39285714  0.17857143  0.17857143       0.002
  -0.32142857  0.17857143  0.17857143       0.002
  -0.25000000  0.17857143  0.17857143       0.002
  -0.17857143  0.17857143  0.17857143       0.002
   0.25000000  0.25000000  0.17857143       0.002
   0.32142857  0.25000000  0.17857143       0.004
   0.39285714  0.25000000  0.17857143       0.004
   0.46428571  0.25000000  0.17857143       0.004
  -0.46428571  0.25000000  0.17857143       0.004
  -0.39285714  0.25000000  0.17857143       0.004
  -0.32142857  0.25000000  0.17857143       0.004
  -0.25000000  0.25000000  0.17857143       0.004
  -0.17857143  0.25000000  0.17857143       0.004
   0.32142857  0.32142857  0.17857143       0.002
   0.39285714  0.32142857  0.17857143       0.004
   0.46428571  0.32142857  0.17857143       0.004
  -0.46428571  0.32142857  0.17857143       0.004
  -0.39285714  0.32142857  0.17857143       0.004
  -0.32142857  0.32142857  0.17857143       0.004
  -0.25000000  0.32142857  0.17857143       0.004
  -0.17857143  0.32142857  0.17857143       0.004
   0.39285714  0.39285714  0.17857143       0.002
   0.46428571  0.39285714  0.17857143       0.004
  -0.46428571  0.39285714  0.17857143       0.004
  -0.39285714  0.39285714  0.17857143       0.004
  -0.32142857  0.39285714  0.17857143       0.004
  -0.25000000  0.39285714  0.17857143       0.004
  -0.17857143  0.39285714  0.17857143       0.004
   0.46428571  0.46428571  0.17857143       0.002
  -0.46428571  0.46428571  0.17857143       0.004
  -0.39285714  0.46428571  0.17857143       0.004
  -0.32142857  0.46428571  0.17857143       0.004
  -0.25000000  0.46428571  0.17857143       0.004
  -0.17857143  0.46428571  0.17857143       0.004
  -0.46428571 -0.46428571  0.17857143       0.002
  -0.39285714 -0.46428571  0.17857143       0.004
  -0.32142857 -0.46428571  0.17857143       0.004
  -0.25000000 -0.46428571  0.17857143       0.004
  -0.39285714 -0.39285714  0.17857143       0.002
  -0.32142857 -0.39285714  0.17857143       0.004
  -0.25000000 -0.39285714  0.17857143       0.004
  -0.32142857 -0.32142857  0.17857143       0.002
  -0.25000000 -0.32142857  0.17857143       0.004
  -0.25000000 -0.25000000  0.17857143       0.002
   0.25000000  0.25000000  0.25000000       0.001
   0.32142857  0.25000000  0.25000000       0.002
   0.39285714  0.25000000  0.25000000       0.002
   0.46428571  0.25000000  0.25000000       0.002
  -0.46428571  0.25000000  0.25000000       0.002
  -0.39285714  0.25000000  0.25000000       0.002
  -0.32142857  0.25000000  0.25000000       0.002
  -0.25000000  0.25000000  0.25000000       0.002
   0.32142857  0.32142857  0.25000000       0.002
   0.39285714  0.32142857  0.25000000       0.004
   0.46428571  0.32142857  0.25000000       0.004
  -0.46428571  0.32142857  0.25000000       0.004
  -0.39285714  0.32142857  0.25000000       0.004
  -0.32142857  0.32142857  0.25000000       0.004
  -0.25000000  0.32142857  0.25000000       0.004
   0.39285714  0.39285714  0.25000000       0.002
   0.46428571  0.39285714  0.25000000       0.004
  -0.46428571  0.39285714  0.25000000       0.004
  -0.39285714  0.39285714  0.25000000       0.004
  -0.32142857  0.39285714  0.25000000       0.004
  -0.25000000  0.39285714  0.25000000       0.004
   0.46428571  0.46428571  0.25000000       0.002
  -0.46428571  0.46428571  0.25000000       0.004
  -0.39285714  0.46428571  0.25000000       0.004
  -0.32142857  0.46428571  0.25000000       0.004
  -0.25000000  0.46428571  0.25000000       0.004
  -0.46428571 -0.46428571  0.25000000       0.002
  -0.39285714 -0.46428571  0.25000000       0.004
  -0.32142857 -0.46428571  0.25000000       0.004
  -0.39285714 -0.39285714  0.25000000       0.002
  -0.32142857 -0.39285714  0.25000000       0.004
  -0.32142857 -0.32142857  0.25000000       0.002
   0.32142857  0.32142857  0.32142857       0.001
   0.39285714  0.32142857  0.32142857       0.002
   0.46428571  0.32142857  0.32142857       0.002
  -0.46428571  0.32142857  0.32142857       0.002
  -0.39285714  0.32142857  0.32142857       0.002
  -0.32142857  0.32142857  0.32142857       0.002
   0.39285714  0.39285714  0.32142857       0.002
   0.46428571  0.39285714  0.32142857       0.004
  -0.46428571  0.39285714  0.32142857       0.004
  -0.39285714  0.39285714  0.32142857       0.004
  -0.32142857  0.39285714  0.32142857       0.004
   0.46428571  0.46428571  0.32142857       0.002
  -0.46428571  0.46428571  0.32142857       0.004
  -0.39285714  0.46428571  0.32142857       0.004
  -0.32142857  0.46428571  0.32142857       0.004
  -0.46428571 -0.46428571  0.32142857       0.002
  -0.39285714 -0.46428571  0.32142857       0.004
  -0.39285714 -0.39285714  0.32142857       0.002
   0.39285714  0.39285714  0.39285714       0.001
   0.46428571  0.39285714  0.39285714       0.002
  -0.46428571  0.39285714  0.39285714       0.002
  -0.39285714  0.39285714  0.39285714       0.002
   0.46428571  0.46428571  0.39285714       0.002
  -0.46428571  0.46428571  0.39285714       0.004
  -0.39285714  0.46428571  0.39285714       0.004
  -0.46428571 -0.46428571  0.39285714       0.002
   0.46428571  0.46428571  0.46428571       0.001
  -0.46428571  0.46428571  0.46428571       0.002
 
 position of ions in fractional coordinates (direct lattice) 
   0.25000000  0.25000000  0.25000000
   0.00000000  0.00000000  0.00000000
   0.25000000  0.75000000  0.75000000
   0.00000000  0.50000000  0.50000000
   0.75000000  0.25000000  0.75000000
   0.50000000  0.00000000  0.50000000
   0.75000000  0.75000000  0.25000000
   0.50000000  0.50000000  0.00000000
 
 position of ions in cartesian coordinates  (Angst):
   0.90233528  0.90233528  0.90233528
   0.00000000  0.00000000  0.00000000
   0.92020331  2.69807183  2.69807183
   0.01786803  1.79573655  1.79573655
   2.69807183  0.92020331  2.69807183
   1.79573655  0.01786803  1.79573655
   2.69807183  2.69807183  0.92020331
   1.79573655  1.79573655  0.01786803
 


--------------------------------------------------------------------------------------------------------


 k-point  1 :   0.0357 0.0357 0.0357  plane waves:    2677
 k-point  2 :   0.1071 0.0357 0.0357  plane waves:    2675
 k-point  3 :   0.1786 0.0357 0.0357  plane waves:    2679
 k-point  4 :   0.2500 0.0357 0.0357  plane waves:    2688
 k-point  5 :   0.3214 0.0357 0.0357  plane waves:    2692
 k-point  6 :   0.3929 0.0357 0.0357  plane waves:    2688
 k-point  7 :   0.4643 0.0357 0.0357  plane waves:    2697
 k-point  8 :  -0.4643 0.0357 0.0357  plane waves:    2701
 k-point  9 :  -0.3929 0.0357 0.0357  plane waves:    2682
 k-point 10 :  -0.3214 0.0357 0.0357  plane waves:    2690
 k-point 11 :  -0.2500 0.0357 0.0357  plane waves:    2692
 k-point 12 :  -0.1786 0.0357 0.0357  plane waves:    2687
 k-point 13 :  -0.1071 0.0357 0.0357  plane waves:    2689
 k-point 14 :  -0.0357 0.0357 0.0357  plane waves:    2690
 k-point 15 :   0.1071 0.1071 0.0357  plane waves:    2669
 k-point 16 :   0.1786 0.1071 0.0357  plane waves:    2677
 k-point 17 :   0.2500 0.1071 0.0357  plane waves:    2687
 k-point 18 :   0.3214 0.1071 0.0357  plane waves:    2696
 k-point 19 :   0.3929 0.1071 0.0357  plane waves:    2689
 k-point 20 :   0.4643 0.1071 0.0357  plane waves:    2692
 k-point 21 :  -0.4643 0.1071 0.0357  plane waves:    2693
 k-point 22 :  -0.3929 0.1071 0.0357  plane waves:    2689
 k-point 23 :  -0.3214 0.1071 0.0357  plane waves:    2695
 k-point 24 :  -0.2500 0.1071 0.0357  plane waves:    2698
 k-point 25 :  -0.1786 0.1071 0.0357  plane waves:    2689
 k-point 26 :  -0.1071 0.1071 0.0357  plane waves:    2678
 k-point 27 :  -0.0357 0.1071 0.0357  plane waves:    2680
 k-point 28 :   0.1786 0.1786 0.0357  plane waves:    2682
 k-point 29 :   0.2500 0.1786 0.0357  plane waves:    2683
 k-point 30 :   0.3214 0.1786 0.0357  plane waves:    2685
 k-point 31 :   0.3929 0.1786 0.0357  plane waves:    2681
 k-point 32 :   0.4643 0.1786 0.0357  plane waves:    2689
 k-point 33 :  -0.4643 0.1786 0.0357  plane waves:    2688
 k-point 34 :  -0.3929 0.1786 0.0357  plane waves:    2688
 k-point 35 :  -0.3214 0.1786 0.0357  plane waves:    2689
 k-point 36 :  -0.2500 0.1786 0.0357  plane waves:    2697
 k-point 37 :  -0.1786 0.1786 0.0357  plane waves:    2691
 k-point 38 :  -0.1071 0.1786 0.0357  plane waves:    2684
 k-point 39 :  -0.0357 0.1786 0.0357  plane waves:    2689
 k-point 40 :   0.2500 0.2500 0.0357  plane waves:    2683
 k-point 41 :   0.3214 0.2500 0.0357  plane waves:    2682
 k-point 42 :   0.3929 0.2500 0.0357  plane waves:    2674
 k-point 43 :   0.4643 0.2500 0.0357  plane waves:    2676
 k-point 44 :  -0.4643 0.2500 0.0357  plane waves:    2683
 k-point 45 :  -0.3929 0.2500 0.0357  plane waves:    2677
 k-point 46 :  -0.3214 0.2500 0.0357  plane waves:    2678
 k-point 47 :  -0.2500 0.2500 0.0357  plane waves:    2682
 k-point 48 :  -0.1786 0.2500 0.0357  plane waves:    2693
 k-point 49 :  -0.1071 0.2500 0.0357  plane waves:    2696
 k-point 50 :  -0.0357 0.2500 0.0357  plane waves:    2694
 k-point 51 :   0.3214 0.3214 0.0357  plane waves:    2681
 k-point 52 :   0.3929 0.3214 0.0357  plane waves:    2676
 k-point 53 :   0.4643 0.3214 0.0357  plane waves:    2675
 k-point 54 :  -0.4643 0.3214 0.0357  plane waves:    2673
 k-point 55 :  -0.3929 0.3214 0.0357  plane waves:    2676
 k-point 56 :  -0.3214 0.3214 0.0357  plane waves:    2682
 k-point 57 :  -0.2500 0.3214 0.0357  plane waves:    2679
 k-point 58 :  -0.1786 0.3214 0.0357  plane waves:    2689
 k-point 59 :  -0.1071 0.3214 0.0357  plane waves:    2700
 k-point 60 :  -0.0357 0.3214 0.0357  plane waves:    2693
 k-point 61 :   0.3929 0.3929 0.0357  plane waves:    2680
 k-point 62 :   0.4643 0.3929 0.0357  plane waves:    2677
 k-point 63 :  -0.4643 0.3929 0.0357  plane waves:    2675
 k-point 64 :  -0.3929 0.3929 0.0357  plane waves:    2671
 k-point 65 :  -0.3214 0.3929 0.0357  plane waves:    2685
 k-point 66 :  -0.2500 0.3929 0.0357  plane waves:    2680
 k-point 67 :  -0.1786 0.3929 0.0357  plane waves:    2689
 k-point 68 :  -0.1071 0.3929 0.0357  plane waves:    2692
 k-point 69 :  -0.0357 0.3929 0.0357  plane waves:    2692
 k-point 70 :   0.4643 0.4643 0.0357  plane waves:    2683
 k-point 71 :  -0.4643 0.4643 0.0357  plane waves:    2684
 k-point 72 :  -0.3929 0.4643 0.0357  plane waves:    2682
 k-point 73 :  -0.3214 0.4643 0.0357  plane waves:    2676
 k-point 74 :  -0.2500 0.4643 0.0357  plane waves:    2687
 k-point 75 :  -0.1786 0.4643 0.0357  plane waves:    2692
 k-point 76 :  -0.1071 0.4643 0.0357  plane waves:    2694
 k-point 77 :  -0.0357 0.4643 0.0357  plane waves:    2696
 k-point 78 :  -0.4643-0.4643 0.0357  plane waves:    2688
 k-point 79 :  -0.3929-0.4643 0.0357  plane waves:    2682
 k-point 80 :  -0.3214-0.4643 0.0357  plane waves:    2680
 k-point 81 :  -0.2500-0.4643 0.0357  plane waves:    2685
 k-point 82 :  -0.1786-0.4643 0.0357  plane waves:    2690
 k-point 83 :  -0.1071-0.4643 0.0357  plane waves:    2693
 k-point 84 :  -0.3929-0.3929 0.0357  plane waves:    2680
 k-point 85 :  -0.3214-0.3929 0.0357  plane waves:    2681
 k-point 86 :  -0.2500-0.3929 0.0357  plane waves:    2678
 k-point 87 :  -0.1786-0.3929 0.0357  plane waves:    2685
 k-point 88 :  -0.1071-0.3929 0.0357  plane waves:    2685
 k-point 89 :  -0.3214-0.3214 0.0357  plane waves:    2686
 k-point 90 :  -0.2500-0.3214 0.0357  plane waves:    2686
 k-point 91 :  -0.1786-0.3214 0.0357  plane waves:    2686
 k-point 92 :  -0.1071-0.3214 0.0357  plane waves:    2688
 k-point 93 :  -0.2500-0.2500 0.0357  plane waves:    2682
 k-point 94 :  -0.1786-0.2500 0.0357  plane waves:    2686
 k-point 95 :  -0.1071-0.2500 0.0357  plane waves:    2685
 k-point 96 :  -0.1786-0.1786 0.0357  plane waves:    2693
 k-point 97 :  -0.1071-0.1786 0.0357  plane waves:    2686
 k-point 98 :  -0.1071-0.1071 0.0357  plane waves:    2683
 k-point 99 :   0.1071 0.1071 0.1071  plane waves:    2668
 k-point ** :   0.1786 0.1071 0.1071  plane waves:    2672
 k-point ** :   0.2500 0.1071 0.1071  plane waves:    2671
 k-point ** :   0.3214 0.1071 0.1071  plane waves:    2686
 k-point ** :   0.3929 0.1071 0.1071  plane waves:    2675
 k-point ** :   0.4643 0.1071 0.1071  plane waves:    2685
 k-point ** :  -0.4643 0.1071 0.1071  plane waves:    2686
 k-point ** :  -0.3929 0.1071 0.1071  plane waves:    2687
 k-point ** :  -0.3214 0.1071 0.1071  plane waves:    2687
 k-point ** :  -0.2500 0.1071 0.1071  plane waves:    2691
[...]
     16       8.1542      2.00000
     17      19.0776      0.00000
     18      19.2050      0.00000
     19      19.2050      0.00000
     20      19.2643      0.00000
     21      19.2643      0.00000
     22      19.2717      0.00000
     23      19.5359      0.00000
     24      19.8551      0.00000

 k-point   269 :      -0.3929   -0.4643    0.3214
  band No.  band energies     occupation 
      1      -6.3286      2.00000
      2      -5.7319      2.00000
      3      -4.7117      2.00000
      4      -4.6828      2.00000
      5      -2.0288      2.00000
      6      -1.7493      2.00000
      7      -0.7582      2.00000
      8      -0.1796      2.00000
      9       6.5209      2.00000
     10       6.5364      2.00000
     11       7.2286      2.00000
     12       7.4686      2.00000
     13       7.5860      2.00000
     14       7.6498      2.00000
     15       7.7784      2.00000
     16       8.2015      2.00000
     17      18.6827      0.00000
     18      18.9379      0.00000
     19      18.9792      0.00000
     20      19.0122      0.00000
     21      19.4364      0.00000
     22      19.6122      0.00000
     23      19.7507      0.00000
     24      19.8266      0.00000

 k-point   270 :      -0.3929   -0.3929    0.3214
  band No.  band energies     occupation 
      1      -6.8436      2.00000
      2      -5.1005      2.00000
      3      -5.1005      2.00000
      4      -4.5976      2.00000
      5      -1.9466      2.00000
      6      -1.2078      2.00000
      7      -1.2078      2.00000
      8       0.4781      2.00000
      9       6.2777      2.00000
     10       6.6130      2.00000
     11       6.6130      2.00000
     12       7.3124      2.00000
     13       7.3124      2.00000
     14       7.4091      2.00000
     15       7.9942      2.00000
     16       8.4339      2.00000
     17      18.3978      0.00000
     18      18.3978      0.00000
     19      18.5461      0.00000
     20      19.1551      0.00000
     21      19.2437      0.00000
     22      19.5463      0.00000
     23      20.2014      0.00000
     24      20.2014      0.00000

 k-point   271 :       0.3929    0.3929    0.3929
  band No.  band energies     occupation 
      1      -6.5454      2.00000
      2      -4.7868      2.00000
      3      -4.7868      2.00000
      4      -4.7868      2.00000
      5      -1.8658      2.00000
      6      -1.8658      2.00000
      7      -1.8658      2.00000
      8      -0.3976      2.00000
      9       7.0140      2.00000
     10       7.0140      2.00000
     11       7.0140      2.00000
     12       7.4945      2.00000
     13       7.4945      2.00000
     14       7.4945      2.00000
     15       8.3974      2.00000
     16       8.3974      2.00000
     17      18.6602      0.00000
     18      18.6602      0.00000
     19      18.6602      0.00000
     20      19.3222      0.00000
     21      19.3222      0.00000
     22      19.8461      0.00000
     23      20.3886      0.00000
     24      20.3886      0.00000

 k-point   272 :       0.4643    0.3929    0.3929
  band No.  band energies     occupation 
      1      -6.0700      2.00000
      2      -5.3437      2.00000
      3      -4.5788      2.00000
      4      -4.5788      2.00000
      5      -2.2270      2.00000
      6      -2.2270      2.00000
      7      -1.4794      2.00000
      8      -1.0196      2.00000
      9       7.1397      2.00000
     10       7.1397      2.00000
     11       7.6366      2.00000
     12       7.6366      2.00000
     13       7.7096      2.00000
     14       7.7323      2.00000
     15       8.1587      2.00000
     16       8.2844      2.00000
     17      18.8436      0.00000
     18      18.9637      0.00000
     19      18.9637      0.00000
     20      19.1938      0.00000
     21      19.5727      0.00000
     22      19.7840      0.00000
     23      19.7840      0.00000
     24      19.8893      0.00000

 k-point   273 :      -0.4643    0.3929    0.3929
  band No.  band energies     occupation 
      1      -5.8986      2.00000
      2      -5.5506      2.00000
      3      -4.5878      2.00000
      4      -4.5878      2.00000
      5      -2.2111      2.00000
      6      -2.2111      2.00000
      7      -1.5214      2.00000
      8      -0.9326      2.00000
      9       7.1422      2.00000
     10       7.1422      2.00000
     11       7.6203      2.00000
     12       7.6203      2.00000
     13       7.8532      2.00000
     14       7.9039      2.00000
     15       7.9772      2.00000
     16       8.1362      2.00000
     17      18.9042      0.00000
     18      18.9042      0.00000
     19      18.9407      0.00000
     20      19.0158      0.00000
     21      19.5656      0.00000
     22      19.6068      0.00000
     23      19.8142      0.00000
     24      19.8142      0.00000

 k-point   274 :      -0.3929    0.3929    0.3929
  band No.  band energies     occupation 
      1      -6.4053      2.00000
      2      -5.0312      2.00000
      3      -4.8064      2.00000
      4      -4.8064      2.00000
      5      -1.8584      2.00000
      6      -1.8257      2.00000
      7      -1.8257      2.00000
      8      -0.2723      2.00000
      9       6.9997      2.00000
     10       6.9997      2.00000
     11       7.1602      2.00000
     12       7.4702      2.00000
     13       7.4702      2.00000
     14       7.6489      2.00000
     15       8.2154      2.00000
     16       8.2341      2.00000
     17      18.5641      0.00000
     18      18.5641      0.00000
     19      18.7898      0.00000
     20      18.9880      0.00000
     21      19.3716      0.00000
     22      19.5051      0.00000
     23      20.2023      0.00000
     24      20.2023      0.00000

 k-point   275 :       0.4643    0.4643    0.3929
  band No.  band energies     occupation 
      1      -5.6379      2.00000
      2      -4.9609      2.00000
      3      -4.9609      2.00000
      4      -4.6722      2.00000
      5      -2.2965      2.00000
      6      -2.0137      2.00000
      7      -2.0137      2.00000
      8      -1.6043      2.00000
      9       7.4416      2.00000
     10       7.6183      2.00000
     11       7.6183      2.00000
     12       7.8504      2.00000
     13       7.9096      2.00000
     14       7.9096      2.00000
     15       8.0398      2.00000
     16       8.2879      2.00000
     17      19.0369      0.00000
     18      19.0369      0.00000
     19      19.0587      0.00000
     20      19.3844      0.00000
     21      19.4244      0.00000
     22      19.5783      0.00000
     23      19.5783      0.00000
     24      19.7644      0.00000

 k-point   276 :      -0.4643    0.4643    0.3929
  band No.  band energies     occupation 
      1      -5.4381      2.00000
      2      -5.2028      2.00000
      3      -4.9781      2.00000
      4      -4.6620      2.00000
      5      -2.3026      2.00000
      6      -2.0271      2.00000
      7      -1.9916      2.00000
      8      -1.5424      2.00000
      9       7.4386      2.00000
     10       7.6094      2.00000
     11       7.7809      2.00000
     12       7.8552      2.00000
     13       7.8592      2.00000
     14       7.8976      2.00000
     15       8.0829      2.00000
     16       8.1223      2.00000
     17      19.0002      0.00000
     18      19.0417      0.00000
     19      19.0756      0.00000
     20      19.2795      0.00000
     21      19.4318      0.00000
     22      19.5710      0.00000
     23      19.5881      0.00000
     24      19.6223      0.00000

 k-point   277 :      -0.3929    0.4643    0.3929
  band No.  band energies     occupation 
      1      -5.9087      2.00000
      2      -5.3618      2.00000
      3      -4.8502      2.00000
      4      -4.5807      2.00000
      5      -2.2119      2.00000
      6      -2.2022      2.00000
      7      -1.4473      2.00000
      8      -0.9153      2.00000
      9       7.1002      2.00000
     10       7.2929      2.00000
     11       7.6625      2.00000
     12       7.6765      2.00000
     13       7.7275      2.00000
     14       7.8087      2.00000
     15       7.9812      2.00000
     16       8.1060      2.00000
     17      18.8179      0.00000
     18      18.9429      0.00000
     19      18.9958      0.00000
     20      19.1250      0.00000
     21      19.4384      0.00000
     22      19.5283      0.00000
     23      19.6962      0.00000
     24      19.7533      0.00000

 k-point   278 :      -0.4643   -0.4643    0.3929
  band No.  band energies     occupation 
      1      -5.4492      2.00000
      2      -4.9675      2.00000
      3      -4.9675      2.00000
      4      -4.9347      2.00000
      5      -2.2888      2.00000
      6      -2.0004      2.00000
      7      -2.0004      2.00000
      8      -1.5287      2.00000
      9       7.5891      2.00000
     10       7.5891      2.00000
     11       7.6131      2.00000
     12       7.8616      2.00000
     13       7.9259      2.00000
     14       7.9259      2.00000
     15       8.0251      2.00000
     16       8.1027      2.00000
     17      19.0987      0.00000
     18      19.0987      0.00000
     19      19.1445      0.00000
     20      19.2286      0.00000
     21      19.3374      0.00000
     22      19.3374      0.00000
     23      19.4166      0.00000
     24      19.6310      0.00000

 k-point   279 :       0.4643    0.4643    0.4643
  band No.  band energies     occupation 
      1      -5.2885      2.00000
      2      -4.7460      2.00000
      3      -4.7460      2.00000
      4      -4.7460      2.00000
      5      -2.3894      2.00000
      6      -2.3894      2.00000
      7      -2.3894      2.00000
      8      -2.1133      2.00000
      9       7.9115      2.00000
     10       7.9115      2.00000
     11       7.9115      2.00000
     12       7.9471      2.00000
     13       7.9471      2.00000
     14       7.9471      2.00000
     15       8.2256      2.00000
     16       8.2256      2.00000
     17      19.0574      0.00000
     18      19.0574      0.00000
     19      19.0574      0.00000
     20      19.3793      0.00000
     21      19.3793      0.00000
     22      19.5278      0.00000
     23      19.5278      0.00000
     24      19.5278      0.00000

 k-point   280 :      -0.4643    0.4643    0.4643
  band No.  band energies     occupation 
      1      -5.0530      2.00000
      2      -5.0190      2.00000
      3      -4.7490      2.00000
      4      -4.7490      2.00000
      5      -2.3842      2.00000
      6      -2.3842      2.00000
      7      -2.3766      2.00000
      8      -2.0854      2.00000
      9       7.8900      2.00000
     10       7.8900      2.00000
     11       7.9639      2.00000
     12       7.9639      2.00000
     13       8.0332      2.00000
     14       8.0593      2.00000
     15       8.0760      2.00000
     16       8.1358      2.00000
     17      19.0340      0.00000
     18      19.0639      0.00000
     19      19.0639      0.00000
     20      19.3282      0.00000
     21      19.4103      0.00000
     22      19.4216      0.00000
     23      19.4216      0.00000
     24      19.5045      0.00000


--------------------------------------------------------------------------------------------------------


 soft charge-density along one line, spin component           1
         0         1         2         3         4         5         6         7         8         9
 total charge-density along one line
 
 pseudopotential strength for first ion, spin component:           1
 12.170  20.467  -0.000  -0.000  -0.000  -0.000  -0.000  -0.000
 20.467  34.420  -0.000  -0.000  -0.000  -0.000  -0.000  -0.000
 -0.000  -0.000  -2.970  -0.000  -0.000  -5.306  -0.000  -0.000
 -0.000  -0.000  -0.000  -2.970  -0.000  -0.000  -5.306  -0.000
 -0.000  -0.000  -0.000  -0.000  -2.970  -0.000  -0.000  -5.306
 -0.000  -0.000  -5.306  -0.000  -0.000  -9.460  -0.000  -0.000
 -0.000  -0.000  -0.000  -5.306  -0.000  -0.000  -9.460  -0.000
 -0.000  -0.000  -0.000  -0.000  -5.306  -0.000  -0.000  -9.460
 total augmentation occupancy for first ion, spin component:           1
  7.188  -2.506   0.060   0.060   0.060  -0.026  -0.026  -0.026
 -2.506   0.929  -0.026  -0.026  -0.026   0.011   0.011   0.011
  0.060  -0.026   5.671  -0.034  -0.034  -1.837   0.011   0.011
  0.060  -0.026  -0.034   5.671  -0.034   0.011  -1.837   0.011
  0.060  -0.026  -0.034  -0.034   5.671   0.011   0.011  -1.837
 -0.026   0.011  -1.837   0.011   0.011   0.612  -0.004  -0.004
 -0.026   0.011   0.011  -1.837   0.011  -0.004   0.612  -0.004
 -0.026   0.011   0.011   0.011  -1.837  -0.004  -0.004   0.612


------------------------ aborting loop because EDIFF is reached ----------------------------------------


    CHARGE:  cpu time    0.2090: real time    0.2107
    FORLOC:  cpu time    0.0000: real time    0.0003
    FORNL :  cpu time    0.6379: real time    0.6391
    STRESS:  cpu time    4.0184: real time    4.0273
    FORCOR:  cpu time    0.0040: real time    0.0035
    FORHAR:  cpu time    0.0010: real time    0.0009
    MIXING:  cpu time    0.0000: real time    0.0004
    OFIELD:  cpu time    0.0000: real time    0.0001

  FORCE on cell =-STRESS in cart. coord.  units (eV):
  Direction    XX          YY          ZZ          XY          YZ          ZX
  --------------------------------------------------------------------------------------
  Alpha Z    76.88431    76.88431    76.88431
  Ewald    -463.05186  -463.05186  -463.05186    -4.83506    -4.83506    -4.83506
  Hartree    35.20812    35.20812    35.20812    -1.30043    -1.30043    -1.30043
  E(xc)    -132.03626  -132.03626  -132.03626     0.01582     0.01582     0.01582
  Local    -126.68786  -126.68786  -126.68786     5.91350     5.91350     5.91350
  n-local    28.69089    28.69081    28.78573     0.13315     0.60756    -0.22208
  augment     0.48721     0.48721     0.48721    -0.00355    -0.00355    -0.00355
  Kinetic   577.49274   577.45824   585.42662    -1.07519    -5.94794     2.43005
  Fock        0.00000     0.00000     0.00000     0.00000     0.00000     0.00000
  -------------------------------------------------------------------------------------
  Total      -0.34802    -0.34802    -0.34802    -1.56787    -1.56787    -1.56787
  in kB     -12.21861   -12.21861   -12.21861   -55.04688   -55.04688   -55.04688
  external pressure =      -12.22 kB  Pullay stress =        0.00 kB


 VOLUME and BASIS-vectors are now :
 -----------------------------------------------------------------------------
  energy-cutoff  :      875.00
  volume of cell :       45.63
      direct lattice vectors                 reciprocal lattice vectors
     3.573605071  0.017868025  0.017868025     0.279843389 -0.001392256 -0.001392256
     0.017868025  3.573605071  0.017868025    -0.001392256  0.279843389 -0.001392256
     0.017868025  0.017868025  3.573605071    -0.001392256 -0.001392256  0.279843389

  length of vectors
     3.573694410  3.573694410  3.573694410     0.279850315  0.279850315  0.279850315


 FORCES acting on ions
    electron-ion (+dipol)            ewald-force                    non-local-force                 convergence-correction
 -----------------------------------------------------------------------------------------------
   0.190E+01 0.190E+01 0.190E+01   -.177E+01 -.177E+01 -.177E+01   -.132E+00 -.132E+00 -.132E+00   -.381E-05 -.381E-05 -.381E-05
   -.190E+01 -.190E+01 -.190E+01   0.177E+01 0.177E+01 0.177E+01   0.132E+00 0.132E+00 0.132E+00   0.381E-05 0.381E-05 0.381E-05
   0.190E+01 0.190E+01 0.190E+01   -.177E+01 -.177E+01 -.177E+01   -.132E+00 -.132E+00 -.132E+00   -.381E-05 -.381E-05 -.381E-05
   -.190E+01 -.190E+01 -.190E+01   0.177E+01 0.177E+01 0.177E+01   0.132E+00 0.132E+00 0.132E+00   0.381E-05 0.381E-05 0.381E-05
   0.190E+01 0.190E+01 0.190E+01   -.177E+01 -.177E+01 -.177E+01   -.132E+00 -.132E+00 -.132E+00   -.381E-05 -.381E-05 -.381E-05
   -.190E+01 -.190E+01 -.190E+01   0.177E+01 0.177E+01 0.177E+01   0.132E+00 0.132E+00 0.132E+00   0.381E-05 0.381E-05 0.381E-05
   0.190E+01 0.190E+01 0.190E+01   -.177E+01 -.177E+01 -.177E+01   -.132E+00 -.132E+00 -.132E+00   -.381E-05 -.381E-05 -.381E-05
   -.190E+01 -.190E+01 -.190E+01   0.177E+01 0.177E+01 0.177E+01   0.132E+00 0.132E+00 0.132E+00   0.381E-05 0.381E-05 0.381E-05
 -----------------------------------------------------------------------------------------------
   0.163E-11 0.148E-12 -.171E-11   0.115E-13 0.222E-14 0.000E+00   0.222E-15 0.444E-15 0.222E-15   0.772E-15 0.464E-13 -.146E-13
 
 
 POSITION                                       TOTAL-FORCE (eV/Angst)
 -----------------------------------------------------------------------------------
      0.90208      0.90208      0.90208        -0.000071     -0.000071     -0.000071
      0.00026      0.00026      0.00026         0.000071      0.000071      0.000071
      0.91994      2.69781      2.69781        -0.000071     -0.000071     -0.000071
      0.01813      1.79600      1.79600         0.000071      0.000071      0.000071
      2.69781      0.91994      2.69781        -0.000071     -0.000071     -0.000071
      1.79600      0.01813      1.79600         0.000071      0.000071      0.000071
      2.69781      2.69781      0.91994        -0.000071     -0.000071     -0.000071
      1.79600      1.79600      0.01813         0.000071      0.000071      0.000071
 -----------------------------------------------------------------------------------
    total drift:                                0.000000      0.000000     -0.000000


--------------------------------------------------------------------------------------------------------



  FREE ENERGIE OF THE ION-ELECTRON SYSTEM (eV)
  ---------------------------------------------------
  free  energy   TOTEN  =       -72.82158983 eV

  energy  without entropy=      -72.82158983  energy(sigma->0) =      -72.82158983
 
 d Force = 0.3256254E-03[-0.106E-05, 0.652E-03]  d Energy = 0.3256955E-03-0.701E-07
 d Force =-0.2558379E-01[-0.263E-01,-0.248E-01]  d Ewald  =-0.2558545E-01 0.166E-05


--------------------------------------------------------------------------------------------------------


    POTLOK:  cpu time    0.0120: real time    0.0113


--------------------------------------------------------------------------------------------------------


 stress matrix after NEB project (eV)
     -0.34802     -1.56787     -1.56787
     -1.56787     -0.34802     -1.56787
     -1.56787     -1.56787     -0.34802
  FORCES: max atom, RMS     0.000123    0.000123
  FORCE total and by dimension    0.000349    0.000071
  Stress total and by dimension    3.887492    1.567867


--------------------------------------------------------------------------------------------------------


  
 reached required accuracy - stopping structural energy minimisation
     LOOP+:  cpu time   47.4608: real time   47.6334
    4ORBIT:  cpu time    0.0000: real time    0.0000

 total amount of memory used by VASP MPI-rank0    94461. kBytes
=======================================================================

   base      :      30000. kBytes
   nonl-proj :      48946. kBytes
   fftplans  :        905. kBytes
   grid      :       2114. kBytes
   one-center:         24. kBytes
   wavefun   :      12472. kBytes
 
  
  
 General timing and accounting informations for this job:
 ========================================================
  
                  Total CPU time used (sec):      204.673
                            User time (sec):      202.859
                          System time (sec):        1.814
                         Elapsed time (sec):      209.802
  
                   Maximum memory used (kb):      188760.
                   Average memory used (kb):           0.
  
                          Minor page faults:        47283
                          Major page faults:          331
                 Voluntary context switches:         7868
