<?xml version="1.0" encoding="ISO-8859-1"?>
<modeling>
 <generator>
  <i name="program" type="string">vasp </i>
  <i name="version" type="string">5.4.4.18Apr17-6-g9f103f2a35  </i>
  <i name="subversion" type="string">(build Jan 14 2019 14:48:31) complex            parallel </i>
  <i name="platform" type="string">LinuxIFC </i>
  <i name="date" type="string">2019 08 26 </i>
  <i name="time" type="string">21:09:05 </i>
 </generator>
 <incar>
  <i type="int" name="ISTART">     0</i>
  <i type="string" name="PREC">high     (precision level)</i>
  <i type="logical" name="ADDGRID"> T  </i>
  <i type="int" name="NELM">    40</i>
  <i type="int" name="NELMIN">     4</i>
  <i type="int" name="IBRION">     2</i>
  <i name="EDIFF">      0.00000001</i>
  <i name="EDIFFG">     -0.01000000</i>
  <i type="int" name="NSW">   100</i>
  <i type="int" name="ISIF">     2</i>
  <i type="logical" name="LREAL"> F  </i>
  <i type="int" name="ISMEAR">     0</i>
  <i name="SIGMA">      0.05000000</i>
  <i type="logical" name="LWAVE"> F  </i>
  <i type="logical" name="LCHARG"> F  </i>
  <v type="int" name="KPOINT_BSE">    -1     0     0     0</v>
  <i type="int" name="NELM">    40</i>
 </incar>
 <structure name="primitive_cell" >
  <crystal>
   <varray name="basis" >
    <v>      -0.01786803      -1.79573655      -1.79573655 </v>
    <v>      -1.79573655      -1.79573655      -0.01786803 </v>
    <v>      -1.79573655      -0.01786803      -1.79573655 </v>
   </varray>
   <i name="volume">     11.40846492 </i>
   <varray name="rec_basis" >
    <v>       0.28262790      -0.27984339      -0.27984339 </v>
    <v>      -0.27984339      -0.27984339       0.28262790 </v>
    <v>      -0.27984339       0.28262790      -0.27984339 </v>
   </varray>
  </crystal>
  <varray name="positions" >
   <v>      -0.25000000      -0.25000000      -0.25000000 </v>
   <v>       0.00000000       0.00000000       0.00000000 </v>
  </varray>
 </structure>
 <varray name="primitive_index" >
  <v type="int" >        1 </v>
  <v type="int" >        8 </v>
 </varray>
 <kpoints>
  <generation param="Monkhorst-Pack">
   <v type="int" name="divisions">      14       14       14 </v>
   <v name="usershift">      0.00000000       0.00000000       0.00000000 </v>
   <v name="genvec1">      0.07142857       0.00000000       0.00000000 </v>
   <v name="genvec2">      0.00000000       0.07142857       0.00000000 </v>
   <v name="genvec3">      0.00000000       0.00000000       0.07142857 </v>
   <v name="shift">      0.50000000       0.50000000       0.50000000 </v>
  </generation>
  <varray name="kpointlist" >
   <v>       0.03571429       0.03571429       0.03571429 </v>
   <v>       0.10714286       0.03571429       0.03571429 </v>
   <v>       0.17857143       0.03571429       0.03571429 </v>
   <v>       0.25000000       0.03571429       0.03571429 </v>
   <v>       0.32142857       0.03571429       0.03571429 </v>
   <v>       0.39285714       0.03571429       0.03571429 </v>
   <v>       0.46428571       0.03571429       0.03571429 </v>
   <v>      -0.46428571       0.03571429       0.03571429 </v>
   <v>      -0.39285714       0.03571429       0.03571429 </v>
   <v>      -0.32142857       0.03571429       0.03571429 </v>
   <v>      -0.25000000       0.03571429       0.03571429 </v>
   <v>      -0.17857143       0.03571429       0.03571429 </v>
   <v>      -0.10714286       0.03571429       0.03571429 </v>
   <v>      -0.03571429       0.03571429       0.03571429 </v>
   <v>       0.10714286       0.10714286       0.03571429 </v>
   <v>       0.17857143       0.10714286       0.03571429 </v>
   <v>       0.25000000       0.10714286       0.03571429 </v>
   <v>       0.32142857       0.10714286       0.03571429 </v>
   <v>       0.39285714       0.10714286       0.03571429 </v>
   <v>       0.46428571       0.10714286       0.03571429 </v>
   <v>      -0.46428571       0.10714286       0.03571429 </v>
   <v>      -0.39285714       0.10714286       0.03571429 </v>
   <v>      -0.32142857       0.10714286       0.03571429 </v>
   <v>      -0.25000000       0.10714286       0.03571429 </v>
   <v>      -0.17857143       0.10714286       0.03571429 </v>
   <v>      -0.10714286       0.10714286       0.03571429 </v>
   <v>      -0.03571429       0.10714286       0.03571429 </v>
   <v>       0.17857143       0.17857143       0.03571429 </v>
   <v>       0.25000000       0.17857143       0.03571429 </v>
   <v>       0.32142857       0.17857143       0.03571429 </v>
   <v>       0.39285714       0.17857143       0.03571429 </v>
   <v>       0.46428571       0.17857143       0.03571429 </v>
   <v>      -0.46428571       0.17857143       0.03571429 </v>
   <v>      -0.39285714       0.17857143       0.03571429 </v>
   <v>      -0.32142857       0.17857143       0.03571429 </v>
   <v>      -0.25000000       0.17857143       0.03571429 </v>
   <v>      -0.17857143       0.17857143       0.03571429 </v>
   <v>      -0.10714286       0.17857143       0.03571429 </v>
   <v>      -0.03571429       0.17857143       0.03571429 </v>
   <v>       0.25000000       0.25000000       0.03571429 </v>
   <v>       0.32142857       0.25000000       0.03571429 </v>
   <v>       0.39285714       0.25000000       0.03571429 </v>
   <v>       0.46428571       0.25000000       0.03571429 </v>
   <v>      -0.46428571       0.25000000       0.03571429 </v>
   <v>      -0.39285714       0.25000000       0.03571429 </v>
   <v>      -0.32142857       0.25000000       0.03571429 </v>
   <v>      -0.25000000       0.25000000       0.03571429 </v>
   <v>      -0.17857143       0.25000000       0.03571429 </v>
   <v>      -0.10714286       0.25000000       0.03571429 </v>
   <v>      -0.03571429       0.25000000       0.03571429 </v>
   <v>       0.32142857       0.32142857       0.03571429 </v>
   <v>       0.39285714       0.32142857       0.03571429 </v>
   <v>       0.46428571       0.32142857       0.03571429 </v>
   <v>      -0.46428571       0.32142857       0.03571429 </v>
   <v>      -0.39285714       0.32142857       0.03571429 </v>
   <v>      -0.32142857       0.32142857       0.03571429 </v>
   <v>      -0.25000000       0.32142857       0.03571429 </v>
   <v>      -0.17857143       0.32142857       0.03571429 </v>
   <v>      -0.10714286       0.32142857       0.03571429 </v>
   <v>      -0.03571429       0.32142857       0.03571429 </v>
   <v>       0.39285714       0.39285714       0.03571429 </v>
   <v>       0.46428571       0.39285714       0.03571429 </v>
   <v>      -0.46428571       0.39285714       0.03571429 </v>
   <v>      -0.39285714       0.39285714       0.03571429 </v>
   <v>      -0.32142857       0.39285714       0.03571429 </v>
   <v>      -0.25000000       0.39285714       0.03571429 </v>
   <v>      -0.17857143       0.39285714       0.03571429 </v>
   <v>      -0.10714286       0.39285714       0.03571429 </v>
   <v>      -0.03571429       0.39285714       0.03571429 </v>
   <v>       0.46428571       0.46428571       0.03571429 </v>
   <v>      -0.46428571       0.46428571       0.03571429 </v>
   <v>      -0.39285714       0.46428571       0.03571429 </v>
   <v>      -0.32142857       0.46428571       0.03571429 </v>
   <v>      -0.25000000       0.46428571       0.03571429 </v>
   <v>      -0.17857143       0.46428571       0.03571429 </v>
   <v>      -0.10714286       0.46428571       0.03571429 </v>
   <v>      -0.03571429       0.46428571       0.03571429 </v>
   <v>      -0.46428571      -0.46428571       0.03571429 </v>
   <v>      -0.39285714      -0.46428571       0.03571429 </v>
   <v>      -0.32142857      -0.46428571       0.03571429 </v>
   <v>      -0.25000000      -0.46428571       0.03571429 </v>
   <v>      -0.17857143      -0.46428571       0.03571429 </v>
   <v>      -0.10714286      -0.46428571       0.03571429 </v>
   <v>      -0.39285714      -0.39285714       0.03571429 </v>
   <v>      -0.32142857      -0.39285714       0.03571429 </v>
   <v>      -0.25000000      -0.39285714       0.03571429 </v>
   <v>      -0.17857143      -0.39285714       0.03571429 </v>
   <v>      -0.10714286      -0.39285714       0.03571429 </v>
   <v>      -0.32142857      -0.32142857       0.03571429 </v>
   <v>      -0.25000000      -0.32142857       0.03571429 </v>
   <v>      -0.17857143      -0.32142857       0.03571429 </v>
   <v>      -0.10714286      -0.32142857       0.03571429 </v>
   <v>      -0.25000000      -0.25000000       0.03571429 </v>
   <v>      -0.17857143      -0.25000000       0.03571429 </v>
   <v>      -0.10714286      -0.25000000       0.03571429 </v>
   <v>      -0.17857143      -0.17857143       0.03571429 </v>
   <v>      -0.10714286      -0.17857143       0.03571429 </v>
   <v>      -0.10714286      -0.10714286       0.03571429 </v>
   <v>       0.10714286       0.10714286       0.10714286 </v>
   <v>       0.17857143       0.10714286       0.10714286 </v>
   <v>       0.25000000       0.10714286       0.10714286 </v>
   <v>       0.32142857       0.10714286       0.10714286 </v>
   <v>       0.39285714       0.10714286       0.10714286 </v>
   <v>       0.46428571       0.10714286       0.10714286 </v>
   <v>      -0.46428571       0.10714286       0.10714286 </v>
   <v>      -0.39285714       0.10714286       0.10714286 </v>
   <v>      -0.32142857       0.10714286       0.10714286 </v>
   <v>      -0.25000000       0.10714286       0.10714286 </v>
   <v>      -0.17857143       0.10714286       0.10714286 </v>
   <v>      -0.10714286       0.10714286       0.10714286 </v>
   <v>       0.17857143       0.17857143       0.10714286 </v>
   <v>       0.25000000       0.17857143       0.10714286 </v>
   <v>       0.32142857       0.17857143       0.10714286 </v>
   <v>       0.39285714       0.17857143       0.10714286 </v>
   <v>       0.46428571       0.17857143       0.10714286 </v>
   <v>      -0.46428571       0.17857143       0.10714286 </v>
   <v>      -0.39285714       0.17857143       0.10714286 </v>
   <v>      -0.32142857       0.17857143       0.10714286 </v>
   <v>      -0.25000000       0.17857143       0.10714286 </v>
   <v>      -0.17857143       0.17857143       0.10714286 </v>
   <v>      -0.10714286       0.17857143       0.10714286 </v>
   <v>       0.25000000       0.25000000       0.10714286 </v>
   <v>       0.32142857       0.25000000       0.10714286 </v>
   <v>       0.39285714       0.25000000       0.10714286 </v>
   <v>       0.46428571       0.25000000       0.10714286 </v>
   <v>      -0.46428571       0.25000000       0.10714286 </v>
   <v>      -0.39285714       0.25000000       0.10714286 </v>
   <v>      -0.32142857       0.25000000       0.10714286 </v>
   <v>      -0.25000000       0.25000000       0.10714286 </v>
   <v>      -0.17857143       0.25000000       0.10714286 </v>
   <v>      -0.10714286       0.25000000       0.10714286 </v>
   <v>       0.32142857       0.32142857       0.10714286 </v>
   <v>       0.39285714       0.32142857       0.10714286 </v>
   <v>       0.46428571       0.32142857       0.10714286 </v>
   <v>      -0.46428571       0.32142857       0.10714286 </v>
   <v>      -0.39285714       0.32142857       0.10714286 </v>
   <v>      -0.32142857       0.32142857       0.10714286 </v>
   <v>      -0.25000000       0.32142857       0.10714286 </v>
   <v>      -0.17857143       0.32142857       0.10714286 </v>
   <v>      -0.10714286       0.32142857       0.10714286 </v>
   <v>       0.39285714       0.39285714       0.10714286 </v>
   <v>       0.46428571       0.39285714       0.10714286 </v>
   <v>      -0.46428571       0.39285714       0.10714286 </v>
   <v>      -0.39285714       0.39285714       0.10714286 </v>
   <v>      -0.32142857       0.39285714       0.10714286 </v>
   <v>      -0.25000000       0.39285714       0.10714286 </v>
   <v>      -0.17857143       0.39285714       0.10714286 </v>
   <v>      -0.10714286       0.39285714       0.10714286 </v>
   <v>       0.46428571       0.46428571       0.10714286 </v>
   <v>      -0.46428571       0.46428571       0.10714286 </v>
   <v>      -0.39285714       0.46428571       0.10714286 </v>
   <v>      -0.32142857       0.46428571       0.10714286 </v>
   <v>      -0.25000000       0.46428571       0.10714286 </v>
   <v>      -0.17857143       0.46428571       0.10714286 </v>
   <v>      -0.10714286       0.46428571       0.10714286 </v>
   <v>      -0.46428571      -0.46428571       0.10714286 </v>
   <v>      -0.39285714      -0.46428571       0.10714286 </v>
   <v>      -0.32142857      -0.46428571       0.10714286 </v>
   <v>      -0.25000000      -0.46428571       0.10714286 </v>
   <v>      -0.17857143      -0.46428571       0.10714286 </v>
   <v>      -0.39285714      -0.39285714       0.10714286 </v>
   <v>      -0.32142857      -0.39285714       0.10714286 </v>
   <v>      -0.25000000      -0.39285714       0.10714286 </v>
   <v>      -0.17857143      -0.39285714       0.10714286 </v>
   <v>      -0.32142857      -0.32142857       0.10714286 </v>
   <v>      -0.25000000      -0.32142857       0.10714286 </v>
   <v>      -0.17857143      -0.32142857       0.10714286 </v>
   <v>      -0.25000000      -0.25000000       0.10714286 </v>
   <v>      -0.17857143      -0.25000000       0.10714286 </v>
   <v>      -0.17857143      -0.17857143       0.10714286 </v>
   <v>       0.17857143       0.17857143       0.17857143 </v>
   <v>       0.25000000       0.17857143       0.17857143 </v>
   <v>       0.32142857       0.17857143       0.17857143 </v>
   <v>       0.39285714       0.17857143       0.17857143 </v>
   <v>       0.46428571       0.17857143       0.17857143 </v>
   <v>      -0.46428571       0.17857143       0.17857143 </v>
   <v>      -0.39285714       0.17857143       0.17857143 </v>
   <v>      -0.32142857       0.17857143       0.17857143 </v>
   <v>      -0.25000000       0.17857143       0.17857143 </v>
   <v>      -0.17857143       0.17857143       0.17857143 </v>
   <v>       0.25000000       0.25000000       0.17857143 </v>
   <v>       0.32142857       0.25000000       0.17857143 </v>
   <v>       0.39285714       0.25000000       0.17857143 </v>
   <v>       0.46428571       0.25000000       0.17857143 </v>
   <v>      -0.46428571       0.25000000       0.17857143 </v>
   <v>      -0.39285714       0.25000000       0.17857143 </v>
   <v>      -0.32142857       0.25000000       0.17857143 </v>
   <v>      -0.25000000       0.25000000       0.17857143 </v>
   <v>      -0.17857143       0.25000000       0.17857143 </v>
   <v>       0.32142857       0.32142857       0.17857143 </v>
   <v>       0.39285714       0.32142857       0.17857143 </v>
   <v>       0.46428571       0.32142857       0.17857143 </v>
   <v>      -0.46428571       0.32142857       0.17857143 </v>
   <v>      -0.39285714       0.32142857       0.17857143 </v>
   <v>      -0.32142857       0.32142857       0.17857143 </v>
   <v>      -0.25000000       0.32142857       0.17857143 </v>
   <v>      -0.17857143       0.32142857       0.17857143 </v>
   <v>       0.39285714       0.39285714       0.17857143 </v>
   <v>       0.46428571       0.39285714       0.17857143 </v>
   <v>      -0.46428571       0.39285714       0.17857143 </v>
   <v>      -0.39285714       0.39285714       0.17857143 </v>
   <v>      -0.32142857       0.39285714       0.17857143 </v>
   <v>      -0.25000000       0.39285714       0.17857143 </v>
   <v>      -0.17857143       0.39285714       0.17857143 </v>
   <v>       0.46428571       0.46428571       0.17857143 </v>
   <v>      -0.46428571       0.46428571       0.17857143 </v>
   <v>      -0.39285714       0.46428571       0.17857143 </v>
   <v>      -0.32142857       0.46428571       0.17857143 </v>
   <v>      -0.25000000       0.46428571       0.17857143 </v>
   <v>      -0.17857143       0.46428571       0.17857143 </v>
   <v>      -0.46428571      -0.46428571       0.17857143 </v>
   <v>      -0.39285714      -0.46428571       0.17857143 </v>
   <v>      -0.32142857      -0.46428571       0.17857143 </v>
   <v>      -0.25000000      -0.46428571       0.17857143 </v>
   <v>      -0.39285714      -0.39285714       0.17857143 </v>
   <v>      -0.32142857      -0.39285714       0.17857143 </v>
   <v>      -0.25000000      -0.39285714       0.17857143 </v>
   <v>      -0.32142857      -0.32142857       0.17857143 </v>
   <v>      -0.25000000      -0.32142857       0.17857143 </v>
   <v>      -0.25000000      -0.25000000       0.17857143 </v>
   <v>       0.25000000       0.25000000       0.25000000 </v>
   <v>       0.32142857       0.25000000       0.25000000 </v>
   <v>       0.39285714       0.25000000       0.25000000 </v>
   <v>       0.46428571       0.25000000       0.25000000 </v>
   <v>      -0.46428571       0.25000000       0.25000000 </v>
   <v>      -0.39285714       0.25000000       0.25000000 </v>
   <v>      -0.32142857       0.25000000       0.25000000 </v>
   <v>      -0.25000000       0.25000000       0.25000000 </v>
   <v>       0.32142857       0.32142857       0.25000000 </v>
   <v>       0.39285714       0.32142857       0.25000000 </v>
   <v>       0.46428571       0.32142857       0.25000000 </v>
   <v>      -0.46428571       0.32142857       0.25000000 </v>
   <v>      -0.39285714       0.32142857       0.25000000 </v>
   <v>      -0.32142857       0.32142857       0.25000000 </v>
   <v>      -0.25000000       0.32142857       0.25000000 </v>
   <v>       0.39285714       0.39285714       0.25000000 </v>
   <v>       0.46428571       0.39285714       0.25000000 </v>
   <v>      -0.46428571       0.39285714       0.25000000 </v>
   <v>      -0.39285714       0.39285714       0.25000000 </v>
   <v>      -0.32142857       0.39285714       0.25000000 </v>
   <v>      -0.25000000       0.39285714       0.25000000 </v>
   <v>       0.46428571       0.46428571       0.25000000 </v>
   <v>      -0.46428571       0.46428571       0.25000000 </v>
   <v>      -0.39285714       0.46428571       0.25000000 </v>
   <v>      -0.32142857       0.46428571       0.25000000 </v>
   <v>      -0.25000000       0.46428571       0.25000000 </v>
   <v>      -0.46428571      -0.46428571       0.25000000 </v>
   <v>      -0.39285714      -0.46428571       0.25000000 </v>
   <v>      -0.32142857      -0.46428571       0.25000000 </v>
   <v>      -0.39285714      -0.39285714       0.25000000 </v>
   <v>      -0.32142857      -0.39285714       0.25000000 </v>
   <v>      -0.32142857      -0.32142857       0.25000000 </v>
   <v>       0.32142857       0.32142857       0.32142857 </v>
   <v>       0.39285714       0.32142857       0.32142857 </v>
   <v>       0.46428571       0.32142857       0.32142857 </v>
   <v>      -0.46428571       0.32142857       0.32142857 </v>
   <v>      -0.39285714       0.32142857       0.32142857 </v>
   <v>      -0.32142857       0.32142857       0.32142857 </v>
   <v>       0.39285714       0.39285714       0.32142857 </v>
   <v>       0.46428571       0.39285714       0.32142857 </v>
   <v>      -0.46428571       0.39285714       0.32142857 </v>
   <v>      -0.39285714       0.39285714       0.32142857 </v>
   <v>      -0.32142857       0.39285714       0.32142857 </v>
   <v>       0.46428571       0.46428571       0.32142857 </v>
   <v>      -0.46428571       0.46428571       0.32142857 </v>
   <v>      -0.39285714       0.46428571       0.32142857 </v>
   <v>      -0.32142857       0.46428571       0.32142857 </v>
   <v>      -0.46428571      -0.46428571       0.32142857 </v>
   <v>      -0.39285714      -0.46428571       0.32142857 </v>
   <v>      -0.39285714      -0.39285714       0.32142857 </v>
   <v>       0.39285714       0.39285714       0.39285714 </v>
   <v>       0.46428571       0.39285714       0.39285714 </v>
   <v>      -0.46428571       0.39285714       0.39285714 </v>
   <v>      -0.39285714       0.39285714       0.39285714 </v>
   <v>       0.46428571       0.46428571       0.39285714 </v>
   <v>      -0.46428571       0.46428571       0.39285714 </v>
   <v>      -0.39285714       0.46428571       0.39285714 </v>
   <v>      -0.46428571      -0.46428571       0.39285714 </v>
   <v>       0.46428571       0.46428571       0.46428571 </v>
   <v>      -0.46428571       0.46428571       0.46428571 </v>
  </varray>
  <varray name="weights" >
   <v>       0.00072886 </v>
   <v>       0.00218659 </v>
   <v>       0.00218659 </v>
   <v>       0.00218659 </v>
   <v>       0.00218659 </v>
   <v>       0.00218659 </v>
   <v>       0.00218659 </v>
   <v>       0.00218659 </v>
   <v>       0.00218659 </v>
   <v>       0.00218659 </v>
   <v>       0.00218659 </v>
   <v>       0.00218659 </v>
   <v>       0.00218659 </v>
   <v>       0.00218659 </v>
   <v>       0.00218659 </v>
   <v>       0.00437318 </v>
   <v>       0.00437318 </v>
   <v>       0.00437318 </v>
   <v>       0.00437318 </v>
   <v>       0.00437318 </v>
   <v>       0.00437318 </v>
   <v>       0.00437318 </v>
   <v>       0.00437318 </v>
   <v>       0.00437318 </v>
   <v>       0.00437318 </v>
   <v>       0.00437318 </v>
   <v>       0.00437318 </v>
   <v>       0.00218659 </v>
   <v>       0.00437318 </v>
   <v>       0.00437318 </v>
   <v>       0.00437318 </v>
   <v>       0.00437318 </v>
   <v>       0.00437318 </v>
   <v>       0.00437318 </v>
   <v>       0.00437318 </v>
   <v>       0.00437318 </v>
   <v>       0.00437318 </v>
   <v>       0.00437318 </v>
   <v>       0.00437318 </v>
   <v>       0.00218659 </v>
   <v>       0.00437318 </v>
   <v>       0.00437318 </v>
   <v>       0.00437318 </v>
   <v>       0.00437318 </v>
   <v>       0.00437318 </v>
   <v>       0.00437318 </v>
   <v>       0.00437318 </v>
   <v>       0.00437318 </v>
   <v>       0.00437318 </v>
   <v>       0.00437318 </v>
   <v>       0.00218659 </v>
   <v>       0.00437318 </v>
   <v>       0.00437318 </v>
   <v>       0.00437318 </v>
   <v>       0.00437318 </v>
   <v>       0.00437318 </v>
   <v>       0.00437318 </v>
   <v>       0.00437318 </v>
   <v>       0.00437318 </v>
   <v>       0.00437318 </v>
   <v>       0.00218659 </v>
   <v>       0.00437318 </v>
   <v>       0.00437318 </v>
   <v>       0.00437318 </v>
   <v>       0.00437318 </v>
   <v>       0.00437318 </v>
   <v>       0.00437318 </v>
   <v>       0.00437318 </v>
   <v>       0.00437318 </v>
   <v>       0.00218659 </v>
   <v>       0.00437318 </v>
   <v>       0.00437318 </v>
   <v>       0.00437318 </v>
   <v>       0.00437318 </v>
   <v>       0.00437318 </v>
   <v>       0.00437318 </v>
   <v>       0.00437318 </v>
   <v>       0.00218659 </v>
   <v>       0.00437318 </v>
   <v>       0.00437318 </v>
   <v>       0.00437318 </v>
   <v>       0.00437318 </v>
   <v>       0.00437318 </v>
   <v>       0.00218659 </v>
   <v>       0.00437318 </v>
   <v>       0.00437318 </v>
   <v>       0.00437318 </v>
   <v>       0.00437318 </v>
   <v>       0.00218659 </v>
   <v>       0.00437318 </v>
   <v>       0.00437318 </v>
   <v>       0.00437318 </v>
   <v>       0.00218659 </v>
   <v>       0.00437318 </v>
   <v>       0.00437318 </v>
   <v>       0.00218659 </v>
   <v>       0.00437318 </v>
   <v>       0.00218659 </v>
   <v>       0.00072886 </v>
   <v>       0.00218659 </v>
   <v>       0.00218659 </v>
   <v>       0.00218659 </v>
   <v>       0.00218659 </v>
   <v>       0.00218659 </v>
   <v>       0.00218659 </v>
   <v>       0.00218659 </v>
   <v>       0.00218659 </v>
   <v>       0.00218659 </v>
   <v>       0.00218659 </v>
   <v>       0.00218659 </v>
   <v>       0.00218659 </v>
   <v>       0.00437318 </v>
   <v>       0.00437318 </v>
   <v>       0.00437318 </v>
   <v>       0.00437318 </v>
   <v>       0.00437318 </v>
   <v>       0.00437318 </v>
   <v>       0.00437318 </v>
   <v>       0.00437318 </v>
   <v>       0.00437318 </v>
   <v>       0.00437318 </v>
   <v>       0.00218659 </v>
   <v>       0.00437318 </v>
   <v>       0.00437318 </v>
   <v>       0.00437318 </v>
   <v>       0.00437318 </v>
   <v>       0.00437318 </v>
   <v>       0.00437318 </v>
   <v>       0.00437318 </v>
   <v>       0.00437318 </v>
   <v>       0.00437318 </v>
   <v>       0.00218659 </v>
   <v>       0.00437318 </v>
   <v>       0.00437318 </v>
   <v>       0.00437318 </v>
   <v>       0.00437318 </v>
   <v>       0.00437318 </v>
   <v>       0.00437318 </v>
   <v>       0.00437318 </v>
   <v>       0.00437318 </v>
   <v>       0.00218659 </v>
   <v>       0.00437318 </v>
   <v>       0.00437318 </v>
   <v>       0.00437318 </v>
   <v>       0.00437318 </v>
   <v>       0.00437318 </v>
   <v>       0.00437318 </v>
   <v>       0.00437318 </v>
   <v>       0.00218659 </v>
   <v>       0.00437318 </v>
   <v>       0.00437318 </v>
   <v>       0.00437318 </v>
   <v>       0.00437318 </v>
   <v>       0.00437318 </v>
   <v>       0.00437318 </v>
   <v>       0.00218659 </v>
   <v>       0.00437318 </v>
   <v>       0.00437318 </v>
   <v>       0.00437318 </v>
   <v>       0.00437318 </v>
   <v>       0.00218659 </v>
   <v>       0.00437318 </v>
   <v>       0.00437318 </v>
   <v>       0.00437318 </v>
   <v>       0.00218659 </v>
   <v>       0.00437318 </v>
   <v>       0.00437318 </v>
   <v>       0.00218659 </v>
   <v>       0.00437318 </v>
   <v>       0.00218659 </v>
   <v>       0.00072886 </v>
   <v>       0.00218659 </v>
   <v>       0.00218659 </v>
   <v>       0.00218659 </v>
   <v>       0.00218659 </v>
   <v>       0.00218659 </v>
   <v>       0.00218659 </v>
   <v>       0.00218659 </v>
   <v>       0.00218659 </v>
   <v>       0.00218659 </v>
   <v>       0.00218659 </v>
   <v>       0.00437318 </v>
   <v>       0.00437318 </v>
   <v>       0.00437318 </v>
   <v>       0.00437318 </v>
   <v>       0.00437318 </v>
   <v>       0.00437318 </v>
   <v>       0.00437318 </v>
   <v>       0.00437318 </v>
   <v>       0.00218659 </v>
   <v>       0.00437318 </v>
   <v>       0.00437318 </v>
   <v>       0.00437318 </v>
   <v>       0.00437318 </v>
   <v>       0.00437318 </v>
   <v>       0.00437318 </v>
   <v>       0.00437318 </v>
   <v>       0.00218659 </v>
   <v>       0.00437318 </v>
   <v>       0.00437318 </v>
   <v>       0.00437318 </v>
   <v>       0.00437318 </v>
   <v>       0.00437318 </v>
   <v>       0.00437318 </v>
   <v>       0.00218659 </v>
   <v>       0.00437318 </v>
   <v>       0.00437318 </v>
   <v>       0.00437318 </v>
   <v>       0.00437318 </v>
   <v>       0.00437318 </v>
   <v>       0.00218659 </v>
   <v>       0.00437318 </v>
   <v>       0.00437318 </v>
   <v>       0.00437318 </v>
   <v>       0.00218659 </v>
   <v>       0.00437318 </v>
   <v>       0.00437318 </v>
   <v>       0.00218659 </v>
   <v>       0.00437318 </v>
   <v>       0.00218659 </v>
   <v>       0.00072886 </v>
   <v>       0.00218659 </v>
   <v>       0.00218659 </v>
   <v>       0.00218659 </v>
   <v>       0.00218659 </v>
   <v>       0.00218659 </v>
   <v>       0.00218659 </v>
   <v>       0.00218659 </v>
   <v>       0.00218659 </v>
   <v>       0.00437318 </v>
   <v>       0.00437318 </v>
   <v>       0.00437318 </v>
   <v>       0.00437318 </v>
   <v>       0.00437318 </v>
   <v>       0.00437318 </v>
   <v>       0.00218659 </v>
   <v>       0.00437318 </v>
   <v>       0.00437318 </v>
   <v>       0.00437318 </v>
   <v>       0.00437318 </v>
   <v>       0.00437318 </v>
   <v>       0.00218659 </v>
   <v>       0.00437318 </v>
   <v>       0.00437318 </v>
   <v>       0.00437318 </v>
   <v>       0.00437318 </v>
   <v>       0.00218659 </v>
   <v>       0.00437318 </v>
   <v>       0.00437318 </v>
   <v>       0.00218659 </v>
   <v>       0.00437318 </v>
   <v>       0.00218659 </v>
   <v>       0.00072886 </v>
   <v>       0.00218659 </v>
   <v>       0.00218659 </v>
   <v>       0.00218659 </v>
   <v>       0.00218659 </v>
   <v>       0.00218659 </v>
   <v>       0.00218659 </v>
   <v>       0.00437318 </v>
   <v>       0.00437318 </v>
   <v>       0.00437318 </v>
   <v>       0.00437318 </v>
   <v>       0.00218659 </v>
   <v>       0.00437318 </v>
   <v>       0.00437318 </v>
   <v>       0.00437318 </v>
   <v>       0.00218659 </v>
   <v>       0.00437318 </v>
   <v>       0.00218659 </v>
   <v>       0.00072886 </v>
   <v>       0.00218659 </v>
   <v>       0.00218659 </v>
   <v>       0.00218659 </v>
   <v>       0.00218659 </v>
   <v>       0.00437318 </v>
   <v>       0.00437318 </v>
   <v>       0.00218659 </v>
   <v>       0.00072886 </v>
   <v>       0.00218659 </v>
  </varray>
 </kpoints>
 <parameters>
  <separator name="general" >
   <i type="string" name="SYSTEM">unknown system</i>
   <i type="logical" name="LCOMPAT"> F  </i>
  </separator>
  <separator name="electronic" >
   <i type="string" name="PREC">high</i>
   <i name="ENMAX">    875.00000000</i>
   <i name="ENAUG">    946.76800000</i>
   <i name="EDIFF">      0.00000001</i>
   <i type="int" name="IALGO">    38</i>
   <i type="int" name="IWAVPR">    11</i>
   <i type="int" name="NBANDS">    24</i>
   <i name="NELECT">     32.00000000</i>
   <i type="int" name="TURBO">     0</i>
   <i type="int" name="IRESTART">     0</i>
   <i type="int" name="NREBOOT">     0</i>
   <i type="int" name="NMIN">     0</i>
   <i name="EREF">      0.00000000</i>
   <separator name="electronic smearing" >
    <i type="int" name="ISMEAR">     0</i>
    <i name="SIGMA">      0.05000000</i>
    <i name="KSPACING">      0.50000000</i>
    <i type="logical" name="KGAMMA"> T  </i>
   </separator>
   <separator name="electronic projectors" >
    <i type="logical" name="LREAL"> F  </i>
    <v name="ROPT">      0.00000000</v>
    <i type="int" name="LMAXPAW">  -100</i>
    <i type="int" name="LMAXMIX">     2</i>
    <i type="logical" name="NLSPLINE"> F  </i>
   </separator>
   <separator name="electronic startup" >
    <i type="int" name="ISTART">     0</i>
    <i type="int" name="ICHARG">     2</i>
    <i type="int" name="INIWAV">     1</i>
   </separator>
   <separator name="electronic spin" >
    <i type="int" name="ISPIN">     1</i>
    <i type="logical" name="LNONCOLLINEAR"> F  </i>
    <v name="MAGMOM">      1.00000000      1.00000000      1.00000000      1.00000000      1.00000000      1.00000000      1.00000000      1.00000000</v>
    <i name="NUPDOWN">     -1.00000000</i>
    <i type="logical" name="LSORBIT"> F  </i>
    <v name="SAXIS">      0.00000000      0.00000000      1.00000000</v>
    <i type="logical" name="LSPIRAL"> F  </i>
    <v name="QSPIRAL">      0.00000000      0.00000000      0.00000000</v>
    <i type="logical" name="LZEROZ"> F  </i>
   </separator>
   <separator name="electronic exchange-correlation" >
    <i type="logical" name="LASPH"> F  </i>
    <i type="logical" name="LMETAGGA"> F  </i>
   </separator>
   <separator name="electronic convergence" >
    <i type="int" name="NELM">    40</i>
    <i type="int" name="NELMDL">    -5</i>
    <i type="int" name="NELMIN">     4</i>
    <i name="ENINI">    875.00000000</i>
    <separator name="electronic convergence detail" >
     <i type="logical" name="LDIAG"> T  </i>
     <i type="logical" name="LSUBROT"> F  </i>
     <i name="WEIMIN">      0.00100000</i>
     <i name="EBREAK">      0.00000000</i>
     <i name="DEPER">      0.30000000</i>
     <i type="int" name="NRMM">     4</i>
     <i name="TIME">      0.40000000</i>
    </separator>
   </separator>
   <separator name="electronic mixer" >
    <i name="AMIX">      0.40000000</i>
    <i name="BMIX">      1.00000000</i>
    <i name="AMIN">      0.10000000</i>
    <i name="AMIX_MAG">      1.60000000</i>
    <i name="BMIX_MAG">      1.00000000</i>
    <separator name="electronic mixer details" >
     <i type="int" name="IMIX">     4</i>
     <i type="logical" name="MIXFIRST"> F  </i>
     <i type="int" name="MAXMIX">   -45</i>
     <i name="WC">    100.00000000</i>
     <i type="int" name="INIMIX">     1</i>
     <i type="int" name="MIXPRE">     1</i>
     <i type="int" name="MREMOVE">     5</i>
    </separator>
   </separator>
   <separator name="electronic dipolcorrection" >
    <i type="logical" name="LDIPOL"> F  </i>
    <i type="logical" name="LMONO"> F  </i>
    <i type="int" name="IDIPOL">     0</i>
    <i name="EPSILON">      1.00000000</i>
    <v name="DIPOL">   -100.00000000   -100.00000000   -100.00000000</v>
    <i name="EFIELD">      0.00000000</i>
   </separator>
  </separator>
  <separator name="grids" >
   <i type="int" name="NGX">    36</i>
   <i type="int" name="NGY">    36</i>
   <i type="int" name="NGZ">    36</i>
   <i type="int" name="NGXF">    48</i>
   <i type="int" name="NGYF">    48</i>
   <i type="int" name="NGZF">    48</i>
   <i type="logical" name="ADDGRID"> T  </i>
  </separator>
  <separator name="ionic" >
   <i type="int" name="NSW">   100</i>
   <i type="int" name="IBRION">     2</i>
   <i type="int" name="MDALGO">     0</i>
   <i type="int" name="ISIF">     2</i>
   <i name="PSTRESS">      0.00000000</i>
   <i name="EDIFFG">     -0.01000000</i>
   <i type="int" name="NFREE">     1</i>
   <i name="POTIM">      0.50000000</i>
   <i name="SMASS">     -3.00000000</i>
   <i name="SCALEE">      1.00000000</i>
  </separator>
  <separator name="ionic md" >
   <i name="TEBEG">      0.00010000</i>
   <i name="TEEND">      0.00010000</i>
   <i type="int" name="NBLOCK">     1</i>
   <i type="int" name="KBLOCK">   100</i>
   <i type="int" name="NPACO">   256</i>
   <i name="APACO">     16.00000000</i>
  </separator>
  <separator name="symmetry" >
   <i type="int" name="ISYM">     2</i>
   <i name="SYMPREC">      0.00001000</i>
  </separator>
  <separator name="dos" >
   <i type="int" name="LORBIT">     0</i>
   <v name="RWIGS">     -1.00000000</v>
   <i type="int" name="NEDOS">   301</i>
   <i name="EMIN">     10.00000000</i>
   <i name="EMAX">    -10.00000000</i>
   <i name="EFERMI">      0.00000000</i>
  </separator>
  <separator name="writing" >
   <i type="int" name="NWRITE">     2</i>
   <i type="logical" name="LWAVE"> F  </i>
   <i type="logical" name="LDOWNSAMPLE"> F  </i>
   <i type="logical" name="LCHARG"> F  </i>
   <i type="logical" name="LPARD"> F  </i>
   <i type="logical" name="LVTOT"> F  </i>
   <i type="logical" name="LVHAR"> F  </i>
   <i type="logical" name="LELF"> F  </i>
   <i type="logical" name="LOPTICS"> F  </i>
   <v name="STM">      0.00000000      0.00000000      0.00000000      0.00000000      0.00000000      0.00000000      0.00000000</v>
  </separator>
  <separator name="performance" >
   <i type="int" name="NPAR">    24</i>
   <i type="int" name="NSIM">     4</i>
   <i type="int" name="NBLK">    -1</i>
   <i type="logical" name="LPLANE"> T  </i>
   <i type="logical" name="LSCALAPACK"> T  </i>
   <i type="logical" name="LSCAAWARE"> F  </i>
   <i type="logical" name="LSCALU"> F  </i>
   <i type="logical" name="LASYNC"> F  </i>
   <i type="logical" name="LORBITALREAL"> F  </i>
  </separator>
  <separator name="miscellaneous" >
   <i type="int" name="IDIOT">     3</i>
   <i type="int" name="ISPECIAL">     0</i>
   <i type="logical" name="LMUSIC"> F  </i>
   <v name="POMASS">     12.01100000</v>
   <v name="DARWINR">      0.00000000</v>
   <v name="DARWINV">      1.00000000</v>
   <i type="logical" name="LCORR"> T  </i>
  </separator>
  <i type="logical" name="GGA_COMPAT"> T  </i>
  <i type="logical" name="LBERRY"> F  </i>
  <i type="int" name="ICORELEVEL">     0</i>
  <i type="logical" name="LDAU"> F  </i>
  <i type="int" name="I_CONSTRAINED_M">     0</i>
  <separator name="electronic exchange-correlation" >
   <i type="string" name="GGA">--</i>
   <i type="int" name="VOSKOWN">     0</i>
   <i type="logical" name="LHFCALC"> F  </i>
   <i type="string" name="PRECFOCK"></i>
   <i type="logical" name="LSYMGRAD"> F  </i>
   <i type="logical" name="LHFONE"> F  </i>
   <i type="logical" name="LRHFCALC"> F  </i>
   <i type="logical" name="LTHOMAS"> F  </i>
   <i type="logical" name="LMODELHF"> F  </i>
   <i name="ENCUT4O">     -1.00000000</i>
   <i type="int" name="EXXOEP">     0</i>
   <i type="int" name="FOURORBIT">     0</i>
   <i name="AEXX">      0.00000000</i>
   <i name="HFALPHA">      0.00000000</i>
   <i name="MCALPHA">      0.00000000</i>
   <i name="ALDAX">      1.00000000</i>
   <i name="AGGAX">      1.00000000</i>
   <i name="ALDAC">      1.00000000</i>
   <i name="AGGAC">      1.00000000</i>
   <i type="int" name="NKREDX">     1</i>
   <i type="int" name="NKREDY">     1</i>
   <i type="int" name="NKREDZ">     1</i>
   <i type="logical" name="SHIFTRED"> F  </i>
   <i type="logical" name="ODDONLY"> F  </i>
   <i type="logical" name="EVENONLY"> F  </i>
   <i type="int" name="LMAXFOCK">     0</i>
   <i type="int" name="NMAXFOCKAE">     0</i>
   <i type="logical" name="LFOCKAEDFT"> F  </i>
   <i name="HFSCREEN">      0.00000000</i>
   <i name="HFSCREENC">      0.00000000</i>
   <i type="int" name="NBANDSGWLOW">     0</i>
  </separator>
  <separator name="vdW DFT" >
   <i type="logical" name="LUSE_VDW"> F  </i>
   <i name="Zab_VDW">     -0.84910000</i>
   <i name="PARAM1">      0.12340000</i>
   <i name="PARAM2">      1.00000000</i>
   <i name="PARAM3">      0.00000000</i>
  </separator>
  <separator name="model GW" >
   <i type="int" name="MODEL_GW">     0</i>
   <i name="MODEL_EPS0">      3.42253947</i>
   <i name="MODEL_ALPHA">      1.00000000</i>
  </separator>
  <separator name="linear response parameters" >
   <i type="logical" name="LEPSILON"> F  </i>
   <i type="logical" name="LRPA"> F  </i>
   <i type="logical" name="LNABLA"> F  </i>
   <i type="logical" name="LVEL"> F  </i>
   <i type="int" name="KINTER">     0</i>
   <i name="CSHIFT">      0.10000000</i>
   <i name="OMEGAMAX">     -1.00000000</i>
   <i name="DEG_THRESHOLD">      0.00200000</i>
   <i name="RTIME">     -0.10000000</i>
   <i name="WPLASMAI">      0.00000000</i>
   <v name="DFIELD">      0.00000000      0.00000000      0.00000000</v>
   <v name="WPLASMA">      0.00000000      0.00000000      0.00000000      0.00000000      0.00000000      0.00000000      0.00000000      0.00000000      0.00000000</v>
  </separator>
  <separator name="orbital magnetization" >
   <i type="logical" name="NUCIND"> F  </i>
   <v name="MAGPOS">      0.00000000      0.00000000      0.00000000</v>
   <i type="logical" name="LNICSALL"> T  </i>
   <i type="logical" name="ORBITALMAG"> F  </i>
   <i type="logical" name="LMAGBLOCH"> F  </i>
   <i type="logical" name="LCHIMAG"> F  </i>
   <i type="logical" name="LGAUGE"> T  </i>
   <i type="int" name="MAGATOM">     0</i>
   <v name="MAGDIPOL">      0.00000000      0.00000000      0.00000000</v>
   <v name="AVECCONST">      0.00000000      0.00000000      0.00000000</v>
  </separator>
  <separator name="response functions" >
   <i type="logical" name="LADDER"> F  </i>
   <i type="logical" name="LRPAFORCE"> F  </i>
   <i type="logical" name="LFXC"> F  </i>
   <i type="logical" name="LHARTREE"> T  </i>
   <i type="int" name="IBSE">     0</i>
   <v type="int" name="KPOINT">    -1     0     0     0</v>
   <i type="logical" name="LTCTE"> F  </i>
   <i type="logical" name="LTETE"> F  </i>
   <i type="logical" name="LTRIPLET"> F  </i>
   <i type="logical" name="LFXCEPS"> F  </i>
   <i type="logical" name="LFXHEG"> F  </i>
   <i type="int" name="NATURALO">     2</i>
   <i type="logical" name="L2ORDER"> F  </i>
   <i type="logical" name="LMP2LT"> F  </i>
   <i type="logical" name="LUSEW"> F  </i>
   <i name="ENCUTGW">     -2.00000000</i>
   <i name="ENCUTGWSOFT">     -2.00000000</i>
   <i name="ENCUTLF">     -1.00000000</i>
   <i type="int" name="LMAXMP2">    -1</i>
   <i name="SCISSOR">      0.00000000</i>
   <i type="int" name="NOMEGA">     0</i>
   <i type="int" name="NOMEGAR">     0</i>
   <i type="int" name="NBANDSGW">    -1</i>
   <i type="int" name="NBANDSO">    -1</i>
   <i type="int" name="NBANDSV">    -1</i>
   <i type="int" name="NELM">    40</i>
   <i type="int" name="NELMHF">     1</i>
   <i type="int" name="DIM">     3</i>
   <i type="int" name="ANTIRES">     0</i>
   <i name="OMEGAMAX">    -30.00000000</i>
   <i name="OMEGAMIN">    -30.00000000</i>
   <i name="OMEGATL">   -200.00000000</i>
   <i type="int" name="OMEGAGRID">   140</i>
   <i name="CSHIFT">     -0.10000000</i>
   <i type="logical" name="SELFENERGY"> F  </i>
   <i type="logical" name="LSPECTRAL"> F  </i>
   <i type="logical" name="LSPECTRALGW"> F  </i>
   <i type="logical" name="LSINGLES"> F  </i>
   <i type="logical" name="LFERMIGW"> F  </i>
   <i type="logical" name="ODDONLYGW"> F  </i>
   <i type="logical" name="EVENONLYGW"> F  </i>
   <i type="int" name="NKREDLFX">     1</i>
   <i type="int" name="NKREDLFY">     1</i>
   <i type="int" name="NKREDLFZ">     1</i>
   <i type="int" name="MAXMEM">  2800</i>
   <i type="int" name="TELESCOPE">     0</i>
   <i type="int" name="TAUPAR">     1</i>
   <i type="int" name="OMEGAPAR">    -1</i>
   <i name="LAMBDA">      1.00000000</i>
  </separator>
  <separator name="External order field" >
   <i name="OFIELD_KAPPA">      0.00000000</i>
   <v name="OFIELD_K">      0.00000000      0.00000000      0.00000000</v>
   <i name="OFIELD_Q6_NEAR">      0.00000000</i>
   <i name="OFIELD_Q6_FAR">      0.00000000</i>
   <i name="OFIELD_A">      0.00000000</i>
  </separator>
 </parameters>
 <atominfo>
  <atoms>       8 </atoms>
  <types>       1 </types>
  <array name="atoms" >
   <dimension dim="1">ion</dimension>
   <field type="string">element</field>
   <field type="int">atomtype</field>
   <set>
    <rc><c>C </c><c>   1</c></rc>
    <rc><c>C </c><c>   1</c></rc>
    <rc><c>C </c><c>   1</c></rc>
    <rc><c>C </c><c>   1</c></rc>
    <rc><c>C </c><c>   1</c></rc>
    <rc><c>C </c><c>   1</c></rc>
    <rc><c>C </c><c>   1</c></rc>
    <rc><c>C </c><c>   1</c></rc>
   </set>
  </array>
  <array name="atomtypes" >
   <dimension dim="1">type</dimension>
   <field type="int">atomspertype</field>
   <field type="string">element</field>
   <field>mass</field>
   <field>valence</field>
   <field type="string">pseudopotential</field>
   <set>
    <rc><c>   8</c><c>C </c><c>     12.01100000</c><c>      4.00000000</c><c>  PAW_PBE C_h 06Feb2004                 </c></rc>
   </set>
  </array>
 </atominfo>
 <structure name="initialpos" >
  <crystal>
   <varray name="basis" >
    <v>       3.57360507       0.01786803       0.01786803 </v>
    <v>       0.01786803       3.57360507       0.01786803 </v>
    <v>       0.01786803       0.01786803       3.57360507 </v>
   </varray>
   <i name="volume">     45.63385966 </i>
   <varray name="rec_basis" >
    <v>       0.27984339      -0.00139226      -0.00139226 </v>
    <v>      -0.00139226       0.27984339      -0.00139226 </v>
    <v>      -0.00139226      -0.00139226       0.27984339 </v>
   </varray>
  </crystal>
  <varray name="positions" >
   <v>       0.25000000       0.25000000       0.25000000 </v>
   <v>       0.00000000       0.00000000       0.00000000 </v>
   <v>       0.25000000       0.75000000       0.75000000 </v>
   <v>       0.00000000       0.50000000       0.50000000 </v>
   <v>       0.75000000       0.25000000       0.75000000 </v>
   <v>       0.50000000       0.00000000       0.50000000 </v>
   <v>       0.75000000       0.75000000       0.25000000 </v>
   <v>       0.50000000       0.50000000       0.00000000 </v>
  </varray>
 </structure>
 <calculation>
  <scstep>
   <time name="dav">    4.47    4.99</time>
   <time name="total">    4.51    5.09</time>
   <energy>
    <i name="alphaZ">     76.88430569 </i>
    <i name="ewald">  -1389.14205491 </i>
    <i name="hartreedc">    -70.50990958 </i>
    <i name="XCdc">     62.04633688 </i>
    <i name="pawpsdc">    914.77613359 </i>
    <i name="pawaedc">   -872.73161751 </i>
    <i name="eentropy">     -0.00086470 </i>
    <i name="bandstr">    201.58009737 </i>
    <i name="atom">   1177.21277265 </i>
    <i name="e_fr_energy">    100.11519950 </i>
    <i name="e_wo_entrp">    100.11606419 </i>
    <i name="e_0_energy">    100.11563184 </i>
   </energy>
  </scstep>
  <scstep>
   <time name="dav">    7.67    7.79</time>
   <time name="total">    7.67    7.79</time>
   <energy>
    <i name="e_fr_energy">    -72.49893323 </i>
    <i name="e_wo_entrp">    -72.49893323 </i>
    <i name="e_0_energy">    -72.49893323 </i>
   </energy>
  </scstep>
  <scstep>
   <time name="dav">    5.31    5.33</time>
   <time name="total">    5.31    5.33</time>
   <energy>
    <i name="e_fr_energy">    -75.24641376 </i>
    <i name="e_wo_entrp">    -75.24641376 </i>
    <i name="e_0_energy">    -75.24641376 </i>
   </energy>
  </scstep>
  <scstep>
   <time name="dav">    9.48    9.51</time>
   <time name="total">    9.48    9.51</time>
   <energy>
    <i name="e_fr_energy">    -75.26430019 </i>
    <i name="e_wo_entrp">    -75.26430019 </i>
    <i name="e_0_energy">    -75.26430019 </i>
   </energy>
  </scstep>
  <scstep>
   <time name="dav">    5.23    5.25</time>
   <time name="total">    5.45    5.57</time>
   <energy>
    <i name="e_fr_energy">    -75.26430273 </i>
    <i name="e_wo_entrp">    -75.26430273 </i>
    <i name="e_0_energy">    -75.26430273 </i>
   </energy>
  </scstep>
  <scstep>
   <time name="dav">    5.43    5.44</time>
   <time name="total">    5.66    5.76</time>
   <energy>
    <i name="e_fr_energy">    -73.43514002 </i>
    <i name="e_wo_entrp">    -73.43514002 </i>
    <i name="e_0_energy">    -73.43514002 </i>
   </energy>
  </scstep>
  <scstep>
   <time name="dav">    6.96    6.98</time>
   <time name="total">    7.18    7.22</time>
   <energy>
    <i name="e_fr_energy">    -72.82286757 </i>
    <i name="e_wo_entrp">    -72.82286757 </i>
    <i name="e_0_energy">    -72.82286757 </i>
   </energy>
  </scstep>
  <scstep>
   <time name="dav">    7.78    7.80</time>
   <time name="total">    8.00    8.04</time>
   <energy>
    <i name="e_fr_energy">    -72.82122708 </i>
    <i name="e_wo_entrp">    -72.82122708 </i>
    <i name="e_0_energy">    -72.82122708 </i>
   </energy>
  </scstep>
  <scstep>
   <time name="dav">    7.20    7.22</time>
   <time name="total">    7.42    7.45</time>
   <energy>
    <i name="e_fr_energy">    -72.82140831 </i>
    <i name="e_wo_entrp">    -72.82140831 </i>
    <i name="e_0_energy">    -72.82140831 </i>
   </energy>
  </scstep>
  <scstep>
   <time name="dav">    7.48    7.49</time>
   <time name="total">    7.71    7.73</time>
   <energy>
    <i name="e_fr_energy">    -72.82153138 </i>
    <i name="e_wo_entrp">    -72.82153138 </i>
    <i name="e_0_energy">    -72.82153138 </i>
   </energy>
  </scstep>
  <scstep>
   <time name="dav">    7.69    7.71</time>
   <time name="total">    7.91    7.94</time>
   <energy>
    <i name="e_fr_energy">    -72.82153240 </i>
    <i name="e_wo_entrp">    -72.82153240 </i>
    <i name="e_0_energy">    -72.82153240 </i>
   </energy>
  </scstep>
  <scstep>
   <time name="dav">    7.44    7.45</time>
   <time name="total">    7.66    7.69</time>
   <energy>
    <i name="e_fr_energy">    -72.82153276 </i>
    <i name="e_wo_entrp">    -72.82153276 </i>
    <i name="e_0_energy">    -72.82153276 </i>
   </energy>
  </scstep>
  <scstep>
   <time name="dav">    7.73    7.75</time>
   <time name="total">    7.95    7.98</time>
   <energy>
    <i name="e_fr_energy">    -72.82153278 </i>
    <i name="e_wo_entrp">    -72.82153278 </i>
    <i name="e_0_energy">    -72.82153278 </i>
   </energy>
  </scstep>
  <scstep>
   <time name="dav">    6.73    6.75</time>
   <time name="total">    6.74    6.77</time>
   <energy>
    <i name="alphaZ">     76.88430569 </i>
    <i name="ewald">  -1389.14205491 </i>
    <i name="hartreedc">   -105.63070382 </i>
    <i name="XCdc">     65.07100505 </i>
    <i name="pawpsdc">  14461.62586597 </i>
    <i name="pawaedc"> -14420.09735247 </i>
    <i name="eentropy">     -0.00000000 </i>
    <i name="bandstr">     61.25462906 </i>
    <i name="atom">   1177.21277265 </i>
    <i name="e_fr_energy">    -72.82153278 </i>
    <i name="e_wo_entrp">    -72.82153278 </i>
    <i name="e_0_energy">    -72.82153278 </i>
   </energy>
  </scstep>
  <structure>
   <crystal>
    <varray name="basis" >
     <v>       3.57360507       0.01786803       0.01786803 </v>
     <v>       0.01786803       3.57360507       0.01786803 </v>
     <v>       0.01786803       0.01786803       3.57360507 </v>
    </varray>
    <i name="volume">     45.63385966 </i>
    <varray name="rec_basis" >
     <v>       0.27984339      -0.00139226      -0.00139226 </v>
     <v>      -0.00139226       0.27984339      -0.00139226 </v>
     <v>      -0.00139226      -0.00139226       0.27984339 </v>
    </varray>
   </crystal>
   <varray name="positions" >
    <v>       0.25000000       0.25000000       0.25000000 </v>
    <v>       0.00000000       0.00000000       0.00000000 </v>
    <v>       0.25000000       0.75000000       0.75000000 </v>
    <v>       0.00000000       0.50000000       0.50000000 </v>
    <v>       0.75000000       0.25000000       0.75000000 </v>
    <v>       0.50000000       0.00000000       0.50000000 </v>
    <v>       0.75000000       0.75000000       0.25000000 </v>
    <v>       0.50000000       0.50000000       0.00000000 </v>
   </varray>
  </structure>
  <varray name="forces" >
   <v>      -0.01827649      -0.01827649      -0.01827649 </v>
   <v>       0.01827649       0.01827649       0.01827649 </v>
   <v>      -0.01827649      -0.01827649      -0.01827649 </v>
   <v>       0.01827649       0.01827649       0.01827649 </v>
   <v>      -0.01827649      -0.01827649      -0.01827649 </v>
   <v>       0.01827649       0.01827649       0.01827649 </v>
   <v>      -0.01827649      -0.01827649      -0.01827649 </v>
   <v>       0.01827649       0.01827649       0.01827649 </v>
  </varray>
  <varray name="stress" >
   <v>     -12.10811151     -55.12836004     -55.12836004 </v>
   <v>     -55.12836004     -12.10811151     -55.12836004 </v>
   <v>     -55.12836004     -55.12836004     -12.10811151 </v>
  </varray>
  <energy>
   <i name="e_fr_energy">    -72.82153278 </i>
   <i name="e_wo_entrp">    -72.82153278 </i>
   <i name="e_0_energy">     -0.00000000 </i>
  </energy>
  <time name="totalsc">  104.09  105.43</time>
 </calculation>
 <calculation>
  <scstep>
   <time name="dav">    5.88    5.90</time>
   <time name="total">    6.10    6.13</time>
   <energy>
    <i name="alphaZ">     76.88430569 </i>
    <i name="ewald">  -1389.17878453 </i>
    <i name="hartreedc">   -105.61314971 </i>
    <i name="XCdc">     65.07003617 </i>
    <i name="pawpsdc">  14461.61635030 </i>
    <i name="pawaedc"> -14420.08783730 </i>
    <i name="eentropy">     -0.00000000 </i>
    <i name="bandstr">     61.27506433 </i>
    <i name="atom">   1177.21277265 </i>
    <i name="e_fr_energy">    -72.82124239 </i>
    <i name="e_wo_entrp">    -72.82124239 </i>
    <i name="e_0_energy">    -72.82124239 </i>
   </energy>
  </scstep>
  <scstep>
   <time name="dav">    8.44    8.46</time>
   <time name="total">    8.66    8.69</time>
   <energy>
    <i name="e_fr_energy">    -72.82127082 </i>
    <i name="e_wo_entrp">    -72.82127082 </i>
    <i name="e_0_energy">    -72.82127082 </i>
   </energy>
  </scstep>
  <scstep>
   <time name="dav">    6.37    6.39</time>
   <time name="total">    6.59    6.61</time>
   <energy>
    <i name="e_fr_energy">    -72.82126392 </i>
    <i name="e_wo_entrp">    -72.82126392 </i>
    <i name="e_0_energy">    -72.82126392 </i>
   </energy>
  </scstep>
  <scstep>
   <time name="dav">    7.96    7.97</time>
   <time name="total">    8.18    8.20</time>
   <energy>
    <i name="e_fr_energy">    -72.82126413 </i>
    <i name="e_wo_entrp">    -72.82126413 </i>
    <i name="e_0_energy">    -72.82126413 </i>
   </energy>
  </scstep>
  <scstep>
   <time name="dav">    6.74    6.75</time>
   <time name="total">    6.96    6.99</time>
   <energy>
    <i name="e_fr_energy">    -72.82126414 </i>
    <i name="e_wo_entrp">    -72.82126414 </i>
    <i name="e_0_energy">    -72.82126414 </i>
   </energy>
  </scstep>
  <scstep>
   <time name="dav">    6.98    7.00</time>
   <time name="total">    6.99    7.02</time>
   <energy>
    <i name="alphaZ">     76.88430569 </i>
    <i name="ewald">  -1389.17878453 </i>
    <i name="hartreedc">   -105.60941793 </i>
    <i name="XCdc">     65.06971267 </i>
    <i name="pawpsdc">  14458.23952360 </i>
    <i name="pawaedc"> -14416.71076997 </i>
    <i name="eentropy">     -0.00000000 </i>
    <i name="bandstr">     61.27139367 </i>
    <i name="atom">   1177.21277265 </i>
    <i name="e_fr_energy">    -72.82126413 </i>
    <i name="e_wo_entrp">    -72.82126413 </i>
    <i name="e_0_energy">    -72.82126413 </i>
   </energy>
  </scstep>
  <structure>
   <crystal>
    <varray name="basis" >
     <v>       3.57360507       0.01786803       0.01786803 </v>
     <v>       0.01786803       3.57360507       0.01786803 </v>
     <v>       0.01786803       0.01786803       3.57360507 </v>
    </varray>
    <i name="volume">     45.63385966 </i>
    <varray name="rec_basis" >
     <v>       0.27984339      -0.00139226      -0.00139226 </v>
     <v>      -0.00139226       0.27984339      -0.00139226 </v>
     <v>      -0.00139226      -0.00139226       0.27984339 </v>
    </varray>
   </crystal>
   <varray name="positions" >
    <v>       0.24975572       0.24975572       0.24975572 </v>
    <v>       0.00024428       0.00024428       0.00024428 </v>
    <v>       0.24975572       0.74975572       0.74975572 </v>
    <v>       0.00024428       0.50024428       0.50024428 </v>
    <v>       0.74975572       0.24975572       0.74975572 </v>
    <v>       0.50024428       0.00024428       0.50024428 </v>
    <v>       0.74975572       0.74975572       0.24975572 </v>
    <v>       0.50024428       0.50024428       0.00024428 </v>
   </varray>
  </structure>
  <varray name="forces" >
   <v>       0.04371436       0.04371436       0.04371436 </v>
   <v>      -0.04371436      -0.04371436      -0.04371436 </v>
   <v>       0.04371436       0.04371436       0.04371436 </v>
   <v>      -0.04371436      -0.04371436      -0.04371436 </v>
   <v>       0.04371436       0.04371436       0.04371436 </v>
   <v>      -0.04371436      -0.04371436      -0.04371436 </v>
   <v>       0.04371436       0.04371436       0.04371436 </v>
   <v>      -0.04371436      -0.04371436      -0.04371436 </v>
  </varray>
  <varray name="stress" >
   <v>     -12.46458024     -54.83987445     -54.83987445 </v>
   <v>     -54.83987445     -12.46458024     -54.83987445 </v>
   <v>     -54.83987445     -54.83987445     -12.46458024 </v>
  </varray>
  <energy>
   <i name="e_fr_energy">    -72.82126413 </i>
   <i name="e_wo_entrp">    -72.82126413 </i>
   <i name="e_0_energy">     -0.00000000 </i>
  </energy>
  <time name="totalsc">   48.98   49.18</time>
 </calculation>
 <calculation>
  <scstep>
   <time name="dav">    5.75    5.76</time>
   <time name="total">    5.97    6.00</time>
   <energy>
    <i name="alphaZ">     76.88430569 </i>
    <i name="ewald">  -1389.15319907 </i>
    <i name="hartreedc">   -105.62151971 </i>
    <i name="XCdc">     65.07038752 </i>
    <i name="pawpsdc">  14458.26706459 </i>
    <i name="pawaedc"> -14416.73830931 </i>
    <i name="eentropy">     -0.00000000 </i>
    <i name="bandstr">     61.25691972 </i>
    <i name="atom">   1177.21277265 </i>
    <i name="e_fr_energy">    -72.82157792 </i>
    <i name="e_wo_entrp">    -72.82157792 </i>
    <i name="e_0_energy">    -72.82157792 </i>
   </energy>
  </scstep>
  <scstep>
   <time name="dav">    8.54    8.56</time>
   <time name="total">    8.78    8.79</time>
   <energy>
    <i name="e_fr_energy">    -72.82159304 </i>
    <i name="e_wo_entrp">    -72.82159304 </i>
    <i name="e_0_energy">    -72.82159304 </i>
   </energy>
  </scstep>
  <scstep>
   <time name="dav">    6.26    6.27</time>
   <time name="total">    6.48    6.51</time>
   <energy>
    <i name="e_fr_energy">    -72.82158972 </i>
    <i name="e_wo_entrp">    -72.82158972 </i>
    <i name="e_0_energy">    -72.82158972 </i>
   </energy>
  </scstep>
  <scstep>
   <time name="dav">    7.98    7.99</time>
   <time name="total">    8.20    8.23</time>
   <energy>
    <i name="e_fr_energy">    -72.82158984 </i>
    <i name="e_wo_entrp">    -72.82158984 </i>
    <i name="e_0_energy">    -72.82158984 </i>
   </energy>
  </scstep>
  <scstep>
   <time name="dav">    6.58    6.59</time>
   <time name="total">    6.81    6.82</time>
   <energy>
    <i name="e_fr_energy">    -72.82158983 </i>
    <i name="e_wo_entrp">    -72.82158983 </i>
    <i name="e_0_energy">    -72.82158983 </i>
   </energy>
  </scstep>
  <scstep>
   <time name="dav">    6.10    6.12</time>
   <time name="total">    6.11    6.14</time>
   <energy>
    <i name="alphaZ">     76.88430569 </i>
    <i name="ewald">  -1389.15319907 </i>
    <i name="hartreedc">   -105.62430991 </i>
    <i name="XCdc">     65.07061722 </i>
    <i name="pawpsdc">  14460.62880208 </i>
    <i name="pawaedc"> -14419.10021338 </i>
    <i name="eentropy">     -0.00000000 </i>
    <i name="bandstr">     61.25963490 </i>
    <i name="atom">   1177.21277265 </i>
    <i name="e_fr_energy">    -72.82158983 </i>
    <i name="e_wo_entrp">    -72.82158983 </i>
    <i name="e_0_energy">    -72.82158983 </i>
   </energy>
  </scstep>
  <structure>
   <crystal>
    <varray name="basis" >
     <v>       3.57360507       0.01786803       0.01786803 </v>
     <v>       0.01786803       3.57360507       0.01786803 </v>
     <v>       0.01786803       0.01786803       3.57360507 </v>
    </varray>
    <i name="volume">     45.63385966 </i>
    <varray name="rec_basis" >
     <v>       0.27984339      -0.00139226      -0.00139226 </v>
     <v>      -0.00139226       0.27984339      -0.00139226 </v>
     <v>      -0.00139226      -0.00139226       0.27984339 </v>
    </varray>
   </crystal>
   <varray name="positions" >
    <v>       0.24992798       0.24992798       0.24992798 </v>
    <v>       0.00007202       0.00007202       0.00007202 </v>
    <v>       0.24992798       0.74992798       0.74992798 </v>
    <v>       0.00007202       0.50007202       0.50007202 </v>
    <v>       0.74992798       0.24992798       0.74992798 </v>
    <v>       0.50007202       0.00007202       0.50007202 </v>
    <v>       0.74992798       0.74992798       0.24992798 </v>
    <v>       0.50007202       0.50007202       0.00007202 </v>
   </varray>
  </structure>
  <varray name="forces" >
   <v>      -0.00007116      -0.00007116      -0.00007116 </v>
   <v>       0.00007116       0.00007116       0.00007116 </v>
   <v>      -0.00007116      -0.00007116      -0.00007116 </v>
   <v>       0.00007116       0.00007116       0.00007116 </v>
   <v>      -0.00007116      -0.00007116      -0.00007116 </v>
   <v>       0.00007116       0.00007116       0.00007116 </v>
   <v>      -0.00007116      -0.00007116      -0.00007116 </v>
   <v>       0.00007116       0.00007116       0.00007116 </v>
  </varray>
  <varray name="stress" >
   <v>     -12.21860779     -55.04687576     -55.04687576 </v>
   <v>     -55.04687576     -12.21860779     -55.04687576 </v>
   <v>     -55.04687576     -55.04687576     -12.21860779 </v>
  </varray>
  <energy>
   <i name="e_fr_energy">    -72.82158983 </i>
   <i name="e_wo_entrp">    -72.82158983 </i>
   <i name="e_0_energy">     -0.00000000 </i>
  </energy>
  <time name="totalsc">   47.46   47.63</time>
  <eigenvalues>
   <array>
    <dimension dim="1">band</dimension>
    <dimension dim="2">kpoint</dimension>
    <dimension dim="3">spin</dimension>
    <field>eigene</field>
    <field>occ</field>
    <set>
     <set comment="spin 1">
      <set comment="kpoint 1">
       <r>  -10.5121    1.0000 </r>
       <r>   -2.4070    1.0000 </r>
       <r>   -2.4070    1.0000 </r>
       <r>   -2.4070    1.0000 </r>
       <r>   -1.2988    1.0000 </r>
       <r>   -1.2988    1.0000 </r>
       <r>   -1.2988    1.0000 </r>
       <r>    4.3856    1.0000 </r>
       <r>    4.3856    1.0000 </r>
       <r>    4.3856    1.0000 </r>
       <r>    4.7219    1.0000 </r>
       <r>    4.7219    1.0000 </r>
       <r>    4.7219    1.0000 </r>
       <r>   10.5524    1.0000 </r>
       <r>   10.8033    1.0000 </r>
       <r>   10.8033    1.0000 </r>
       <r>   15.5029    0.0000 </r>
       <r>   15.5029    0.0000 </r>
       <r>   15.5029    0.0000 </r>
       <r>   15.9238    0.0000 </r>
       <r>   15.9238    0.0000 </r>
       <r>   15.9238    0.0000 </r>
       <r>   16.3274    0.0000 </r>
       <r>   16.6587    0.0000 </r>
      </set>
      <set comment="kpoint 2">
       <r>  -10.4193    1.0000 </r>
       <r>   -3.4926    1.0000 </r>
       <r>   -2.3295    1.0000 </r>
       <r>   -2.3295    1.0000 </r>
       <r>   -1.2646    1.0000 </r>
       <r>   -1.2646    1.0000 </r>
       <r>   -0.1323    1.0000 </r>
       <r>    4.0723    1.0000 </r>
       <r>    4.0723    1.0000 </r>
       <r>    4.4894    1.0000 </r>
       <r>    4.6534    1.0000 </r>
       <r>    4.6534    1.0000 </r>
       <r>    4.8110    1.0000 </r>
       <r>   10.0773    1.0000 </r>
       <r>   10.4595    1.0000 </r>
       <r>   10.6852    1.0000 </r>
       <r>   15.2777    0.0000 </r>
       <r>   15.9167    0.0000 </r>
       <r>   15.9167    0.0000 </r>
       <r>   16.2500    0.0000 </r>
       <r>   16.2500    0.0000 </r>
       <r>   16.3592    0.0000 </r>
       <r>   16.4694    0.0000 </r>
       <r>   16.9007    0.0000 </r>
      </set>
      <set comment="kpoint 3">
       <r>  -10.2329    1.0000 </r>
       <r>   -4.5210    1.0000 </r>
       <r>   -2.1931    1.0000 </r>
       <r>   -2.1931    1.0000 </r>
       <r>   -1.1853    1.0000 </r>
       <r>   -1.1853    1.0000 </r>
       <r>    1.0565    1.0000 </r>
       <r>    3.6470    1.0000 </r>
       <r>    3.6470    1.0000 </r>
       <r>    4.4005    1.0000 </r>
       <r>    4.4005    1.0000 </r>
       <r>    4.6890    1.0000 </r>
       <r>    4.9902    1.0000 </r>
       <r>    9.4300    1.0000 </r>
       <r>    9.8860    1.0000 </r>
       <r>   10.3056    1.0000 </r>
       <r>   15.1291    0.0000 </r>
       <r>   16.3472    0.0000 </r>
       <r>   16.5807    0.0000 </r>
       <r>   16.5807    0.0000 </r>
       <r>   16.9360    0.0000 </r>
       <r>   16.9824    0.0000 </r>
       <r>   16.9824    0.0000 </r>
       <r>   17.6430    0.0000 </r>
      </set>
      <set comment="kpoint 4">
       <r>   -9.9536    1.0000 </r>
       <r>   -5.4829    1.0000 </r>
       <r>   -2.0097    1.0000 </r>
       <r>   -2.0097    1.0000 </r>
       <r>   -1.0743    1.0000 </r>
       <r>   -1.0743    1.0000 </r>
       <r>    2.2474    1.0000 </r>
       <r>    3.1873    1.0000 </r>
       <r>    3.1873    1.0000 </r>
       <r>    4.0311    1.0000 </r>
       <r>    4.0311    1.0000 </r>
       <r>    4.9858    1.0000 </r>
       <r>    5.2579    1.0000 </r>
       <r>    8.7038    1.0000 </r>
       <r>    9.2064    1.0000 </r>
       <r>    9.7207    1.0000 </r>
       <r>   15.0634    0.0000 </r>
       <r>   16.1613    0.0000 </r>
       <r>   17.4882    0.0000 </r>
       <r>   17.4882    0.0000 </r>
       <r>   17.6462    0.0000 </r>
       <r>   17.9837    0.0000 </r>
       <r>   17.9837    0.0000 </r>
       <r>   18.5793    0.0000 </r>
      </set>
      <set comment="kpoint 5">
       <r>   -9.5819    1.0000 </r>
       <r>   -6.3716    1.0000 </r>
       <r>   -1.8026    1.0000 </r>
       <r>   -1.8026    1.0000 </r>
       <r>   -0.9525    1.0000 </r>
       <r>   -0.9525    1.0000 </r>
       <r>    2.7689    1.0000 </r>
       <r>    2.7689    1.0000 </r>
       <r>    3.4168    1.0000 </r>
       <r>    3.6260    1.0000 </r>
       <r>    3.6260    1.0000 </r>
       <r>    5.3836    1.0000 </r>
       <r>    5.6116    1.0000 </r>
       <r>    7.9560    1.0000 </r>
       <r>    8.4996    1.0000 </r>
       <r>    8.9820    1.0000 </r>
       <r>   15.0733    0.0000 </r>
       <r>   15.9462    0.0000 </r>
       <r>   18.4910    0.0000 </r>
       <r>   18.5881    0.0000 </r>
       <r>   18.5881    0.0000 </r>
       <r>   19.1482    0.0000 </r>
       <r>   19.1482    0.0000 </r>
       <r>   19.6151    0.0000 </r>
      </set>
      <set comment="kpoint 6">
       <r>   -9.1189    1.0000 </r>
       <r>   -7.1820    1.0000 </r>
       <r>   -1.6158    1.0000 </r>
       <r>   -1.6158    1.0000 </r>
       <r>   -0.8430    1.0000 </r>
       <r>   -0.8430    1.0000 </r>
       <r>    2.4584    1.0000 </r>
       <r>    2.4584    1.0000 </r>
       <r>    3.2673    1.0000 </r>
       <r>    3.2673    1.0000 </r>
       <r>    4.5331    1.0000 </r>
       <r>    5.8926    1.0000 </r>
       <r>    6.0479    1.0000 </r>
       <r>    7.2115    1.0000 </r>
       <r>    7.8102    1.0000 </r>
       <r>    8.1375    1.0000 </r>
       <r>   15.1492    0.0000 </r>
       <r>   15.7238    0.0000 </r>
       <r>   19.4646    0.0000 </r>
       <r>   19.7975    0.0000 </r>
       <r>   19.7975    0.0000 </r>
       <r>   20.3783    0.0000 </r>
       <r>   20.3783    0.0000 </r>
       <r>   20.6986    0.0000 </r>
      </set>
      <set comment="kpoint 7">
       <r>   -8.5663    1.0000 </r>
       <r>   -7.9102    1.0000 </r>
       <r>   -1.5169    1.0000 </r>
       <r>   -1.5169    1.0000 </r>
       <r>   -0.7570    1.0000 </r>
       <r>   -0.7570    1.0000 </r>
       <r>    2.3019    1.0000 </r>
       <r>    2.3019    1.0000 </r>
       <r>    3.0391    1.0000 </r>
       <r>    3.0391    1.0000 </r>
       <r>    5.5509    1.0000 </r>
       <r>    6.4557    1.0000 </r>
       <r>    6.5344    1.0000 </r>
       <r>    6.5615    1.0000 </r>
       <r>    7.1644    1.0000 </r>
       <r>    7.2509    1.0000 </r>
       <r>   15.2805    0.0000 </r>
       <r>   15.5130    0.0000 </r>
       <r>   20.5424    0.0000 </r>
       <r>   20.9097    0.0000 </r>
       <r>   20.9097    0.0000 </r>
       <r>   21.4113    0.0000 </r>
       <r>   21.4113    0.0000 </r>
       <r>   21.6426    0.0000 </r>
      </set>
      <set comment="kpoint 8">
       <r>   -8.5529    1.0000 </r>
       <r>   -7.9257    1.0000 </r>
       <r>   -1.5548    1.0000 </r>
       <r>   -1.5548    1.0000 </r>
       <r>   -0.7067    1.0000 </r>
       <r>   -0.7067    1.0000 </r>
       <r>    2.3154    1.0000 </r>
       <r>    2.3154    1.0000 </r>
       <r>    3.0106    1.0000 </r>
       <r>    3.0106    1.0000 </r>
       <r>    5.6078    1.0000 </r>
       <r>    6.4380    1.0000 </r>
       <r>    6.4387    1.0000 </r>
       <r>    6.5783    1.0000 </r>
       <r>    7.1456    1.0000 </r>
       <r>    7.3159    1.0000 </r>
       <r>   15.3308    0.0000 </r>
       <r>   15.4547    0.0000 </r>
       <r>   20.5864    0.0000 </r>
       <r>   20.5940    0.0000 </r>
       <r>   20.5940    0.0000 </r>
       <r>   21.5248    0.0000 </r>
       <r>   21.7511    0.0000 </r>
       <r>   21.7515    0.0000 </r>
      </set>
      <set comment="kpoint 9">
       <r>   -9.1077    1.0000 </r>
       <r>   -7.1997    1.0000 </r>
       <r>   -1.7037    1.0000 </r>
       <r>   -1.7037    1.0000 </r>
       <r>   -0.7256    1.0000 </r>
       <r>   -0.7256    1.0000 </r>
       <r>    2.5023    1.0000 </r>
       <r>    2.5023    1.0000 </r>
       <r>    3.1868    1.0000 </r>
       <r>    3.1868    1.0000 </r>
       <r>    4.5987    1.0000 </r>
       <r>    5.7971    1.0000 </r>
       <r>    6.0623    1.0000 </r>
       <r>    7.2379    1.0000 </r>
       <r>    7.7897    1.0000 </r>
       <r>    8.1671    1.0000 </r>
       <r>   15.1916    0.0000 </r>
       <r>   15.6568    0.0000 </r>
       <r>   19.4058    0.0000 </r>
       <r>   19.4058    0.0000 </r>
       <r>   19.5042    0.0000 </r>
       <r>   20.5914    0.0000 </r>
       <r>   20.7924    0.0000 </r>
       <r>   20.8239    0.0000 </r>
      </set>
      <set comment="kpoint 10">
       <r>   -9.5727    1.0000 </r>
       <r>   -6.3916    1.0000 </r>
       <r>   -1.9008    1.0000 </r>
       <r>   -1.9008    1.0000 </r>
       <r>   -0.8216    1.0000 </r>
       <r>   -0.8216    1.0000 </r>
       <r>    2.8485    1.0000 </r>
       <r>    2.8485    1.0000 </r>
       <r>    3.4761    1.0000 </r>
       <r>    3.5026    1.0000 </r>
       <r>    3.5026    1.0000 </r>
       <r>    5.3046    1.0000 </r>
       <r>    5.6236    1.0000 </r>
       <r>    8.0113    1.0000 </r>
       <r>    8.4779    1.0000 </r>
       <r>    8.9893    1.0000 </r>
       <r>   15.1076    0.0000 </r>
       <r>   15.8691    0.0000 </r>
       <r>   18.2004    0.0000 </r>
       <r>   18.2004    0.0000 </r>
       <r>   18.5261    0.0000 </r>
       <r>   19.5251    0.0000 </r>
       <r>   19.5905    0.0000 </r>
       <r>   19.5905    0.0000 </r>
      </set>
      <set comment="kpoint 11">
       <r>   -9.9465    1.0000 </r>
       <r>   -5.5053    1.0000 </r>
       <r>   -2.0960    1.0000 </r>
       <r>   -2.0960    1.0000 </r>
       <r>   -0.9602    1.0000 </r>
       <r>   -0.9602    1.0000 </r>
       <r>    2.2987    1.0000 </r>
       <r>    3.3032    1.0000 </r>
       <r>    3.3032    1.0000 </r>
       <r>    3.8742    1.0000 </r>
       <r>    3.8742    1.0000 </r>
       <r>    4.9254    1.0000 </r>
       <r>    5.2673    1.0000 </r>
       <r>    8.7764    1.0000 </r>
       <r>    9.1846    1.0000 </r>
       <r>    9.7145    1.0000 </r>
       <r>   15.0895    0.0000 </r>
       <r>   16.0689    0.0000 </r>
       <r>   17.1168    0.0000 </r>
       <r>   17.1168    0.0000 </r>
       <r>   17.6755    0.0000 </r>
       <r>   18.4039    0.0000 </r>
       <r>   18.4039    0.0000 </r>
       <r>   18.5160    0.0000 </r>
      </set>
      <set comment="kpoint 12">
       <r>  -10.2279    1.0000 </r>
       <r>   -4.5461    1.0000 </r>
       <r>   -2.2582    1.0000 </r>
       <r>   -2.2582    1.0000 </r>
       <r>   -1.1002    1.0000 </r>
       <r>   -1.1002    1.0000 </r>
       <r>    1.1011    1.0000 </r>
       <r>    3.7950    1.0000 </r>
       <r>    3.7950    1.0000 </r>
       <r>    4.2192    1.0000 </r>
       <r>    4.2192    1.0000 </r>
       <r>    4.6466    1.0000 </r>
       <r>    4.9969    1.0000 </r>
       <r>    9.5101    1.0000 </r>
       <r>    9.8658    1.0000 </r>
       <r>   10.2903    1.0000 </r>
       <r>   15.1469    0.0000 </r>
       <r>   16.2265    0.0000 </r>
       <r>   16.2383    0.0000 </r>
       <r>   16.2383    0.0000 </r>
       <r>   16.9585    0.0000 </r>
       <r>   17.3639    0.0000 </r>
       <r>   17.3639    0.0000 </r>
       <r>   17.6298    0.0000 </r>
      </set>
      <set comment="kpoint 13">
       <r>  -10.4163    1.0000 </r>
       <r>   -3.5205    1.0000 </r>
       <r>   -2.3696    1.0000 </r>
       <r>   -2.3696    1.0000 </r>
       <r>   -1.2128    1.0000 </r>
       <r>   -1.2128    1.0000 </r>
       <r>   -0.0930    1.0000 </r>
       <r>    4.2462    1.0000 </r>
       <r>    4.2462    1.0000 </r>
       <r>    4.4574    1.0000 </r>
       <r>    4.4574    1.0000 </r>
       <r>    4.4642    1.0000 </r>
       <r>    4.8151    1.0000 </r>
       <r>   10.1535    1.0000 </r>
       <r>   10.4444    1.0000 </r>
       <r>   10.6605    1.0000 </r>
       <r>   15.2871    0.0000 </r>
       <r>   15.6426    0.0000 </r>
       <r>   15.6426    0.0000 </r>
       <r>   16.2885    0.0000 </r>
       <r>   16.3742    0.0000 </r>
       <r>   16.5498    0.0000 </r>
       <r>   16.5498    0.0000 </r>
       <r>   16.9863    0.0000 </r>
      </set>
      <set comment="kpoint 14">
       <r>  -10.5111    1.0000 </r>
       <r>   -2.4381    1.0000 </r>
       <r>   -2.4205    1.0000 </r>
       <r>   -2.4205    1.0000 </r>
       <r>   -1.2814    1.0000 </r>
       <r>   -1.2814    1.0000 </r>
       <r>   -1.2641    1.0000 </r>
       <r>    4.3773    1.0000 </r>
       <r>    4.5223    1.0000 </r>
       <r>    4.5223    1.0000 </r>
       <r>    4.5775    1.0000 </r>
       <r>    4.5775    1.0000 </r>
       <r>    4.7230    1.0000 </r>
       <r>   10.6114    1.0000 </r>
       <r>   10.7651    1.0000 </r>
       <r>   10.7975    1.0000 </r>
       <r>   15.3922    0.0000 </r>
       <r>   15.3922    0.0000 </r>
       <r>   15.5044    0.0000 </r>
       <r>   15.9304    0.0000 </r>
       <r>   16.0435    0.0000 </r>
       <r>   16.0435    0.0000 </r>
       <r>   16.2290    0.0000 </r>
       <r>   16.6649    0.0000 </r>
      </set>
      <set comment="kpoint 15">
       <r>  -10.3276    1.0000 </r>
       <r>   -3.4062    1.0000 </r>
       <r>   -3.4062    1.0000 </r>
       <r>   -2.2629    1.0000 </r>
       <r>   -1.2343    1.0000 </r>
       <r>   -0.1238    1.0000 </r>
       <r>   -0.1238    1.0000 </r>
       <r>    3.5662    1.0000 </r>
       <r>    4.1929    1.0000 </r>
       <r>    4.1929    1.0000 </r>
       <r>    4.7452    1.0000 </r>
       <r>    4.7452    1.0000 </r>
       <r>    4.8735    1.0000 </r>
       <r>    9.5062    1.0000 </r>
       <r>   10.1874    1.0000 </r>
       <r>   10.6963    1.0000 </r>
       <r>   15.6707    0.0000 </r>
       <r>   15.6707    0.0000 </r>
       <r>   15.9530    0.0000 </r>
       <r>   16.6950    0.0000 </r>
       <r>   16.6950    0.0000 </r>
       <r>   16.8345    0.0000 </r>
       <r>   16.8649    0.0000 </r>
       <r>   16.9912    0.0000 </r>
      </set>
      <set comment="kpoint 16">
       <r>  -10.1425    1.0000 </r>
       <r>   -4.4298    1.0000 </r>
       <r>   -3.2493    1.0000 </r>
       <r>   -2.1496    1.0000 </r>
       <r>   -1.1607    1.0000 </r>
       <r>   -0.0973    1.0000 </r>
       <r>    1.0261    1.0000 </r>
       <r>    3.0260    1.0000 </r>
       <r>    3.7858    1.0000 </r>
       <r>    4.4207    1.0000 </r>
       <r>    4.5070    1.0000 </r>
       <r>    4.8811    1.0000 </r>
       <r>    4.9325    1.0000 </r>
       <r>    8.8106    1.0000 </r>
       <r>    9.6364    1.0000 </r>
       <r>   10.4794    1.0000 </r>
       <r>   15.5175    0.0000 </r>
       <r>   16.2689    0.0000 </r>
       <r>   16.3714    0.0000 </r>
       <r>   16.7450    0.0000 </r>
       <r>   17.2616    0.0000 </r>
       <r>   17.3772    0.0000 </r>
       <r>   17.6916    0.0000 </r>
       <r>   17.8187    0.0000 </r>
      </set>
      <set comment="kpoint 17">
       <r>   -9.8644    1.0000 </r>
       <r>   -5.3887    1.0000 </r>
       <r>   -3.0283    1.0000 </r>
       <r>   -2.0149    1.0000 </r>
       <r>   -1.0508    1.0000 </r>
       <r>   -0.0769    1.0000 </r>
       <r>    2.1540    1.0000 </r>
       <r>    2.5318    1.0000 </r>
       <r>    3.3404    1.0000 </r>
       <r>    4.1742    1.0000 </r>
       <r>    4.7051    1.0000 </r>
       <r>    4.7594    1.0000 </r>
       <r>    5.2200    1.0000 </r>
       <r>    8.0643    1.0000 </r>
       <r>    8.9711    1.0000 </r>
       <r>   10.0156    1.0000 </r>
       <r>   15.4486    0.0000 </r>
       <r>   16.5634    0.0000 </r>
       <r>   16.9255    0.0000 </r>
       <r>   17.3219    0.0000 </r>
       <r>   17.9567    0.0000 </r>
       <r>   18.3180    0.0000 </r>
       <r>   18.6068    0.0000 </r>
       <r>   18.7155    0.0000 </r>
      </set>
      <set comment="kpoint 18">
       <r>   -9.4942    1.0000 </r>
       <r>   -6.2757    1.0000 </r>
       <r>   -2.7550    1.0000 </r>
       <r>   -1.9104    1.0000 </r>
       <r>   -0.9044    1.0000 </r>
       <r>   -0.0975    1.0000 </r>
       <r>    2.1620    1.0000 </r>
       <r>    2.9148    1.0000 </r>
       <r>    3.2215    1.0000 </r>
       <r>    3.8465    1.0000 </r>
       <r>    4.4124    1.0000 </r>
       <r>    5.2081    1.0000 </r>
       <r>    5.6229    1.0000 </r>
       <r>    7.3093    1.0000 </r>
       <r>    8.2706    1.0000 </r>
       <r>    9.3601    1.0000 </r>
       <r>   15.4548    0.0000 </r>
       <r>   16.3520    0.0000 </r>
       <r>   17.8541    0.0000 </r>
       <r>   18.4560    0.0000 </r>
       <r>   18.7835    0.0000 </r>
       <r>   19.4190    0.0000 </r>
       <r>   19.5930    0.0000 </r>
       <r>   19.6661    0.0000 </r>
      </set>
      <set comment="kpoint 19">
       <r>   -9.0330    1.0000 </r>
       <r>   -7.0851    1.0000 </r>
       <r>   -2.4512    1.0000 </r>
       <r>   -1.9088    1.0000 </r>
       <r>   -0.7075    1.0000 </r>
       <r>   -0.1905    1.0000 </r>
       <r>    1.9797    1.0000 </r>
       <r>    2.5381    1.0000 </r>
       <r>    3.6282    1.0000 </r>
       <r>    4.0803    1.0000 </r>
       <r>    4.1907    1.0000 </r>
       <r>    5.7404    1.0000 </r>
       <r>    6.1793    1.0000 </r>
       <r>    6.5665    1.0000 </r>
       <r>    7.5773    1.0000 </r>
       <r>    8.5730    1.0000 </r>
       <r>   15.5262    0.0000 </r>
       <r>   16.1325    0.0000 </r>
       <r>   18.9622    0.0000 </r>
       <r>   19.6980    0.0000 </r>
       <r>   19.7369    0.0000 </r>
       <r>   20.5254    0.0000 </r>
       <r>   20.5884    0.0000 </r>
       <r>   20.7313    0.0000 </r>
      </set>
      <set comment="kpoint 20">
       <r>   -8.4822    1.0000 </r>
       <r>   -7.8128    1.0000 </r>
       <r>   -2.1552    1.0000 </r>
       <r>   -2.0473    1.0000 </r>
       <r>   -0.4612    1.0000 </r>
       <r>   -0.3544    1.0000 </r>
       <r>    2.0056    1.0000 </r>
       <r>    2.2270    1.0000 </r>
       <r>    3.5894    1.0000 </r>
       <r>    3.7840    1.0000 </r>
       <r>    5.0524    1.0000 </r>
       <r>    5.8363    1.0000 </r>
       <r>    6.3126    1.0000 </r>
       <r>    6.9096    1.0000 </r>
       <r>    6.9109    1.0000 </r>
       <r>    7.7170    1.0000 </r>
       <r>   15.6517    0.0000 </r>
       <r>   15.9233    0.0000 </r>
       <r>   20.1142    0.0000 </r>
       <r>   20.6455    0.0000 </r>
       <r>   20.7909    0.0000 </r>
       <r>   21.1917    0.0000 </r>
       <r>   21.5963    0.0000 </r>
       <r>   21.8062    0.0000 </r>
      </set>
      <set comment="kpoint 21">
       <r>   -8.4555    1.0000 </r>
       <r>   -7.8439    1.0000 </r>
       <r>   -2.2920    1.0000 </r>
       <r>   -1.9302    1.0000 </r>
       <r>   -0.5438    1.0000 </r>
       <r>   -0.2097    1.0000 </r>
       <r>    2.0259    1.0000 </r>
       <r>    2.2079    1.0000 </r>
       <r>    3.5955    1.0000 </r>
       <r>    3.7245    1.0000 </r>
       <r>    5.0923    1.0000 </r>
       <r>    5.8454    1.0000 </r>
       <r>    6.2711    1.0000 </r>
       <r>    6.8769    1.0000 </r>
       <r>    6.9208    1.0000 </r>
       <r>    7.7441    1.0000 </r>
       <r>   15.7414    0.0000 </r>
       <r>   15.8187    0.0000 </r>
       <r>   19.7714    0.0000 </r>
       <r>   20.5371    0.0000 </r>
       <r>   20.8759    0.0000 </r>
       <r>   21.4039    0.0000 </r>
       <r>   21.4355    0.0000 </r>
       <r>   21.7742    0.0000 </r>
      </set>
      <set comment="kpoint 22">
       <r>   -9.0105    1.0000 </r>
       <r>   -7.1207    1.0000 </r>
       <r>   -2.5815    1.0000 </r>
       <r>   -1.8470    1.0000 </r>
       <r>   -0.7037    1.0000 </r>
       <r>   -0.0177    1.0000 </r>
       <r>    2.0051    1.0000 </r>
       <r>    2.5350    1.0000 </r>
       <r>    3.5749    1.0000 </r>
       <r>    3.9759    1.0000 </r>
       <r>    4.2733    1.0000 </r>
       <r>    5.6500    1.0000 </r>
       <r>    6.1656    1.0000 </r>
       <r>    6.6167    1.0000 </r>
       <r>    7.5714    1.0000 </r>
       <r>    8.5857    1.0000 </r>
       <r>   15.6009    0.0000 </r>
       <r>   16.0116    0.0000 </r>
       <r>   18.5875    0.0000 </r>
       <r>   19.4123    0.0000 </r>
       <r>   19.8148    0.0000 </r>
       <r>   20.4153    0.0000 </r>
       <r>   20.7346    0.0000 </r>
       <r>   20.9228    0.0000 </r>
      </set>
      <set comment="kpoint 23">
       <r>   -9.4759    1.0000 </r>
       <r>   -6.3159    1.0000 </r>
       <r>   -2.8671    1.0000 </r>
       <r>   -1.9112    1.0000 </r>
       <r>   -0.8310    1.0000 </r>
       <r>    0.0712    1.0000 </r>
       <r>    2.2092    1.0000 </r>
       <r>    2.9475    1.0000 </r>
       <r>    3.3224    1.0000 </r>
       <r>    3.7356    1.0000 </r>
       <r>    4.2715    1.0000 </r>
       <r>    5.0920    1.0000 </r>
       <r>    5.6310    1.0000 </r>
       <r>    7.3903    1.0000 </r>
       <r>    8.2563    1.0000 </r>
       <r>    9.3594    1.0000 </r>
       <r>   15.5144    0.0000 </r>
[...]
       <r>   -4.8502    1.0000 </r>
       <r>   -4.5807    1.0000 </r>
       <r>   -2.2119    1.0000 </r>
       <r>   -2.2022    1.0000 </r>
       <r>   -1.4473    1.0000 </r>
       <r>   -0.9153    1.0000 </r>
       <r>    7.1002    1.0000 </r>
       <r>    7.2929    1.0000 </r>
       <r>    7.6625    1.0000 </r>
       <r>    7.6765    1.0000 </r>
       <r>    7.7275    1.0000 </r>
       <r>    7.8087    1.0000 </r>
       <r>    7.9812    1.0000 </r>
       <r>    8.1060    1.0000 </r>
       <r>   18.8179    0.0000 </r>
       <r>   18.9429    0.0000 </r>
       <r>   18.9958    0.0000 </r>
       <r>   19.1250    0.0000 </r>
       <r>   19.4384    0.0000 </r>
       <r>   19.5283    0.0000 </r>
       <r>   19.6962    0.0000 </r>
       <r>   19.7533    0.0000 </r>
      </set>
      <set comment="kpoint 278">
       <r>   -5.4492    1.0000 </r>
       <r>   -4.9675    1.0000 </r>
       <r>   -4.9675    1.0000 </r>
       <r>   -4.9347    1.0000 </r>
       <r>   -2.2888    1.0000 </r>
       <r>   -2.0004    1.0000 </r>
       <r>   -2.0004    1.0000 </r>
       <r>   -1.5287    1.0000 </r>
       <r>    7.5891    1.0000 </r>
       <r>    7.5891    1.0000 </r>
       <r>    7.6131    1.0000 </r>
       <r>    7.8616    1.0000 </r>
       <r>    7.9259    1.0000 </r>
       <r>    7.9259    1.0000 </r>
       <r>    8.0251    1.0000 </r>
       <r>    8.1027    1.0000 </r>
       <r>   19.0987    0.0000 </r>
       <r>   19.0987    0.0000 </r>
       <r>   19.1445    0.0000 </r>
       <r>   19.2286    0.0000 </r>
       <r>   19.3374    0.0000 </r>
       <r>   19.3374    0.0000 </r>
       <r>   19.4166    0.0000 </r>
       <r>   19.6310    0.0000 </r>
      </set>
      <set comment="kpoint 279">
       <r>   -5.2885    1.0000 </r>
       <r>   -4.7460    1.0000 </r>
       <r>   -4.7460    1.0000 </r>
       <r>   -4.7460    1.0000 </r>
       <r>   -2.3894    1.0000 </r>
       <r>   -2.3894    1.0000 </r>
       <r>   -2.3894    1.0000 </r>
       <r>   -2.1133    1.0000 </r>
       <r>    7.9115    1.0000 </r>
       <r>    7.9115    1.0000 </r>
       <r>    7.9115    1.0000 </r>
       <r>    7.9471    1.0000 </r>
       <r>    7.9471    1.0000 </r>
       <r>    7.9471    1.0000 </r>
       <r>    8.2256    1.0000 </r>
       <r>    8.2256    1.0000 </r>
       <r>   19.0574    0.0000 </r>
       <r>   19.0574    0.0000 </r>
       <r>   19.0574    0.0000 </r>
       <r>   19.3793    0.0000 </r>
       <r>   19.3793    0.0000 </r>
       <r>   19.5278    0.0000 </r>
       <r>   19.5278    0.0000 </r>
       <r>   19.5278    0.0000 </r>
      </set>
      <set comment="kpoint 280">
       <r>   -5.0530    1.0000 </r>
       <r>   -5.0190    1.0000 </r>
       <r>   -4.7490    1.0000 </r>
       <r>   -4.7490    1.0000 </r>
       <r>   -2.3842    1.0000 </r>
       <r>   -2.3842    1.0000 </r>
       <r>   -2.3766    1.0000 </r>
       <r>   -2.0854    1.0000 </r>
       <r>    7.8900    1.0000 </r>
       <r>    7.8900    1.0000 </r>
       <r>    7.9639    1.0000 </r>
       <r>    7.9639    1.0000 </r>
       <r>    8.0332    1.0000 </r>
       <r>    8.0593    1.0000 </r>
       <r>    8.0760    1.0000 </r>
       <r>    8.1358    1.0000 </r>
       <r>   19.0340    0.0000 </r>
       <r>   19.0639    0.0000 </r>
       <r>   19.0639    0.0000 </r>
       <r>   19.3282    0.0000 </r>
       <r>   19.4103    0.0000 </r>
       <r>   19.4216    0.0000 </r>
       <r>   19.4216    0.0000 </r>
       <r>   19.5045    0.0000 </r>
      </set>
     </set>
    </set>
   </array>
  </eigenvalues>
  <separator name="orbital magnetization" >
   <v name="MAGDIPOLOUT">      0.00000000      0.00000000      0.00000000</v>
  </separator>
  <dos>
   <i name="efermi">     11.01674272 </i>
   <total>
    <array>
     <dimension dim="1">gridpoints</dimension>
     <dimension dim="2">spin</dimension>
     <field>energy</field>
     <field>total</field>
     <field>integrated</field>
     <set>
      <set comment="spin 1">
       <r>   -12.1761     0.0000     0.0000 </r>
       <r>   -12.0541     0.0000     0.0000 </r>
       <r>   -11.9321     0.0000     0.0000 </r>
       <r>   -11.8100     0.0000     0.0000 </r>
       <r>   -11.6880     0.0000     0.0000 </r>
       <r>   -11.5660     0.0000     0.0000 </r>
       <r>   -11.4439     0.0000     0.0000 </r>
       <r>   -11.3219     0.0000     0.0000 </r>
       <r>   -11.1999     0.0000     0.0000 </r>
       <r>   -11.0779     0.0000     0.0000 </r>
       <r>   -10.9558     0.0000     0.0000 </r>
       <r>   -10.8338     0.0000     0.0000 </r>
       <r>   -10.7118     0.0000     0.0000 </r>
       <r>   -10.5898     0.0006     0.0001 </r>
       <r>   -10.4677     0.0531     0.0066 </r>
       <r>   -10.3457     0.1730     0.0277 </r>
       <r>   -10.2237     0.2190     0.0544 </r>
       <r>   -10.1016     0.3274     0.0943 </r>
       <r>    -9.9796     0.2353     0.1231 </r>
       <r>    -9.8576     0.4436     0.1772 </r>
       <r>    -9.7356     0.3447     0.2192 </r>
       <r>    -9.6135     0.4032     0.2684 </r>
       <r>    -9.4915     0.4990     0.3293 </r>
       <r>    -9.3695     0.4932     0.3895 </r>
       <r>    -9.2475     0.5402     0.4554 </r>
       <r>    -9.1254     0.3877     0.5027 </r>
       <r>    -9.0034     0.6835     0.5861 </r>
       <r>    -8.8814     0.6414     0.6644 </r>
       <r>    -8.7593     0.5404     0.7304 </r>
       <r>    -8.6373     0.4859     0.7896 </r>
       <r>    -8.5153     0.7528     0.8815 </r>
       <r>    -8.3933     0.7963     0.9787 </r>
       <r>    -8.2712     0.5895     1.0506 </r>
       <r>    -8.1492     0.7614     1.1435 </r>
       <r>    -8.0272     0.6399     1.2216 </r>
       <r>    -7.9051     0.8278     1.3226 </r>
       <r>    -7.7831     0.6252     1.3989 </r>
       <r>    -7.6611     0.9408     1.5137 </r>
       <r>    -7.5391     1.0158     1.6377 </r>
       <r>    -7.4170     0.5813     1.7086 </r>
       <r>    -7.2950     0.7825     1.8041 </r>
       <r>    -7.1730     0.7886     1.9003 </r>
       <r>    -7.0510     1.1838     2.0448 </r>
       <r>    -6.9289     0.8927     2.1537 </r>
       <r>    -6.8069     0.9360     2.2679 </r>
       <r>    -6.6849     0.7641     2.3611 </r>
       <r>    -6.5628     1.0757     2.4924 </r>
       <r>    -6.4408     0.8793     2.5997 </r>
       <r>    -6.3188     1.0358     2.7261 </r>
       <r>    -6.1968     1.0506     2.8543 </r>
       <r>    -6.0747     1.1242     2.9915 </r>
       <r>    -5.9527     1.0579     3.1206 </r>
       <r>    -5.8307     1.1706     3.2634 </r>
       <r>    -5.7087     1.2480     3.4157 </r>
       <r>    -5.5866     0.6648     3.4968 </r>
       <r>    -5.4646     1.1419     3.6362 </r>
       <r>    -5.3426     1.5300     3.8229 </r>
       <r>    -5.2205     1.3920     3.9927 </r>
       <r>    -5.0985     1.1602     4.1343 </r>
       <r>    -4.9765     1.4177     4.3073 </r>
       <r>    -4.8545     1.2870     4.4644 </r>
       <r>    -4.7324     1.2373     4.6153 </r>
       <r>    -4.6104     1.7066     4.8236 </r>
       <r>    -4.4884     1.4784     5.0040 </r>
       <r>    -4.3664     1.4522     5.1812 </r>
       <r>    -4.2443     1.4851     5.3624 </r>
       <r>    -4.1223     1.4373     5.5378 </r>
       <r>    -4.0003     1.5094     5.7220 </r>
       <r>    -3.8782     1.3503     5.8868 </r>
       <r>    -3.7562     0.9649     6.0045 </r>
       <r>    -3.6342     1.1987     6.1508 </r>
       <r>    -3.5122     0.9416     6.2657 </r>
       <r>    -3.3901     1.5987     6.4608 </r>
       <r>    -3.2681     1.3866     6.6300 </r>
       <r>    -3.1461     0.7753     6.7246 </r>
       <r>    -3.0240     1.1084     6.8599 </r>
       <r>    -2.9020     1.1860     7.0046 </r>
       <r>    -2.7800     0.9496     7.1205 </r>
       <r>    -2.6580     0.9938     7.2417 </r>
       <r>    -2.5359     0.6113     7.3163 </r>
       <r>    -2.4139     0.6298     7.3932 </r>
       <r>    -2.2919     1.1675     7.5356 </r>
       <r>    -2.1699     1.2530     7.6885 </r>
       <r>    -2.0478     1.2830     7.8451 </r>
       <r>    -1.9258     1.3781     8.0133 </r>
       <r>    -1.8038     1.0753     8.1445 </r>
       <r>    -1.6817     0.7391     8.2347 </r>
       <r>    -1.5597     0.8009     8.3324 </r>
       <r>    -1.4377     1.0823     8.4645 </r>
       <r>    -1.3157     0.8308     8.5659 </r>
       <r>    -1.1936     1.0711     8.6966 </r>
       <r>    -1.0716     1.8648     8.9241 </r>
       <r>    -0.9496     1.6451     9.1249 </r>
       <r>    -0.8276     1.8195     9.3469 </r>
       <r>    -0.7055     2.3094     9.6287 </r>
       <r>    -0.5835     2.2424     9.9023 </r>
       <r>    -0.4615     2.1577    10.1656 </r>
       <r>    -0.3394     1.4439    10.3418 </r>
       <r>    -0.2174     2.1217    10.6007 </r>
       <r>    -0.0954     2.4447    10.8991 </r>
       <r>     0.0266     2.2552    11.1743 </r>
       <r>     0.1487     1.7255    11.3848 </r>
       <r>     0.2707     1.2690    11.5397 </r>
       <r>     0.3927     0.8472    11.6431 </r>
       <r>     0.5148     1.2790    11.7991 </r>
       <r>     0.6368     1.3571    11.9647 </r>
       <r>     0.7588     1.0293    12.0903 </r>
       <r>     0.8808     1.2323    12.2407 </r>
       <r>     1.0029     1.4697    12.4201 </r>
       <r>     1.1249     1.5074    12.6040 </r>
       <r>     1.2469     0.8119    12.7031 </r>
       <r>     1.3689     0.9159    12.8148 </r>
       <r>     1.4910     1.2732    12.9702 </r>
       <r>     1.6130     1.0335    13.0963 </r>
       <r>     1.7350     1.3328    13.2590 </r>
       <r>     1.8571     1.3336    13.4217 </r>
       <r>     1.9791     1.8323    13.6453 </r>
       <r>     2.1011     1.9700    13.8857 </r>
       <r>     2.2231     1.9079    14.1185 </r>
       <r>     2.3452     2.3392    14.4040 </r>
       <r>     2.4672     2.1913    14.6714 </r>
       <r>     2.5892     2.4247    14.9672 </r>
       <r>     2.7112     1.7601    15.1820 </r>
       <r>     2.8333     1.5997    15.3772 </r>
       <r>     2.9553     1.4319    15.5520 </r>
       <r>     3.0773     2.3387    15.8373 </r>
       <r>     3.1994     3.0761    16.2127 </r>
       <r>     3.3214     2.4537    16.5121 </r>
       <r>     3.4434     1.4189    16.6853 </r>
       <r>     3.5654     1.7466    16.8984 </r>
       <r>     3.6875     2.3510    17.1853 </r>
       <r>     3.8095     2.4970    17.4900 </r>
       <r>     3.9315     2.5642    17.8029 </r>
       <r>     4.0535     2.4187    18.0980 </r>
       <r>     4.1756     2.1609    18.3617 </r>
       <r>     4.2976     2.2294    18.6338 </r>
       <r>     4.4196     2.9967    18.9995 </r>
       <r>     4.5417     3.3705    19.4108 </r>
       <r>     4.6637     3.0630    19.7845 </r>
       <r>     4.7857     2.9131    20.1400 </r>
       <r>     4.9077     2.7092    20.4706 </r>
       <r>     5.0298     3.0235    20.8396 </r>
       <r>     5.1518     2.9909    21.2045 </r>
       <r>     5.2738     4.2000    21.7170 </r>
       <r>     5.3959     3.5283    22.1476 </r>
       <r>     5.5179     2.0517    22.3979 </r>
       <r>     5.6399     2.2358    22.6708 </r>
       <r>     5.7619     3.1576    23.0561 </r>
       <r>     5.8840     3.6892    23.5063 </r>
       <r>     6.0060     3.2067    23.8976 </r>
       <r>     6.1280     2.4451    24.1959 </r>
       <r>     6.2500     2.6566    24.5201 </r>
       <r>     6.3721     2.9862    24.8845 </r>
       <r>     6.4941     2.7455    25.2196 </r>
       <r>     6.6161     2.9128    25.5750 </r>
       <r>     6.7382     2.8679    25.9250 </r>
       <r>     6.8602     2.4839    26.2281 </r>
       <r>     6.9822     2.3509    26.5149 </r>
       <r>     7.1042     3.3106    26.9189 </r>
       <r>     7.2263     2.9168    27.2749 </r>
       <r>     7.3483     2.3907    27.5666 </r>
       <r>     7.4703     2.2788    27.8447 </r>
       <r>     7.5923     2.3336    28.1294 </r>
       <r>     7.7144     2.5378    28.4391 </r>
       <r>     7.8364     3.6765    28.8877 </r>
       <r>     7.9584     2.3759    29.1777 </r>
       <r>     8.0805     1.4601    29.3558 </r>
       <r>     8.2025     2.1058    29.6128 </r>
       <r>     8.3245     2.1862    29.8796 </r>
       <r>     8.4465     2.0432    30.1289 </r>
       <r>     8.5686     1.9027    30.3611 </r>
       <r>     8.6906     0.8956    30.4704 </r>
       <r>     8.8126     0.9079    30.5812 </r>
       <r>     8.9346     1.5357    30.7685 </r>
       <r>     9.0567     1.4668    30.9475 </r>
       <r>     9.1787     1.2179    31.0962 </r>
       <r>     9.3007     0.6674    31.1776 </r>
       <r>     9.4228     0.7313    31.2669 </r>
       <r>     9.5448     0.8072    31.3653 </r>
       <r>     9.6668     1.1296    31.5032 </r>
       <r>     9.7888     0.7358    31.5930 </r>
       <r>     9.9109     0.4221    31.6445 </r>
       <r>    10.0329     0.6216    31.7203 </r>
       <r>    10.1549     0.5042    31.7819 </r>
       <r>    10.2770     0.5183    31.8451 </r>
       <r>    10.3990     0.3253    31.8848 </r>
       <r>    10.5210     0.4962    31.9454 </r>
       <r>    10.6430     0.1177    31.9597 </r>
       <r>    10.7651     0.2600    31.9915 </r>
       <r>    10.8871     0.0696    31.9999 </r>
       <r>    11.0091     0.0004    32.0000 </r>
       <r>    11.1311     0.0000    32.0000 </r>
       <r>    11.2532     0.0000    32.0000 </r>
       <r>    11.3752     0.0000    32.0000 </r>
       <r>    11.4972     0.0000    32.0000 </r>
       <r>    11.6193     0.0000    32.0000 </r>
       <r>    11.7413     0.0000    32.0000 </r>
       <r>    11.8633     0.0000    32.0000 </r>
       <r>    11.9853     0.0000    32.0000 </r>
       <r>    12.1074     0.0000    32.0000 </r>
       <r>    12.2294     0.0000    32.0000 </r>
       <r>    12.3514     0.0000    32.0000 </r>
       <r>    12.4734     0.0000    32.0000 </r>
       <r>    12.5955     0.0000    32.0000 </r>
       <r>    12.7175     0.0000    32.0000 </r>
       <r>    12.8395     0.0000    32.0000 </r>
       <r>    12.9616     0.0000    32.0000 </r>
       <r>    13.0836     0.0000    32.0000 </r>
       <r>    13.2056     0.0000    32.0000 </r>
       <r>    13.3276     0.0000    32.0000 </r>
       <r>    13.4497     0.0000    32.0000 </r>
       <r>    13.5717     0.0000    32.0000 </r>
       <r>    13.6937     0.0000    32.0000 </r>
       <r>    13.8157     0.0000    32.0000 </r>
       <r>    13.9378     0.0000    32.0000 </r>
       <r>    14.0598     0.0000    32.0000 </r>
       <r>    14.1818     0.0000    32.0000 </r>
       <r>    14.3039     0.0000    32.0000 </r>
       <r>    14.4259     0.0000    32.0000 </r>
       <r>    14.5479     0.0000    32.0000 </r>
       <r>    14.6699     0.0000    32.0000 </r>
       <r>    14.7920     0.0000    32.0000 </r>
       <r>    14.9140     0.0000    32.0000 </r>
       <r>    15.0360     0.0443    32.0054 </r>
       <r>    15.1581     0.4135    32.0559 </r>
       <r>    15.2801     0.2538    32.0868 </r>
       <r>    15.4021     0.2860    32.1217 </r>
       <r>    15.5241     0.9833    32.2417 </r>
       <r>    15.6462     0.9262    32.3548 </r>
       <r>    15.7682     0.7212    32.4428 </r>
       <r>    15.8902     0.6886    32.5268 </r>
       <r>    16.0122     1.0917    32.6600 </r>
       <r>    16.1343     0.9481    32.7757 </r>
       <r>    16.2563     1.8880    33.0061 </r>
       <r>    16.3783     2.0383    33.2548 </r>
       <r>    16.5004     1.3386    33.4181 </r>
       <r>    16.6224     1.5400    33.6061 </r>
       <r>    16.7444     1.4891    33.7878 </r>
       <r>    16.8664     1.6268    33.9863 </r>
       <r>    16.9885     2.0798    34.2401 </r>
       <r>    17.1105     2.2567    34.5155 </r>
       <r>    17.2325     2.2720    34.7927 </r>
       <r>    17.3545     2.0359    35.0412 </r>
       <r>    17.4766     2.2412    35.3147 </r>
       <r>    17.5986     2.1229    35.5737 </r>
       <r>    17.7206     2.4705    35.8752 </r>
       <r>    17.8427     2.0391    36.1240 </r>
       <r>    17.9647     2.7170    36.4556 </r>
       <r>    18.0867     2.3955    36.7479 </r>
       <r>    18.2087     2.5746    37.0620 </r>
       <r>    18.3308     2.7366    37.3960 </r>
       <r>    18.4528     3.3688    37.8071 </r>
       <r>    18.5748     3.7573    38.2656 </r>
       <r>    18.6968     3.3187    38.6705 </r>
       <r>    18.8189     3.3981    39.0852 </r>
       <r>    18.9409     3.4793    39.5098 </r>
       <r>    19.0629     3.8723    39.9823 </r>
       <r>    19.1850     3.9697    40.4667 </r>
       <r>    19.3070     2.8468    40.8141 </r>
       <r>    19.4290     4.2904    41.3376 </r>
       <r>    19.5510     5.2077    41.9731 </r>
       <r>    19.6731     4.7286    42.5501 </r>
       <r>    19.7951     3.1679    42.9367 </r>
       <r>    19.9171     3.6133    43.3776 </r>
       <r>    20.0392     2.4484    43.6764 </r>
       <r>    20.1612     2.4831    43.9794 </r>
       <r>    20.2832     2.6280    44.3001 </r>
       <r>    20.4052     2.9301    44.6576 </r>
       <r>    20.5273     3.0532    45.0302 </r>
       <r>    20.6493     3.3834    45.4431 </r>
       <r>    20.7713     3.0298    45.8128 </r>
       <r>    20.8933     2.5704    46.1264 </r>
       <r>    21.0154     2.4870    46.4299 </r>
       <r>    21.1374     2.0901    46.6850 </r>
       <r>    21.2594     1.7860    46.9029 </r>
       <r>    21.3815     1.6927    47.1095 </r>
       <r>    21.5035     1.7428    47.3221 </r>
       <r>    21.6255     1.4336    47.4971 </r>
       <r>    21.7475     1.1982    47.6433 </r>
       <r>    21.8696     1.4046    47.8147 </r>
       <r>    21.9916     0.5985    47.8877 </r>
       <r>    22.1136     0.3735    47.9333 </r>
       <r>    22.2356     0.1537    47.9521 </r>
       <r>    22.3577     0.0925    47.9633 </r>
       <r>    22.4797     0.0874    47.9740 </r>
       <r>    22.6017     0.0562    47.9809 </r>
       <r>    22.7238     0.0721    47.9897 </r>
       <r>    22.8458     0.0841    47.9999 </r>
       <r>    22.9678     0.0007    48.0000 </r>
       <r>    23.0898     0.0000    48.0000 </r>
       <r>    23.2119     0.0000    48.0000 </r>
       <r>    23.3339     0.0000    48.0000 </r>
       <r>    23.4559     0.0000    48.0000 </r>
       <r>    23.5779     0.0000    48.0000 </r>
       <r>    23.7000     0.0000    48.0000 </r>
       <r>    23.8220     0.0000    48.0000 </r>
       <r>    23.9440     0.0000    48.0000 </r>
       <r>    24.0661     0.0000    48.0000 </r>
       <r>    24.1881     0.0000    48.0000 </r>
       <r>    24.3101     0.0000    48.0000 </r>
       <r>    24.4321     0.0000    48.0000 </r>
      </set>
     </set>
    </array>
   </total>
  </dos>
 </calculation>
 <structure name="finalpos" >
  <crystal>
   <varray name="basis" >
    <v>       3.57360507       0.01786803       0.01786803 </v>
    <v>       0.01786803       3.57360507       0.01786803 </v>
    <v>       0.01786803       0.01786803       3.57360507 </v>
   </varray>
   <i name="volume">     45.63385966 </i>
   <varray name="rec_basis" >
    <v>       0.27984339      -0.00139226      -0.00139226 </v>
    <v>      -0.00139226       0.27984339      -0.00139226 </v>
    <v>      -0.00139226      -0.00139226       0.27984339 </v>
   </varray>
  </crystal>
  <varray name="positions" >
   <v>       0.24992798       0.24992798       0.24992798 </v>
   <v>       0.00007202       0.00007202       0.00007202 </v>
   <v>       0.24992798       0.74992798       0.74992798 </v>
   <v>       0.00007202       0.50007202       0.50007202 </v>
   <v>       0.74992798       0.24992798       0.74992798 </v>
   <v>       0.50007202       0.00007202       0.50007202 </v>
   <v>       0.74992798       0.74992798       0.24992798 </v>
   <v>       0.50007202       0.50007202       0.00007202 </v>
  </varray>
 </structure>
</modeling>
