unknown system                          
           1
     3.573605    0.017868    0.017868
     0.017868    3.573605    0.017868
     0.017868    0.017868    3.573605
   C 
   8
Direct configuration=     1
   0.25000000  0.25000000  0.25000000
   0.00000000  0.00000000  0.00000000
   0.25000000  0.75000000  0.75000000
   0.00000000  0.50000000  0.50000000
   0.75000000  0.25000000  0.75000000
   0.50000000  0.00000000  0.50000000
   0.75000000  0.75000000  0.25000000
   0.50000000  0.50000000  0.00000000
Direct configuration=     2
   0.24975572  0.24975572  0.24975572
   0.00024428  0.00024428  0.00024428
   0.24975572  0.74975572  0.74975572
   0.00024428  0.50024428  0.50024428
   0.74975572  0.24975572  0.74975572
   0.50024428  0.00024428  0.50024428
   0.74975572  0.74975572  0.24975572
   0.50024428  0.50024428  0.00024428
Direct configuration=     3
   0.24992798  0.24992798  0.24992798
   0.00007202  0.00007202  0.00007202
   0.24992798  0.74992798  0.74992798
   0.00007202  0.50007202  0.50007202
   0.74992798  0.24992798  0.74992798
   0.50007202  0.00007202  0.50007202
   0.74992798  0.74992798  0.24992798
   0.50007202  0.50007202  0.00007202
