   4   4   0   0
  0.1644620E+02  0.3811646E-09  0.4154382E-09  0.4154382E-09  0.2000000E-15
  1.000000000000000E-004
  CAR 
 unknown system                          
     21.43131500     -1.18501723  301     10.10643463      1.00000000
     -1.185  0.0000E+00  0.0000E+00
     -1.110  0.0000E+00  0.0000E+00
     -1.034  0.0000E+00  0.0000E+00
     -0.959  0.0000E+00  0.0000E+00
     -0.883  0.0000E+00  0.0000E+00
     -0.808  0.0000E+00  0.0000E+00
     -0.733  0.1745E-19  0.1316E-20
     -0.657  0.5979E-16  0.4509E-17
     -0.582  0.7651E-13  0.5772E-14
     -0.507  0.3311E-10  0.2502E-11
     -0.431  0.5017E-08  0.3807E-09
     -0.356  0.2818E-06  0.2162E-07
     -0.280  0.6351E-05  0.5004E-06
     -0.205  0.6269E-04  0.5227E-05
     -0.130  0.2923E-03  0.2726E-04
     -0.054  0.6969E-03  0.7980E-04
      0.021  0.1042E-02  0.1584E-03
      0.097  0.1434E-02  0.2665E-03
      0.172  0.1746E-02  0.3982E-03
      0.247  0.1717E-02  0.5276E-03
      0.323  0.2073E-02  0.6839E-03
      0.398  0.2428E-02  0.8670E-03
      0.474  0.2476E-02  0.1054E-02
      0.549  0.2701E-02  0.1257E-02
      0.624  0.2759E-02  0.1465E-02
      0.700  0.2848E-02  0.1680E-02
      0.775  0.3285E-02  0.1928E-02
      0.850  0.3709E-02  0.2207E-02
      0.926  0.3659E-02  0.2483E-02
      1.001  0.3400E-02  0.2739E-02
      1.077  0.3719E-02  0.3020E-02
      1.152  0.4400E-02  0.3351E-02
      1.227  0.4738E-02  0.3709E-02
      1.303  0.4523E-02  0.4050E-02
      1.378  0.4207E-02  0.4367E-02
      1.454  0.5017E-02  0.4745E-02
      1.529  0.5818E-02  0.5183E-02
      1.604  0.5709E-02  0.5614E-02
      1.680  0.5605E-02  0.6036E-02
      1.755  0.5834E-02  0.6476E-02
      1.830  0.6275E-02  0.6949E-02
      1.906  0.7305E-02  0.7500E-02
      1.981  0.7657E-02  0.8077E-02
      2.057  0.7292E-02  0.8627E-02
      2.132  0.8319E-02  0.9254E-02
      2.207  0.1028E-01  0.1003E-01
      2.283  0.1028E-01  0.1080E-01
      2.358  0.1130E-01  0.1166E-01
      2.434  0.1620E-01  0.1288E-01
      2.509  0.2165E-01  0.1451E-01
      2.584  0.2584E-01  0.1646E-01
      2.660  0.2793E-01  0.1856E-01
      2.735  0.2991E-01  0.2082E-01
      2.811  0.3569E-01  0.2351E-01
      2.886  0.4001E-01  0.2652E-01
      2.961  0.4354E-01  0.2981E-01
      3.037  0.4900E-01  0.3350E-01
      3.112  0.5398E-01  0.3757E-01
      3.187  0.6245E-01  0.4228E-01
      3.263  0.6910E-01  0.4749E-01
      3.338  0.7142E-01  0.5287E-01
      3.414  0.7304E-01  0.5838E-01
      3.489  0.7216E-01  0.6382E-01
      3.564  0.6829E-01  0.6896E-01
      3.640  0.6560E-01  0.7391E-01
      3.715  0.6546E-01  0.7885E-01
      3.791  0.6312E-01  0.8360E-01
      3.866  0.5829E-01  0.8800E-01
      3.941  0.5525E-01  0.9216E-01
      4.017  0.5167E-01  0.9606E-01
      4.092  0.4675E-01  0.9958E-01
      4.168  0.4705E-01  0.1031E+00
      4.243  0.5456E-01  0.1072E+00
      4.318  0.6176E-01  0.1119E+00
      4.394  0.6875E-01  0.1171E+00
      4.469  0.7581E-01  0.1228E+00
      4.544  0.7805E-01  0.1287E+00
      4.620  0.7945E-01  0.1347E+00
      4.695  0.7954E-01  0.1407E+00
      4.771  0.8161E-01  0.1468E+00
      4.846  0.8565E-01  0.1533E+00
      4.921  0.8324E-01  0.1596E+00
      4.997  0.7933E-01  0.1655E+00
      5.072  0.7818E-01  0.1714E+00
      5.148  0.8056E-01  0.1775E+00
      5.223  0.8716E-01  0.1841E+00
      5.298  0.9119E-01  0.1909E+00
      5.374  0.8628E-01  0.1974E+00
      5.449  0.8080E-01  0.2035E+00
      5.524  0.8160E-01  0.2097E+00
      5.600  0.8131E-01  0.2158E+00
      5.675  0.7801E-01  0.2217E+00
      5.751  0.7889E-01  0.2277E+00
      5.826  0.8091E-01  0.2337E+00
      5.901  0.7840E-01  0.2397E+00
      5.977  0.7318E-01  0.2452E+00
      6.052  0.6818E-01  0.2503E+00
      6.128  0.6927E-01  0.2555E+00
      6.203  0.7331E-01  0.2611E+00
      6.278  0.7447E-01  0.2667E+00
      6.354  0.7390E-01  0.2723E+00
      6.429  0.7301E-01  0.2778E+00
      6.505  0.7398E-01  0.2833E+00
      6.580  0.7710E-01  0.2891E+00
      6.655  0.8020E-01  0.2952E+00
      6.731  0.7999E-01  0.3012E+00
      6.806  0.7546E-01  0.3069E+00
      6.881  0.6824E-01  0.3121E+00
      6.957  0.6458E-01  0.3169E+00
      7.032  0.6716E-01  0.3220E+00
      7.108  0.6886E-01  0.3272E+00
      7.183  0.6734E-01  0.3323E+00
      7.258  0.6417E-01  0.3371E+00
      7.334  0.6464E-01  0.3420E+00
      7.409  0.6657E-01  0.3470E+00
      7.485  0.6565E-01  0.3519E+00
      7.560  0.6529E-01  0.3569E+00
      7.635  0.6812E-01  0.3620E+00
      7.711  0.7567E-01  0.3677E+00
      7.786  0.8440E-01  0.3741E+00
      7.862  0.8957E-01  0.3808E+00
      7.937  0.9634E-01  0.3881E+00
      8.012  0.1043E+00  0.3959E+00
      8.088  0.9451E-01  0.4031E+00
      8.163  0.7166E-01  0.4085E+00
      8.238  0.5530E-01  0.4126E+00
      8.314  0.4257E-01  0.4158E+00
      8.389  0.3088E-01  0.4182E+00
      8.465  0.2736E-01  0.4202E+00
      8.540  0.2650E-01  0.4222E+00
      8.615  0.2063E-01  0.4238E+00
      8.691  0.1196E-01  0.4247E+00
      8.766  0.6989E-02  0.4252E+00
      8.842  0.7382E-02  0.4258E+00
      8.917  0.1009E-01  0.4265E+00
      8.992  0.1386E-01  0.4276E+00
      9.068  0.1494E-01  0.4287E+00
      9.143  0.1164E-01  0.4296E+00
      9.218  0.9268E-02  0.4303E+00
      9.294  0.9396E-02  0.4310E+00
      9.369  0.1065E-01  0.4318E+00
      9.445  0.1110E-01  0.4326E+00
      9.520  0.1140E-01  0.4335E+00
      9.595  0.1208E-01  0.4344E+00
      9.671  0.1159E-01  0.4353E+00
      9.746  0.1026E-01  0.4360E+00
      9.822  0.9461E-02  0.4368E+00
      9.897  0.9545E-02  0.4375E+00
      9.972  0.1004E-01  0.4382E+00
     10.048  0.1233E-01  0.4392E+00
     10.123  0.1439E-01  0.4402E+00
     10.199  0.1302E-01  0.4412E+00
     10.274  0.1000E-01  0.4420E+00
     10.349  0.8322E-02  0.4426E+00
     10.425  0.8845E-02  0.4433E+00
     10.500  0.1038E-01  0.4441E+00
     10.575  0.1150E-01  0.4449E+00
     10.651  0.1294E-01  0.4459E+00
     10.726  0.1232E-01  0.4468E+00
     10.802  0.1012E-01  0.4476E+00
     10.877  0.9701E-02  0.4483E+00
     10.952  0.1063E-01  0.4491E+00
     11.028  0.1066E-01  0.4499E+00
     11.103  0.9411E-02  0.4506E+00
     11.179  0.1031E-01  0.4514E+00
     11.254  0.1294E-01  0.4524E+00
     11.329  0.1272E-01  0.4533E+00
     11.405  0.1096E-01  0.4542E+00
     11.480  0.1005E-01  0.4549E+00
     11.556  0.8664E-02  0.4556E+00
     11.631  0.8685E-02  0.4562E+00
     11.706  0.9479E-02  0.4570E+00
     11.782  0.9380E-02  0.4577E+00
     11.857  0.9307E-02  0.4584E+00
     11.932  0.1186E-01  0.4593E+00
     12.008  0.1356E-01  0.4603E+00
     12.083  0.1077E-01  0.4611E+00
     12.159  0.8443E-02  0.4617E+00
     12.234  0.8476E-02  0.4624E+00
     12.309  0.9383E-02  0.4631E+00
     12.385  0.1005E-01  0.4638E+00
     12.460  0.1040E-01  0.4646E+00
     12.536  0.9896E-02  0.4654E+00
     12.611  0.8026E-02  0.4660E+00
     12.686  0.7599E-02  0.4665E+00
     12.762  0.8840E-02  0.4672E+00
     12.837  0.1020E-01  0.4680E+00
     12.912  0.1055E-01  0.4688E+00
     12.988  0.9845E-02  0.4695E+00
     13.063  0.9142E-02  0.4702E+00
     13.139  0.9187E-02  0.4709E+00
     13.214  0.8865E-02  0.4716E+00
     13.289  0.1026E-01  0.4723E+00
     13.365  0.1593E-01  0.4735E+00
     13.440  0.2043E-01  0.4751E+00
     13.516  0.1961E-01  0.4766E+00
     13.591  0.1635E-01  0.4778E+00
     13.666  0.1340E-01  0.4788E+00
     13.742  0.1304E-01  0.4798E+00
     13.817  0.1472E-01  0.4809E+00
     13.893  0.1437E-01  0.4820E+00
     13.968  0.1161E-01  0.4828E+00
     14.043  0.9608E-02  0.4836E+00
     14.119  0.9779E-02  0.4843E+00
     14.194  0.1079E-01  0.4851E+00
     14.269  0.1095E-01  0.4859E+00
     14.345  0.1226E-01  0.4869E+00
     14.420  0.1305E-01  0.4879E+00
     14.496  0.1142E-01  0.4887E+00
     14.571  0.8965E-02  0.4894E+00
     14.646  0.7856E-02  0.4900E+00
     14.722  0.8435E-02  0.4906E+00
     14.797  0.1089E-01  0.4914E+00
     14.873  0.1433E-01  0.4925E+00
     14.948  0.1458E-01  0.4936E+00
     15.023  0.1346E-01  0.4946E+00
     15.099  0.1286E-01  0.4956E+00
     15.174  0.1232E-01  0.4965E+00
     15.250  0.1218E-01  0.4975E+00
     15.325  0.1305E-01  0.4984E+00
     15.400  0.1452E-01  0.4995E+00
     15.476  0.1413E-01  0.5006E+00
     15.551  0.1285E-01  0.5016E+00
     15.626  0.1370E-01  0.5026E+00
     15.702  0.1513E-01  0.5037E+00
     15.777  0.1483E-01  0.5049E+00
     15.853  0.1323E-01  0.5059E+00
     15.928  0.1209E-01  0.5068E+00
     16.003  0.1319E-01  0.5078E+00
     16.079  0.1419E-01  0.5088E+00
     16.154  0.1307E-01  0.5098E+00
     16.230  0.1101E-01  0.5106E+00
     16.305  0.8475E-02  0.5113E+00
     16.380  0.7206E-02  0.5118E+00
     16.456  0.8571E-02  0.5125E+00
     16.531  0.1152E-01  0.5133E+00
     16.606  0.1412E-01  0.5144E+00
     16.682  0.1418E-01  0.5155E+00
     16.757  0.1253E-01  0.5164E+00
     16.833  0.1145E-01  0.5173E+00
     16.908  0.1146E-01  0.5181E+00
     16.983  0.1228E-01  0.5191E+00
     17.059  0.1217E-01  0.5200E+00
     17.134  0.1069E-01  0.5208E+00
     17.210  0.9651E-02  0.5215E+00
     17.285  0.1028E-01  0.5223E+00
     17.360  0.8985E-02  0.5230E+00
     17.436  0.6445E-02  0.5235E+00
     17.511  0.6772E-02  0.5240E+00
     17.587  0.7686E-02  0.5246E+00
     17.662  0.9409E-02  0.5253E+00
     17.737  0.1431E-01  0.5263E+00
     17.813  0.1604E-01  0.5275E+00
     17.888  0.1204E-01  0.5285E+00
     17.963  0.9939E-02  0.5292E+00
     18.039  0.1020E-01  0.5300E+00
     18.114  0.8878E-02  0.5306E+00
     18.190  0.7283E-02  0.5312E+00
     18.265  0.7982E-02  0.5318E+00
     18.340  0.8882E-02  0.5325E+00
     18.416  0.8563E-02  0.5331E+00
     18.491  0.8383E-02  0.5337E+00
     18.567  0.7008E-02  0.5343E+00
     18.642  0.5445E-02  0.5347E+00
     18.717  0.5214E-02  0.5351E+00
     18.793  0.5541E-02  0.5355E+00
     18.868  0.6255E-02  0.5360E+00
     18.944  0.6572E-02  0.5365E+00
     19.019  0.6003E-02  0.5369E+00
     19.094  0.5737E-02  0.5373E+00
     19.170  0.5315E-02  0.5377E+00
     19.245  0.4210E-02  0.5381E+00
     19.320  0.3711E-02  0.5383E+00
     19.396  0.3295E-02  0.5386E+00
     19.471  0.2263E-02  0.5388E+00
     19.547  0.1807E-02  0.5389E+00
     19.622  0.1795E-02  0.5390E+00
     19.697  0.2122E-02  0.5392E+00
     19.773  0.1977E-02  0.5393E+00
     19.848  0.1265E-02  0.5394E+00
     19.924  0.1302E-02  0.5395E+00
     19.999  0.1920E-02  0.5397E+00
     20.074  0.1345E-02  0.5398E+00
     20.150  0.3976E-03  0.5398E+00
     20.225  0.2690E-03  0.5398E+00
     20.300  0.6141E-03  0.5399E+00
     20.376  0.8193E-03  0.5399E+00
     20.451  0.5901E-03  0.5400E+00
     20.527  0.1947E-03  0.5400E+00
     20.602  0.2527E-04  0.5400E+00
     20.677  0.1203E-05  0.5400E+00
     20.753  0.2039E-07  0.5400E+00
     20.828  0.1211E-09  0.5400E+00
     20.904  0.2485E-12  0.5400E+00
     20.979  0.1742E-15  0.5400E+00
     21.054  0.3491E-19  0.5400E+00
     21.130  0.0000E+00  0.5400E+00
     21.205  0.0000E+00  0.5400E+00
     21.281  0.0000E+00  0.5400E+00
     21.356  0.0000E+00  0.5400E+00
     21.431  0.0000E+00  0.5400E+00
