 running on   24 total cores
 distrk:  each k-point on   24 cores,    1 groups
 distr:  one band on    8 cores,    3 groups
 using from now: INCAR     
 vasp.5.4.4.18Apr17-6-g9f103f2a35 (build Jan 14 2019 14:48:31) complex          
  
 POSCAR found type information on POSCAR  Au
 POSCAR found :  1 types and       4 ions
 scaLAPACK will be used
 LDA part: xc-table for Pade appr. of Perdew
 POSCAR found type information on POSCAR  Au
 POSCAR found :  1 types and       4 ions
 POSCAR, INCAR and KPOINTS ok, starting setup
 FFT: planning ...
 WAVECAR not read
 entering main loop
       N       E                     dE             d eps       ncg     rms          rms(c)
DAV:   1     0.281505282288E+03    0.28151E+03   -0.22869E+04 92124   0.154E+03
DAV:   2    -0.861418436383E+01   -0.29012E+03   -0.28258E+03104598   0.336E+02
DAV:   3    -0.136415094568E+02   -0.50273E+01   -0.49981E+01102150   0.469E+01
DAV:   4    -0.136691948518E+02   -0.27685E-01   -0.27676E-01105768   0.357E+00
DAV:   5    -0.136694385900E+02   -0.24374E-03   -0.24373E-03106533   0.350E-01    0.209E+01
RMM:   6    -0.126856733291E+02    0.98377E+00   -0.22986E+00 91152   0.101E+01    0.130E+01
RMM:   7    -0.126022440308E+02    0.83429E-01   -0.44492E-01 91180   0.433E+00    0.473E+00
RMM:   8    -0.125891109710E+02    0.13133E-01   -0.32147E-02 91156   0.120E+00    0.610E-01
RMM:   9    -0.125889965817E+02    0.11439E-03   -0.21183E-04 91212   0.810E-02    0.507E-02
RMM:  10    -0.125890049448E+02   -0.83631E-05   -0.13463E-05 90743   0.297E-02    0.466E-02
RMM:  11    -0.125890081691E+02   -0.32243E-05   -0.77052E-07 50121   0.582E-03    0.951E-04
RMM:  12    -0.125890081158E+02    0.53280E-07   -0.10537E-07 39275   0.214E-03
   1 F= -.12589008E+02 E0= -.12585378E+02  d E =-.125890E+02
 curvature:   0.00 expect dE= 0.000E+00 dE for cont linesearch  0.000E+00
 trial: gam= 0.00000 g(F)=  0.820E-14 g(S)=  0.000E+00 ort = 0.000E+00 (trialstep = 0.100E+01)
 search vector abs. value=  0.100E-09
 reached required accuracy - stopping structural energy minimisation
