   4   4   0   0
  0.1687088E+02  0.4071295E-09  0.4071295E-09  0.4071295E-09  0.2000000E-15
  1.000000000000000E-004
  CAR 
 unknown system                          
     20.27094094     -1.31948585  301      9.67816341      1.00000000
     -1.319  0.0000E+00  0.0000E+00
     -1.248  0.0000E+00  0.0000E+00
     -1.176  0.0000E+00  0.0000E+00
     -1.104  0.0000E+00  0.0000E+00
     -1.032  0.0000E+00  0.0000E+00
     -0.960  0.0000E+00  0.0000E+00
     -0.888  0.3657E-19  0.2632E-20
     -0.816  0.9494E-16  0.6835E-17
     -0.744  0.8509E-13  0.6130E-14
     -0.672  0.2842E-10  0.2052E-11
     -0.600  0.3649E-08  0.2647E-09
     -0.528  0.1890E-06  0.1387E-07
     -0.456  0.4220E-05  0.3175E-06
     -0.384  0.4366E-04  0.3460E-05
     -0.312  0.2230E-03  0.1951E-04
     -0.240  0.5968E-03  0.6246E-04
     -0.168  0.9655E-03  0.1319E-03
     -0.096  0.1332E-02  0.2278E-03
     -0.024  0.1739E-02  0.3529E-03
      0.048  0.1741E-02  0.4782E-03
      0.120  0.1883E-02  0.6137E-03
      0.192  0.2427E-02  0.7884E-03
      0.264  0.2582E-02  0.9742E-03
      0.336  0.2640E-02  0.1164E-02
      0.408  0.2772E-02  0.1364E-02
      0.480  0.2612E-02  0.1552E-02
      0.552  0.3158E-02  0.1779E-02
      0.624  0.3836E-02  0.2055E-02
      0.696  0.3952E-02  0.2339E-02
      0.768  0.3647E-02  0.2602E-02
      0.840  0.3027E-02  0.2820E-02
      0.912  0.3700E-02  0.3086E-02
      0.983  0.4976E-02  0.3444E-02
      1.055  0.5153E-02  0.3815E-02
      1.127  0.4753E-02  0.4157E-02
      1.199  0.4482E-02  0.4480E-02
      1.271  0.4966E-02  0.4837E-02
      1.343  0.5501E-02  0.5233E-02
      1.415  0.5551E-02  0.5632E-02
      1.487  0.5621E-02  0.6037E-02
      1.559  0.6368E-02  0.6495E-02
      1.631  0.7683E-02  0.7048E-02
      1.703  0.7507E-02  0.7588E-02
      1.775  0.6899E-02  0.8085E-02
      1.847  0.6718E-02  0.8568E-02
      1.919  0.7674E-02  0.9121E-02
      1.991  0.1046E-01  0.9874E-02
      2.063  0.1218E-01  0.1075E-01
      2.135  0.1140E-01  0.1157E-01
      2.207  0.1358E-01  0.1255E-01
      2.279  0.2014E-01  0.1400E-01
      2.351  0.2507E-01  0.1580E-01
      2.423  0.2697E-01  0.1774E-01
      2.495  0.2770E-01  0.1974E-01
      2.567  0.3070E-01  0.2195E-01
      2.639  0.3765E-01  0.2465E-01
      2.711  0.4390E-01  0.2781E-01
      2.783  0.4886E-01  0.3133E-01
      2.855  0.5408E-01  0.3522E-01
      2.927  0.6151E-01  0.3965E-01
      2.999  0.6927E-01  0.4463E-01
      3.071  0.7327E-01  0.4991E-01
      3.143  0.7356E-01  0.5520E-01
      3.215  0.7277E-01  0.6044E-01
      3.286  0.7242E-01  0.6565E-01
      3.358  0.6783E-01  0.7053E-01
      3.430  0.6442E-01  0.7517E-01
      3.502  0.6631E-01  0.7994E-01
      3.574  0.6417E-01  0.8456E-01
      3.646  0.6062E-01  0.8892E-01
      3.718  0.5852E-01  0.9313E-01
      3.790  0.5102E-01  0.9680E-01
      3.862  0.4691E-01  0.1002E+00
      3.934  0.5086E-01  0.1038E+00
      4.006  0.5555E-01  0.1078E+00
      4.078  0.6060E-01  0.1122E+00
      4.150  0.6721E-01  0.1170E+00
      4.222  0.7289E-01  0.1223E+00
      4.294  0.7551E-01  0.1277E+00
      4.366  0.7758E-01  0.1333E+00
      4.438  0.7486E-01  0.1387E+00
      4.510  0.7380E-01  0.1440E+00
      4.582  0.7838E-01  0.1496E+00
      4.654  0.8153E-01  0.1555E+00
      4.726  0.8122E-01  0.1614E+00
      4.798  0.7990E-01  0.1671E+00
      4.870  0.8283E-01  0.1731E+00
      4.942  0.9095E-01  0.1796E+00
      5.014  0.1027E+00  0.1870E+00
      5.086  0.1128E+00  0.1951E+00
      5.158  0.1209E+00  0.2038E+00
      5.230  0.1273E+00  0.2130E+00
      5.302  0.1187E+00  0.2215E+00
      5.374  0.9673E-01  0.2285E+00
      5.446  0.8283E-01  0.2344E+00
      5.517  0.7528E-01  0.2399E+00
      5.589  0.6808E-01  0.2448E+00
      5.661  0.6537E-01  0.2495E+00
      5.733  0.6388E-01  0.2541E+00
      5.805  0.6210E-01  0.2585E+00
      5.877  0.6264E-01  0.2630E+00
      5.949  0.6546E-01  0.2678E+00
      6.021  0.7286E-01  0.2730E+00
      6.093  0.7963E-01  0.2787E+00
      6.165  0.7813E-01  0.2844E+00
      6.237  0.7891E-01  0.2900E+00
      6.309  0.8547E-01  0.2962E+00
      6.381  0.8645E-01  0.3024E+00
      6.453  0.7883E-01  0.3081E+00
      6.525  0.7150E-01  0.3132E+00
      6.597  0.7192E-01  0.3184E+00
      6.669  0.7308E-01  0.3237E+00
      6.741  0.6896E-01  0.3286E+00
      6.813  0.6138E-01  0.3330E+00
      6.885  0.5775E-01  0.3372E+00
      6.957  0.6217E-01  0.3417E+00
      7.029  0.6759E-01  0.3465E+00
      7.101  0.6820E-01  0.3514E+00
      7.173  0.6297E-01  0.3560E+00
      7.245  0.6546E-01  0.3607E+00
      7.317  0.7579E-01  0.3661E+00
      7.389  0.7927E-01  0.3718E+00
      7.461  0.8392E-01  0.3779E+00
      7.533  0.1032E+00  0.3853E+00
      7.605  0.1188E+00  0.3939E+00
      7.677  0.1082E+00  0.4016E+00
      7.748  0.8684E-01  0.4079E+00
      7.820  0.6515E-01  0.4126E+00
      7.892  0.4870E-01  0.4161E+00
      7.964  0.4344E-01  0.4192E+00
      8.036  0.3420E-01  0.4217E+00
      8.108  0.1771E-01  0.4229E+00
      8.180  0.7626E-02  0.4235E+00
      8.252  0.5731E-02  0.4239E+00
      8.324  0.7723E-02  0.4245E+00
      8.396  0.1213E-01  0.4253E+00
      8.468  0.1590E-01  0.4265E+00
      8.540  0.1461E-01  0.4275E+00
      8.612  0.9890E-02  0.4282E+00
      8.684  0.8353E-02  0.4288E+00
      8.756  0.9685E-02  0.4295E+00
      8.828  0.1100E-01  0.4303E+00
      8.900  0.1257E-01  0.4312E+00
      8.972  0.1407E-01  0.4323E+00
      9.044  0.1295E-01  0.4332E+00
      9.116  0.1005E-01  0.4339E+00
      9.188  0.8571E-02  0.4345E+00
      9.260  0.8483E-02  0.4351E+00
      9.332  0.1080E-01  0.4359E+00
      9.404  0.1375E-01  0.4369E+00
      9.476  0.1399E-01  0.4379E+00
      9.548  0.1184E-01  0.4388E+00
      9.620  0.9769E-02  0.4395E+00
      9.692  0.9185E-02  0.4401E+00
      9.764  0.9445E-02  0.4408E+00
      9.836  0.1084E-01  0.4416E+00
      9.908  0.1315E-01  0.4425E+00
      9.980  0.1488E-01  0.4436E+00
     10.051  0.1387E-01  0.4446E+00
     10.123  0.9670E-02  0.4453E+00
     10.195  0.6389E-02  0.4458E+00
     10.267  0.7604E-02  0.4463E+00
     10.339  0.1097E-01  0.4471E+00
     10.411  0.1201E-01  0.4480E+00
     10.483  0.1195E-01  0.4488E+00
     10.555  0.1329E-01  0.4498E+00
     10.627  0.1350E-01  0.4507E+00
     10.699  0.1106E-01  0.4515E+00
     10.771  0.9875E-02  0.4522E+00
     10.843  0.1077E-01  0.4530E+00
     10.915  0.1060E-01  0.4538E+00
     10.987  0.1002E-01  0.4545E+00
     11.059  0.1029E-01  0.4552E+00
     11.131  0.9869E-02  0.4560E+00
     11.203  0.1052E-01  0.4567E+00
     11.275  0.1224E-01  0.4576E+00
     11.347  0.1170E-01  0.4584E+00
     11.419  0.1013E-01  0.4592E+00
     11.491  0.9024E-02  0.4598E+00
     11.563  0.9415E-02  0.4605E+00
     11.635  0.1025E-01  0.4612E+00
     11.707  0.1110E-01  0.4620E+00
     11.779  0.1227E-01  0.4629E+00
     11.851  0.1130E-01  0.4637E+00
     11.923  0.9593E-02  0.4644E+00
     11.995  0.8168E-02  0.4650E+00
     12.067  0.6545E-02  0.4655E+00
     12.139  0.7569E-02  0.4660E+00
     12.211  0.1115E-01  0.4668E+00
     12.282  0.1274E-01  0.4677E+00
     12.354  0.1042E-01  0.4685E+00
     12.426  0.7842E-02  0.4691E+00
     12.498  0.7261E-02  0.4696E+00
     12.570  0.7998E-02  0.4702E+00
     12.642  0.9851E-02  0.4709E+00
     12.714  0.1458E-01  0.4719E+00
     12.786  0.2162E-01  0.4735E+00
     12.858  0.2232E-01  0.4751E+00
     12.930  0.1558E-01  0.4762E+00
     13.002  0.1053E-01  0.4770E+00
     13.074  0.1157E-01  0.4778E+00
     13.146  0.1595E-01  0.4789E+00
     13.218  0.1725E-01  0.4802E+00
     13.290  0.1534E-01  0.4813E+00
     13.362  0.1440E-01  0.4823E+00
     13.434  0.1111E-01  0.4831E+00
     13.506  0.7679E-02  0.4837E+00
     13.578  0.8295E-02  0.4843E+00
     13.650  0.1028E-01  0.4850E+00
     13.722  0.1144E-01  0.4858E+00
     13.794  0.1199E-01  0.4867E+00
     13.866  0.1397E-01  0.4877E+00
     13.938  0.1294E-01  0.4886E+00
     14.010  0.9483E-02  0.4893E+00
     14.082  0.7856E-02  0.4899E+00
     14.154  0.7329E-02  0.4904E+00
     14.226  0.9230E-02  0.4911E+00
     14.298  0.1314E-01  0.4920E+00
     14.370  0.1419E-01  0.4930E+00
     14.442  0.1261E-01  0.4939E+00
     14.513  0.1112E-01  0.4947E+00
     14.585  0.1077E-01  0.4955E+00
     14.657  0.1272E-01  0.4964E+00
     14.729  0.1420E-01  0.4975E+00
     14.801  0.1605E-01  0.4986E+00
     14.873  0.1546E-01  0.4997E+00
     14.945  0.1101E-01  0.5005E+00
     15.017  0.8330E-02  0.5011E+00
     15.089  0.9845E-02  0.5018E+00
     15.161  0.1359E-01  0.5028E+00
     15.233  0.1458E-01  0.5038E+00
     15.305  0.1500E-01  0.5049E+00
     15.377  0.1687E-01  0.5061E+00
     15.449  0.1816E-01  0.5074E+00
     15.521  0.1618E-01  0.5086E+00
     15.593  0.1404E-01  0.5096E+00
     15.665  0.1216E-01  0.5105E+00
     15.737  0.9016E-02  0.5111E+00
     15.809  0.7520E-02  0.5117E+00
     15.881  0.9918E-02  0.5124E+00
     15.953  0.1359E-01  0.5134E+00
     16.025  0.1493E-01  0.5145E+00
     16.097  0.1169E-01  0.5153E+00
     16.169  0.7696E-02  0.5158E+00
     16.241  0.7178E-02  0.5164E+00
     16.313  0.7853E-02  0.5169E+00
     16.385  0.9754E-02  0.5176E+00
     16.457  0.1157E-01  0.5185E+00
     16.529  0.1244E-01  0.5194E+00
     16.601  0.1213E-01  0.5202E+00
     16.673  0.1068E-01  0.5210E+00
     16.745  0.8362E-02  0.5216E+00
     16.816  0.7764E-02  0.5222E+00
     16.888  0.1046E-01  0.5229E+00
     16.960  0.1411E-01  0.5239E+00
     17.032  0.1614E-01  0.5251E+00
     17.104  0.1233E-01  0.5260E+00
     17.176  0.7421E-02  0.5265E+00
     17.248  0.8194E-02  0.5271E+00
     17.320  0.1108E-01  0.5279E+00
     17.392  0.1041E-01  0.5287E+00
     17.464  0.7641E-02  0.5292E+00
     17.536  0.8239E-02  0.5298E+00
     17.608  0.1286E-01  0.5307E+00
     17.680  0.1590E-01  0.5319E+00
     17.752  0.1386E-01  0.5329E+00
     17.824  0.9854E-02  0.5336E+00
     17.896  0.9097E-02  0.5342E+00
     17.968  0.9105E-02  0.5349E+00
     18.040  0.7344E-02  0.5354E+00
     18.112  0.6066E-02  0.5358E+00
     18.184  0.6490E-02  0.5363E+00
     18.256  0.8908E-02  0.5370E+00
     18.328  0.8848E-02  0.5376E+00
     18.400  0.5003E-02  0.5379E+00
     18.472  0.2553E-02  0.5381E+00
     18.544  0.2065E-02  0.5383E+00
     18.616  0.2246E-02  0.5384E+00
     18.688  0.2510E-02  0.5386E+00
     18.760  0.2783E-02  0.5388E+00
     18.832  0.3213E-02  0.5391E+00
     18.904  0.3202E-02  0.5393E+00
     18.976  0.2636E-02  0.5395E+00
     19.047  0.2036E-02  0.5396E+00
     19.119  0.1260E-02  0.5397E+00
     19.191  0.1147E-02  0.5398E+00
     19.263  0.1528E-02  0.5399E+00
     19.335  0.1012E-02  0.5400E+00
     19.407  0.2744E-03  0.5400E+00
     19.479  0.3019E-04  0.5400E+00
     19.551  0.1343E-05  0.5400E+00
     19.623  0.2390E-07  0.5400E+00
     19.695  0.1677E-09  0.5400E+00
     19.767  0.4541E-12  0.5400E+00
     19.839  0.4657E-15  0.5400E+00
     19.911  0.1646E-18  0.5400E+00
     19.983  0.0000E+00  0.5400E+00
     20.055  0.0000E+00  0.5400E+00
     20.127  0.0000E+00  0.5400E+00
     20.199  0.0000E+00  0.5400E+00
     20.271  0.0000E+00  0.5400E+00
