 running on   24 total cores
 distrk:  each k-point on   24 cores,    1 groups
 distr:  one band on    8 cores,    3 groups
 using from now: INCAR     
 vasp.5.4.4.18Apr17-6-g9f103f2a35 (build Jan 14 2019 14:48:31) complex          
  
 POSCAR found type information on POSCAR  Au
 POSCAR found :  1 types and       4 ions
 scaLAPACK will be used
 LDA part: xc-table for Pade appr. of Perdew
 POSCAR found type information on POSCAR  Au
 POSCAR found :  1 types and       4 ions
 POSCAR, INCAR and KPOINTS ok, starting setup
 FFT: planning ...
 WAVECAR not read
 entering main loop
       N       E                     dE             d eps       ncg     rms          rms(c)
DAV:   1     0.279059030185E+03    0.27906E+03   -0.22798E+04 92169   0.153E+03
DAV:   2    -0.885589692727E+01   -0.28791E+03   -0.28035E+03105066   0.334E+02
DAV:   3    -0.137958007329E+02   -0.49399E+01   -0.49129E+01101961   0.463E+01
DAV:   4    -0.138230599701E+02   -0.27259E-01   -0.27250E-01104868   0.353E+00
DAV:   5    -0.138233073934E+02   -0.24742E-03   -0.24742E-03107136   0.352E-01    0.194E+01
RMM:   6    -0.128426761517E+02    0.98063E+00   -0.23677E+00 91152   0.102E+01    0.122E+01
RMM:   7    -0.127662507679E+02    0.76425E-01   -0.40545E-01 91184   0.410E+00    0.479E+00
RMM:   8    -0.127548587082E+02    0.11392E-01   -0.25363E-02 91176   0.106E+00    0.586E-01
RMM:   9    -0.127547463149E+02    0.11239E-03   -0.20999E-04 91184   0.812E-02    0.474E-02
RMM:  10    -0.127547562658E+02   -0.99510E-05   -0.13865E-05 90605   0.299E-02    0.429E-02
RMM:  11    -0.127547590938E+02   -0.28279E-05   -0.63513E-07 50064   0.504E-03    0.876E-04
RMM:  12    -0.127547590363E+02    0.57441E-07   -0.10730E-07 39092   0.215E-03
   1 F= -.12754759E+02 E0= -.12752469E+02  d E =-.127548E+02
 curvature:   0.00 expect dE= 0.000E+00 dE for cont linesearch  0.000E+00
 trial: gam= 0.00000 g(F)=  0.991E-14 g(S)=  0.000E+00 ort = 0.000E+00 (trialstep = 0.100E+01)
 search vector abs. value=  0.100E-09
 reached required accuracy - stopping structural energy minimisation
