<?xml version="1.0" encoding="ISO-8859-1"?>
<modeling>
 <generator>
  <i name="program" type="string">vasp </i>
  <i name="version" type="string">5.4.4.18Apr17-6-g9f103f2a35  </i>
  <i name="subversion" type="string">(build Jan 14 2019 14:48:31) complex            parallel </i>
  <i name="platform" type="string">LinuxIFC </i>
  <i name="date" type="string">2019 11 19 </i>
  <i name="time" type="string">22:31:43 </i>
 </generator>
 <incar>
  <i type="int" name="ISTART">     0</i>
  <i type="string" name="PREC">accurate</i>
  <i type="string" name="ALGO"> Fast</i>
  <i type="int" name="ICHARG">     2</i>
  <i type="int" name="NELMIN">     4</i>
  <i type="int" name="IBRION">     2</i>
  <i name="EDIFF">      0.00000100</i>
  <i name="EDIFFG">     -0.02000000</i>
  <i type="int" name="NSW">   100</i>
  <i type="int" name="ISIF">     2</i>
  <i type="int" name="ISYM">     0</i>
  <i name="ENCUT">    500.00000000</i>
  <i name="POTIM">      0.20000000</i>
  <i type="int" name="ISMEAR">     0</i>
  <i name="SIGMA">      0.10000000</i>
  <i type="logical" name="LWAVE"> F  </i>
  <i type="logical" name="LCHARG"> F  </i>
  <v type="int" name="KPOINT_BSE">    -1     0     0     0</v>
 </incar>
 <structure name="primitive_cell" >
  <crystal>
   <varray name="basis" >
    <v>       4.07129496      -0.00000003      -0.00000006 </v>
    <v>      -0.00000003       4.07129457       0.00000014 </v>
    <v>      -0.00000006       0.00000014       4.07129463 </v>
   </varray>
   <i name="volume">     67.48350415 </i>
   <varray name="rec_basis" >
    <v>       0.24562210       0.00000000       0.00000000 </v>
    <v>       0.00000000       0.24562212      -0.00000001 </v>
    <v>       0.00000000      -0.00000001       0.24562212 </v>
   </varray>
  </crystal>
  <varray name="positions" >
   <v>      -0.00000000       0.00000000       0.00000000 </v>
   <v>       0.00000000       0.50000000      -0.50000000 </v>
   <v>      -0.50000000      -0.00000000       0.50000000 </v>
   <v>       0.50000000      -0.50000000      -0.00000000 </v>
  </varray>
 </structure>
 <varray name="primitive_index" >
  <v type="int" >        1 </v>
  <v type="int" >        2 </v>
  <v type="int" >        3 </v>
  <v type="int" >        4 </v>
 </varray>
 <kpoints>
  <generation param="Gamma">
   <v type="int" name="divisions">      15       15       15 </v>
   <v name="usershift">      0.00000000       0.00000000       0.00000000 </v>
   <v name="genvec1">      0.06666667      -0.00000000      -0.00000000 </v>
   <v name="genvec2">      0.00000000       0.06666667       0.00000000 </v>
   <v name="genvec3">     -0.00000000       0.00000000       0.06666667 </v>
   <v name="shift">      0.00000000       0.00000000       0.00000000 </v>
  </generation>
  <varray name="kpointlist" >
   <v>       0.00000000       0.00000000       0.00000000 </v>
   <v>       0.06666667       0.00000000       0.00000000 </v>
   <v>       0.13333333      -0.00000000       0.00000000 </v>
   <v>       0.20000000      -0.00000000       0.00000000 </v>
   <v>       0.26666667      -0.00000000       0.00000000 </v>
   <v>       0.33333333      -0.00000000       0.00000000 </v>
   <v>       0.40000000      -0.00000000       0.00000000 </v>
   <v>       0.46666667       0.00000000       0.00000000 </v>
   <v>      -0.00000000       0.06666667       0.00000000 </v>
   <v>       0.06666667       0.06666667      -0.00000000 </v>
   <v>       0.13333333       0.06666667       0.00000000 </v>
   <v>       0.20000000       0.06666667       0.00000000 </v>
   <v>       0.26666667       0.06666667       0.00000000 </v>
   <v>       0.33333333       0.06666667       0.00000000 </v>
   <v>       0.40000000       0.06666667       0.00000000 </v>
   <v>       0.46666667       0.06666667       0.00000000 </v>
   <v>      -0.46666667       0.06666667      -0.00000000 </v>
   <v>      -0.40000000       0.06666667      -0.00000000 </v>
   <v>      -0.33333333       0.06666667      -0.00000000 </v>
   <v>      -0.26666667       0.06666667      -0.00000000 </v>
   <v>      -0.20000000       0.06666667       0.00000000 </v>
   <v>      -0.13333333       0.06666667      -0.00000000 </v>
   <v>      -0.06666667       0.06666667       0.00000000 </v>
   <v>      -0.00000000       0.13333333      -0.00000000 </v>
   <v>       0.06666667       0.13333333      -0.00000000 </v>
   <v>       0.13333333       0.13333333       0.00000000 </v>
   <v>       0.20000000       0.13333333       0.00000000 </v>
   <v>       0.26666667       0.13333333       0.00000000 </v>
   <v>       0.33333333       0.13333333       0.00000000 </v>
   <v>       0.40000000       0.13333333       0.00000000 </v>
   <v>       0.46666667       0.13333333       0.00000000 </v>
   <v>      -0.46666667       0.13333333      -0.00000000 </v>
   <v>      -0.40000000       0.13333333       0.00000000 </v>
   <v>      -0.33333333       0.13333333       0.00000000 </v>
   <v>      -0.26666667       0.13333333       0.00000000 </v>
   <v>      -0.20000000       0.13333333      -0.00000000 </v>
   <v>      -0.13333333       0.13333333      -0.00000000 </v>
   <v>      -0.06666667       0.13333333       0.00000000 </v>
   <v>       0.00000000       0.20000000       0.00000000 </v>
   <v>       0.06666667       0.20000000       0.00000000 </v>
   <v>       0.13333333       0.20000000      -0.00000000 </v>
   <v>       0.20000000       0.20000000       0.00000000 </v>
   <v>       0.26666667       0.20000000       0.00000000 </v>
   <v>       0.33333333       0.20000000       0.00000000 </v>
   <v>       0.40000000       0.20000000       0.00000000 </v>
   <v>       0.46666667       0.20000000       0.00000000 </v>
   <v>      -0.46666667       0.20000000       0.00000000 </v>
   <v>      -0.40000000       0.20000000       0.00000000 </v>
   <v>      -0.33333333       0.20000000      -0.00000000 </v>
   <v>      -0.26666667       0.20000000       0.00000000 </v>
   <v>      -0.20000000       0.20000000      -0.00000000 </v>
   <v>      -0.13333333       0.20000000      -0.00000000 </v>
   <v>      -0.06666667       0.20000000      -0.00000000 </v>
   <v>      -0.00000000       0.26666667      -0.00000000 </v>
   <v>       0.06666667       0.26666667       0.00000000 </v>
   <v>       0.13333333       0.26666667       0.00000000 </v>
   <v>       0.20000000       0.26666667      -0.00000000 </v>
   <v>       0.26666667       0.26666667       0.00000000 </v>
   <v>       0.33333333       0.26666667       0.00000000 </v>
   <v>       0.40000000       0.26666667      -0.00000000 </v>
   <v>       0.46666667       0.26666667       0.00000000 </v>
   <v>      -0.46666667       0.26666667      -0.00000000 </v>
   <v>      -0.40000000       0.26666667      -0.00000000 </v>
   <v>      -0.33333333       0.26666667      -0.00000000 </v>
   <v>      -0.26666667       0.26666667      -0.00000000 </v>
   <v>      -0.20000000       0.26666667      -0.00000000 </v>
   <v>      -0.13333333       0.26666667      -0.00000000 </v>
   <v>      -0.06666667       0.26666667       0.00000000 </v>
   <v>      -0.00000000       0.33333333       0.00000000 </v>
   <v>       0.06666667       0.33333333       0.00000000 </v>
   <v>       0.13333333       0.33333333       0.00000000 </v>
   <v>       0.20000000       0.33333333       0.00000000 </v>
   <v>       0.26666667       0.33333333      -0.00000000 </v>
   <v>       0.33333333       0.33333333      -0.00000000 </v>
   <v>       0.40000000       0.33333333       0.00000000 </v>
   <v>       0.46666667       0.33333333       0.00000000 </v>
   <v>      -0.46666667       0.33333333      -0.00000000 </v>
   <v>      -0.40000000       0.33333333      -0.00000000 </v>
   <v>      -0.33333333       0.33333333       0.00000000 </v>
   <v>      -0.26666667       0.33333333      -0.00000000 </v>
   <v>      -0.20000000       0.33333333       0.00000000 </v>
   <v>      -0.13333333       0.33333333       0.00000000 </v>
   <v>      -0.06666667       0.33333333       0.00000000 </v>
   <v>       0.00000000       0.40000000       0.00000000 </v>
   <v>       0.06666667       0.40000000      -0.00000000 </v>
   <v>       0.13333333       0.40000000       0.00000000 </v>
   <v>       0.20000000       0.40000000      -0.00000000 </v>
   <v>       0.26666667       0.40000000      -0.00000000 </v>
   <v>       0.33333333       0.40000000       0.00000000 </v>
   <v>       0.40000000       0.40000000       0.00000000 </v>
   <v>       0.46666667       0.40000000       0.00000000 </v>
   <v>      -0.46666667       0.40000000       0.00000000 </v>
   <v>      -0.40000000       0.40000000      -0.00000000 </v>
   <v>      -0.33333333       0.40000000      -0.00000000 </v>
   <v>      -0.26666667       0.40000000       0.00000000 </v>
   <v>      -0.20000000       0.40000000       0.00000000 </v>
   <v>      -0.13333333       0.40000000      -0.00000000 </v>
   <v>      -0.06666667       0.40000000      -0.00000000 </v>
   <v>      -0.00000000       0.46666667       0.00000000 </v>
   <v>       0.06666667       0.46666667      -0.00000000 </v>
   <v>       0.13333333       0.46666667       0.00000000 </v>
   <v>       0.20000000       0.46666667       0.00000000 </v>
   <v>       0.26666667       0.46666667       0.00000000 </v>
   <v>       0.33333333       0.46666667      -0.00000000 </v>
   <v>       0.40000000       0.46666667      -0.00000000 </v>
   <v>       0.46666667       0.46666667      -0.00000000 </v>
   <v>      -0.46666667       0.46666667      -0.00000000 </v>
   <v>      -0.40000000       0.46666667       0.00000000 </v>
   <v>      -0.33333333       0.46666667      -0.00000000 </v>
   <v>      -0.26666667       0.46666667      -0.00000000 </v>
   <v>      -0.20000000       0.46666667       0.00000000 </v>
   <v>      -0.13333333       0.46666667       0.00000000 </v>
   <v>      -0.06666667       0.46666667       0.00000000 </v>
   <v>       0.00000000       0.00000000       0.06666667 </v>
   <v>       0.06666667      -0.00000000       0.06666667 </v>
   <v>       0.13333333       0.00000000       0.06666667 </v>
   <v>       0.20000000       0.00000000       0.06666667 </v>
   <v>       0.26666667       0.00000000       0.06666667 </v>
   <v>       0.33333333      -0.00000000       0.06666667 </v>
   <v>       0.40000000       0.00000000       0.06666667 </v>
   <v>       0.46666667       0.00000000       0.06666667 </v>
   <v>      -0.46666667      -0.00000000       0.06666667 </v>
   <v>      -0.40000000       0.00000000       0.06666667 </v>
   <v>      -0.33333333       0.00000000       0.06666667 </v>
   <v>      -0.26666667       0.00000000       0.06666667 </v>
   <v>      -0.20000000      -0.00000000       0.06666667 </v>
   <v>      -0.13333333      -0.00000000       0.06666667 </v>
   <v>      -0.06666667       0.00000000       0.06666667 </v>
   <v>       0.00000000       0.06666667       0.06666667 </v>
   <v>       0.06666667       0.06666667       0.06666667 </v>
   <v>       0.13333333       0.06666667       0.06666667 </v>
   <v>       0.20000000       0.06666667       0.06666667 </v>
   <v>       0.26666667       0.06666667       0.06666667 </v>
   <v>       0.33333333       0.06666667       0.06666667 </v>
   <v>       0.40000000       0.06666667       0.06666667 </v>
   <v>       0.46666667       0.06666667       0.06666667 </v>
   <v>      -0.46666667       0.06666667       0.06666667 </v>
   <v>      -0.40000000       0.06666667       0.06666667 </v>
   <v>      -0.33333333       0.06666667       0.06666667 </v>
   <v>      -0.26666667       0.06666667       0.06666667 </v>
   <v>      -0.20000000       0.06666667       0.06666667 </v>
   <v>      -0.13333333       0.06666667       0.06666667 </v>
   <v>      -0.06666667       0.06666667       0.06666667 </v>
   <v>       0.00000000       0.13333333       0.06666667 </v>
   <v>       0.06666667       0.13333333       0.06666667 </v>
   <v>       0.13333333       0.13333333       0.06666667 </v>
   <v>       0.20000000       0.13333333       0.06666667 </v>
   <v>       0.26666667       0.13333333       0.06666667 </v>
   <v>       0.33333333       0.13333333       0.06666667 </v>
   <v>       0.40000000       0.13333333       0.06666667 </v>
   <v>       0.46666667       0.13333333       0.06666667 </v>
   <v>      -0.46666667       0.13333333       0.06666667 </v>
   <v>      -0.40000000       0.13333333       0.06666667 </v>
   <v>      -0.33333333       0.13333333       0.06666667 </v>
   <v>      -0.26666667       0.13333333       0.06666667 </v>
   <v>      -0.20000000       0.13333333       0.06666667 </v>
   <v>      -0.13333333       0.13333333       0.06666667 </v>
   <v>      -0.06666667       0.13333333       0.06666667 </v>
   <v>       0.00000000       0.20000000       0.06666667 </v>
   <v>       0.06666667       0.20000000       0.06666667 </v>
   <v>       0.13333333       0.20000000       0.06666667 </v>
   <v>       0.20000000       0.20000000       0.06666667 </v>
   <v>       0.26666667       0.20000000       0.06666667 </v>
   <v>       0.33333333       0.20000000       0.06666667 </v>
   <v>       0.40000000       0.20000000       0.06666667 </v>
   <v>       0.46666667       0.20000000       0.06666667 </v>
   <v>      -0.46666667       0.20000000       0.06666667 </v>
   <v>      -0.40000000       0.20000000       0.06666667 </v>
   <v>      -0.33333333       0.20000000       0.06666667 </v>
   <v>      -0.26666667       0.20000000       0.06666667 </v>
   <v>      -0.20000000       0.20000000       0.06666667 </v>
   <v>      -0.13333333       0.20000000       0.06666667 </v>
   <v>      -0.06666667       0.20000000       0.06666667 </v>
   <v>       0.00000000       0.26666667       0.06666667 </v>
   <v>       0.06666667       0.26666667       0.06666667 </v>
   <v>       0.13333333       0.26666667       0.06666667 </v>
   <v>       0.20000000       0.26666667       0.06666667 </v>
   <v>       0.26666667       0.26666667       0.06666667 </v>
   <v>       0.33333333       0.26666667       0.06666667 </v>
   <v>       0.40000000       0.26666667       0.06666667 </v>
   <v>       0.46666667       0.26666667       0.06666667 </v>
   <v>      -0.46666667       0.26666667       0.06666667 </v>
   <v>      -0.40000000       0.26666667       0.06666667 </v>
   <v>      -0.33333333       0.26666667       0.06666667 </v>
   <v>      -0.26666667       0.26666667       0.06666667 </v>
   <v>      -0.20000000       0.26666667       0.06666667 </v>
   <v>      -0.13333333       0.26666667       0.06666667 </v>
   <v>      -0.06666667       0.26666667       0.06666667 </v>
   <v>      -0.00000000       0.33333333       0.06666667 </v>
   <v>       0.06666667       0.33333333       0.06666667 </v>
   <v>       0.13333333       0.33333333       0.06666667 </v>
   <v>       0.20000000       0.33333333       0.06666667 </v>
   <v>       0.26666667       0.33333333       0.06666667 </v>
   <v>       0.33333333       0.33333333       0.06666667 </v>
   <v>       0.40000000       0.33333333       0.06666667 </v>
   <v>       0.46666667       0.33333333       0.06666667 </v>
   <v>      -0.46666667       0.33333333       0.06666667 </v>
   <v>      -0.40000000       0.33333333       0.06666667 </v>
   <v>      -0.33333333       0.33333333       0.06666667 </v>
   <v>      -0.26666667       0.33333333       0.06666667 </v>
   <v>      -0.20000000       0.33333333       0.06666667 </v>
   <v>      -0.13333333       0.33333333       0.06666667 </v>
   <v>      -0.06666667       0.33333333       0.06666667 </v>
   <v>      -0.00000000       0.40000000       0.06666667 </v>
   <v>       0.06666667       0.40000000       0.06666667 </v>
   <v>       0.13333333       0.40000000       0.06666667 </v>
   <v>       0.20000000       0.40000000       0.06666667 </v>
   <v>       0.26666667       0.40000000       0.06666667 </v>
   <v>       0.33333333       0.40000000       0.06666667 </v>
   <v>       0.40000000       0.40000000       0.06666667 </v>
   <v>       0.46666667       0.40000000       0.06666667 </v>
   <v>      -0.46666667       0.40000000       0.06666667 </v>
   <v>      -0.40000000       0.40000000       0.06666667 </v>
   <v>      -0.33333333       0.40000000       0.06666667 </v>
   <v>      -0.26666667       0.40000000       0.06666667 </v>
   <v>      -0.20000000       0.40000000       0.06666667 </v>
   <v>      -0.13333333       0.40000000       0.06666667 </v>
   <v>      -0.06666667       0.40000000       0.06666667 </v>
   <v>      -0.00000000       0.46666667       0.06666667 </v>
   <v>       0.06666667       0.46666667       0.06666667 </v>
   <v>       0.13333333       0.46666667       0.06666667 </v>
   <v>       0.20000000       0.46666667       0.06666667 </v>
   <v>       0.26666667       0.46666667       0.06666667 </v>
   <v>       0.33333333       0.46666667       0.06666667 </v>
   <v>       0.40000000       0.46666667       0.06666667 </v>
   <v>       0.46666667       0.46666667       0.06666667 </v>
   <v>      -0.46666667       0.46666667       0.06666667 </v>
   <v>      -0.40000000       0.46666667       0.06666667 </v>
   <v>      -0.33333333       0.46666667       0.06666667 </v>
   <v>      -0.26666667       0.46666667       0.06666667 </v>
   <v>      -0.20000000       0.46666667       0.06666667 </v>
   <v>      -0.13333333       0.46666667       0.06666667 </v>
   <v>      -0.06666667       0.46666667       0.06666667 </v>
   <v>       0.00000000      -0.46666667       0.06666667 </v>
   <v>       0.06666667      -0.46666667       0.06666667 </v>
   <v>       0.13333333      -0.46666667       0.06666667 </v>
   <v>       0.20000000      -0.46666667       0.06666667 </v>
   <v>       0.26666667      -0.46666667       0.06666667 </v>
   <v>       0.33333333      -0.46666667       0.06666667 </v>
   <v>       0.40000000      -0.46666667       0.06666667 </v>
   <v>       0.46666667      -0.46666667       0.06666667 </v>
   <v>      -0.46666667      -0.46666667       0.06666667 </v>
   <v>      -0.40000000      -0.46666667       0.06666667 </v>
   <v>      -0.33333333      -0.46666667       0.06666667 </v>
   <v>      -0.26666667      -0.46666667       0.06666667 </v>
   <v>      -0.20000000      -0.46666667       0.06666667 </v>
   <v>      -0.13333333      -0.46666667       0.06666667 </v>
   <v>      -0.06666667      -0.46666667       0.06666667 </v>
   <v>      -0.00000000      -0.40000000       0.06666667 </v>
   <v>       0.06666667      -0.40000000       0.06666667 </v>
   <v>       0.13333333      -0.40000000       0.06666667 </v>
   <v>       0.20000000      -0.40000000       0.06666667 </v>
   <v>       0.26666667      -0.40000000       0.06666667 </v>
   <v>       0.33333333      -0.40000000       0.06666667 </v>
   <v>       0.40000000      -0.40000000       0.06666667 </v>
   <v>       0.46666667      -0.40000000       0.06666667 </v>
   <v>      -0.46666667      -0.40000000       0.06666667 </v>
   <v>      -0.40000000      -0.40000000       0.06666667 </v>
   <v>      -0.33333333      -0.40000000       0.06666667 </v>
   <v>      -0.26666667      -0.40000000       0.06666667 </v>
   <v>      -0.20000000      -0.40000000       0.06666667 </v>
   <v>      -0.13333333      -0.40000000       0.06666667 </v>
   <v>      -0.06666667      -0.40000000       0.06666667 </v>
   <v>       0.00000000      -0.33333333       0.06666667 </v>
   <v>       0.06666667      -0.33333333       0.06666667 </v>
   <v>       0.13333333      -0.33333333       0.06666667 </v>
   <v>       0.20000000      -0.33333333       0.06666667 </v>
   <v>       0.26666667      -0.33333333       0.06666667 </v>
   <v>       0.33333333      -0.33333333       0.06666667 </v>
   <v>       0.40000000      -0.33333333       0.06666667 </v>
   <v>       0.46666667      -0.33333333       0.06666667 </v>
   <v>      -0.46666667      -0.33333333       0.06666667 </v>
   <v>      -0.40000000      -0.33333333       0.06666667 </v>
   <v>      -0.33333333      -0.33333333       0.06666667 </v>
   <v>      -0.26666667      -0.33333333       0.06666667 </v>
   <v>      -0.20000000      -0.33333333       0.06666667 </v>
   <v>      -0.13333333      -0.33333333       0.06666667 </v>
   <v>      -0.06666667      -0.33333333       0.06666667 </v>
   <v>       0.00000000      -0.26666667       0.06666667 </v>
   <v>       0.06666667      -0.26666667       0.06666667 </v>
   <v>       0.13333333      -0.26666667       0.06666667 </v>
   <v>       0.20000000      -0.26666667       0.06666667 </v>
   <v>       0.26666667      -0.26666667       0.06666667 </v>
   <v>       0.33333333      -0.26666667       0.06666667 </v>
   <v>       0.40000000      -0.26666667       0.06666667 </v>
   <v>       0.46666667      -0.26666667       0.06666667 </v>
   <v>      -0.46666667      -0.26666667       0.06666667 </v>
   <v>      -0.40000000      -0.26666667       0.06666667 </v>
   <v>      -0.33333333      -0.26666667       0.06666667 </v>
   <v>      -0.26666667      -0.26666667       0.06666667 </v>
   <v>      -0.20000000      -0.26666667       0.06666667 </v>
   <v>      -0.13333333      -0.26666667       0.06666667 </v>
   <v>      -0.06666667      -0.26666667       0.06666667 </v>
   <v>       0.00000000      -0.20000000       0.06666667 </v>
   <v>       0.06666667      -0.20000000       0.06666667 </v>
   <v>       0.13333333      -0.20000000       0.06666667 </v>
   <v>       0.20000000      -0.20000000       0.06666667 </v>
   <v>       0.26666667      -0.20000000       0.06666667 </v>
   <v>       0.33333333      -0.20000000       0.06666667 </v>
   <v>       0.40000000      -0.20000000       0.06666667 </v>
   <v>       0.46666667      -0.20000000       0.06666667 </v>
   <v>      -0.46666667      -0.20000000       0.06666667 </v>
   <v>      -0.40000000      -0.20000000       0.06666667 </v>
   <v>      -0.33333333      -0.20000000       0.06666667 </v>
   <v>      -0.26666667      -0.20000000       0.06666667 </v>
   <v>      -0.20000000      -0.20000000       0.06666667 </v>
   <v>      -0.13333333      -0.20000000       0.06666667 </v>
   <v>      -0.06666667      -0.20000000       0.06666667 </v>
   <v>      -0.00000000      -0.13333333       0.06666667 </v>
   <v>       0.06666667      -0.13333333       0.06666667 </v>
   <v>       0.13333333      -0.13333333       0.06666667 </v>
   <v>       0.20000000      -0.13333333       0.06666667 </v>
   <v>       0.26666667      -0.13333333       0.06666667 </v>
   <v>       0.33333333      -0.13333333       0.06666667 </v>
   <v>       0.40000000      -0.13333333       0.06666667 </v>
   <v>       0.46666667      -0.13333333       0.06666667 </v>
   <v>      -0.46666667      -0.13333333       0.06666667 </v>
   <v>      -0.40000000      -0.13333333       0.06666667 </v>
   <v>      -0.33333333      -0.13333333       0.06666667 </v>
   <v>      -0.26666667      -0.13333333       0.06666667 </v>
   <v>      -0.20000000      -0.13333333       0.06666667 </v>
   <v>      -0.13333333      -0.13333333       0.06666667 </v>
   <v>      -0.06666667      -0.13333333       0.06666667 </v>
   <v>       0.00000000      -0.06666667       0.06666667 </v>
   <v>       0.06666667      -0.06666667       0.06666667 </v>
   <v>       0.13333333      -0.06666667       0.06666667 </v>
   <v>       0.20000000      -0.06666667       0.06666667 </v>
   <v>       0.26666667      -0.06666667       0.06666667 </v>
   <v>       0.33333333      -0.06666667       0.06666667 </v>
   <v>       0.40000000      -0.06666667       0.06666667 </v>
   <v>       0.46666667      -0.06666667       0.06666667 </v>
   <v>      -0.46666667      -0.06666667       0.06666667 </v>
   <v>      -0.40000000      -0.06666667       0.06666667 </v>
   <v>      -0.33333333      -0.06666667       0.06666667 </v>
   <v>      -0.26666667      -0.06666667       0.06666667 </v>
   <v>      -0.20000000      -0.06666667       0.06666667 </v>
   <v>      -0.13333333      -0.06666667       0.06666667 </v>
   <v>      -0.06666667      -0.06666667       0.06666667 </v>
   <v>      -0.00000000       0.00000000       0.13333333 </v>
   <v>       0.06666667       0.00000000       0.13333333 </v>
   <v>       0.13333333       0.00000000       0.13333333 </v>
   <v>       0.20000000       0.00000000       0.13333333 </v>
   <v>       0.26666667       0.00000000       0.13333333 </v>
   <v>       0.33333333       0.00000000       0.13333333 </v>
   <v>       0.40000000       0.00000000       0.13333333 </v>
   <v>       0.46666667       0.00000000       0.13333333 </v>
   <v>      -0.46666667       0.00000000       0.13333333 </v>
   <v>      -0.40000000       0.00000000       0.13333333 </v>
   <v>      -0.33333333       0.00000000       0.13333333 </v>
   <v>      -0.26666667       0.00000000       0.13333333 </v>
   <v>      -0.20000000       0.00000000       0.13333333 </v>
   <v>      -0.13333333       0.00000000       0.13333333 </v>
   <v>      -0.06666667       0.00000000       0.13333333 </v>
   <v>      -0.00000000       0.06666667       0.13333333 </v>
   <v>       0.06666667       0.06666667       0.13333333 </v>
   <v>       0.13333333       0.06666667       0.13333333 </v>
   <v>       0.20000000       0.06666667       0.13333333 </v>
   <v>       0.26666667       0.06666667       0.13333333 </v>
   <v>       0.33333333       0.06666667       0.13333333 </v>
   <v>       0.40000000       0.06666667       0.13333333 </v>
   <v>       0.46666667       0.06666667       0.13333333 </v>
   <v>      -0.46666667       0.06666667       0.13333333 </v>
   <v>      -0.40000000       0.06666667       0.13333333 </v>
   <v>      -0.33333333       0.06666667       0.13333333 </v>
   <v>      -0.26666667       0.06666667       0.13333333 </v>
   <v>      -0.20000000       0.06666667       0.13333333 </v>
   <v>      -0.13333333       0.06666667       0.13333333 </v>
   <v>      -0.06666667       0.06666667       0.13333333 </v>
   <v>      -0.00000000       0.13333333       0.13333333 </v>
   <v>       0.06666667       0.13333333       0.13333333 </v>
   <v>       0.13333333       0.13333333       0.13333333 </v>
   <v>       0.20000000       0.13333333       0.13333333 </v>
   <v>       0.26666667       0.13333333       0.13333333 </v>
   <v>       0.33333333       0.13333333       0.13333333 </v>
   <v>       0.40000000       0.13333333       0.13333333 </v>
   <v>       0.46666667       0.13333333       0.13333333 </v>
   <v>      -0.46666667       0.13333333       0.13333333 </v>
   <v>      -0.40000000       0.13333333       0.13333333 </v>
   <v>      -0.33333333       0.13333333       0.13333333 </v>
   <v>      -0.26666667       0.13333333       0.13333333 </v>
   <v>      -0.20000000       0.13333333       0.13333333 </v>
   <v>      -0.13333333       0.13333333       0.13333333 </v>
   <v>      -0.06666667       0.13333333       0.13333333 </v>
   <v>      -0.00000000       0.20000000       0.13333333 </v>
   <v>       0.06666667       0.20000000       0.13333333 </v>
   <v>       0.13333333       0.20000000       0.13333333 </v>
   <v>       0.20000000       0.20000000       0.13333333 </v>
   <v>       0.26666667       0.20000000       0.13333333 </v>
   <v>       0.33333333       0.20000000       0.13333333 </v>
   <v>       0.40000000       0.20000000       0.13333333 </v>
   <v>       0.46666667       0.20000000       0.13333333 </v>
   <v>      -0.46666667       0.20000000       0.13333333 </v>
   <v>      -0.40000000       0.20000000       0.13333333 </v>
   <v>      -0.33333333       0.20000000       0.13333333 </v>
   <v>      -0.26666667       0.20000000       0.13333333 </v>
   <v>      -0.20000000       0.20000000       0.13333333 </v>
   <v>      -0.13333333       0.20000000       0.13333333 </v>
   <v>      -0.06666667       0.20000000       0.13333333 </v>
   <v>      -0.00000000       0.26666667       0.13333333 </v>
   <v>       0.06666667       0.26666667       0.13333333 </v>
   <v>       0.13333333       0.26666667       0.13333333 </v>
   <v>       0.20000000       0.26666667       0.13333333 </v>
   <v>       0.26666667       0.26666667       0.13333333 </v>
   <v>       0.33333333       0.26666667       0.13333333 </v>
   <v>       0.40000000       0.26666667       0.13333333 </v>
   <v>       0.46666667       0.26666667       0.13333333 </v>
   <v>      -0.46666667       0.26666667       0.13333333 </v>
   <v>      -0.40000000       0.26666667       0.13333333 </v>
   <v>      -0.33333333       0.26666667       0.13333333 </v>
   <v>      -0.26666667       0.26666667       0.13333333 </v>
   <v>      -0.20000000       0.26666667       0.13333333 </v>
   <v>      -0.13333333       0.26666667       0.13333333 </v>
   <v>      -0.06666667       0.26666667       0.13333333 </v>
   <v>      -0.00000000       0.33333333       0.13333333 </v>
   <v>       0.06666667       0.33333333       0.13333333 </v>
   <v>       0.13333333       0.33333333       0.13333333 </v>
   <v>       0.20000000       0.33333333       0.13333333 </v>
   <v>       0.26666667       0.33333333       0.13333333 </v>
   <v>       0.33333333       0.33333333       0.13333333 </v>
   <v>       0.40000000       0.33333333       0.13333333 </v>
   <v>       0.46666667       0.33333333       0.13333333 </v>
   <v>      -0.46666667       0.33333333       0.13333333 </v>
   <v>      -0.40000000       0.33333333       0.13333333 </v>
   <v>      -0.33333333       0.33333333       0.13333333 </v>
   <v>      -0.26666667       0.33333333       0.13333333 </v>
   <v>      -0.20000000       0.33333333       0.13333333 </v>
   <v>      -0.13333333       0.33333333       0.13333333 </v>
   <v>      -0.06666667       0.33333333       0.13333333 </v>
   <v>       0.00000000       0.40000000       0.13333333 </v>
   <v>       0.06666667       0.40000000       0.13333333 </v>
   <v>       0.13333333       0.40000000       0.13333333 </v>
   <v>       0.20000000       0.40000000       0.13333333 </v>
   <v>       0.26666667       0.40000000       0.13333333 </v>
   <v>       0.33333333       0.40000000       0.13333333 </v>
   <v>       0.40000000       0.40000000       0.13333333 </v>
   <v>       0.46666667       0.40000000       0.13333333 </v>
   <v>      -0.46666667       0.40000000       0.13333333 </v>
   <v>      -0.40000000       0.40000000       0.13333333 </v>
   <v>      -0.33333333       0.40000000       0.13333333 </v>
   <v>      -0.26666667       0.40000000       0.13333333 </v>
   <v>      -0.20000000       0.40000000       0.13333333 </v>
   <v>      -0.13333333       0.40000000       0.13333333 </v>
   <v>      -0.06666667       0.40000000       0.13333333 </v>
   <v>       0.00000000       0.46666667       0.13333333 </v>
   <v>       0.06666667       0.46666667       0.13333333 </v>
   <v>       0.13333333       0.46666667       0.13333333 </v>
   <v>       0.20000000       0.46666667       0.13333333 </v>
   <v>       0.26666667       0.46666667       0.13333333 </v>
   <v>       0.33333333       0.46666667       0.13333333 </v>
   <v>       0.40000000       0.46666667       0.13333333 </v>
   <v>       0.46666667       0.46666667       0.13333333 </v>
   <v>      -0.46666667       0.46666667       0.13333333 </v>
   <v>      -0.40000000       0.46666667       0.13333333 </v>
   <v>      -0.33333333       0.46666667       0.13333333 </v>
   <v>      -0.26666667       0.46666667       0.13333333 </v>
   <v>      -0.20000000       0.46666667       0.13333333 </v>
   <v>      -0.13333333       0.46666667       0.13333333 </v>
   <v>      -0.06666667       0.46666667       0.13333333 </v>
   <v>       0.00000000      -0.46666667       0.13333333 </v>
   <v>       0.06666667      -0.46666667       0.13333333 </v>
   <v>       0.13333333      -0.46666667       0.13333333 </v>
   <v>       0.20000000      -0.46666667       0.13333333 </v>
   <v>       0.26666667      -0.46666667       0.13333333 </v>
   <v>       0.33333333      -0.46666667       0.13333333 </v>
   <v>       0.40000000      -0.46666667       0.13333333 </v>
   <v>       0.46666667      -0.46666667       0.13333333 </v>
   <v>      -0.46666667      -0.46666667       0.13333333 </v>
   <v>      -0.40000000      -0.46666667       0.13333333 </v>
   <v>      -0.33333333      -0.46666667       0.13333333 </v>
   <v>      -0.26666667      -0.46666667       0.13333333 </v>
   <v>      -0.20000000      -0.46666667       0.13333333 </v>
   <v>      -0.13333333      -0.46666667       0.13333333 </v>
   <v>      -0.06666667      -0.46666667       0.13333333 </v>
   <v>       0.00000000      -0.40000000       0.13333333 </v>
   <v>       0.06666667      -0.40000000       0.13333333 </v>
   <v>       0.13333333      -0.40000000       0.13333333 </v>
   <v>       0.20000000      -0.40000000       0.13333333 </v>
   <v>       0.26666667      -0.40000000       0.13333333 </v>
   <v>       0.33333333      -0.40000000       0.13333333 </v>
   <v>       0.40000000      -0.40000000       0.13333333 </v>
   <v>       0.46666667      -0.40000000       0.13333333 </v>
   <v>      -0.46666667      -0.40000000       0.13333333 </v>
   <v>      -0.40000000      -0.40000000       0.13333333 </v>
   <v>      -0.33333333      -0.40000000       0.13333333 </v>
   <v>      -0.26666667      -0.40000000       0.13333333 </v>
   <v>      -0.20000000      -0.40000000       0.13333333 </v>
   <v>      -0.13333333      -0.40000000       0.13333333 </v>
   <v>      -0.06666667      -0.40000000       0.13333333 </v>
   <v>       0.00000000      -0.33333333       0.13333333 </v>
   <v>       0.06666667      -0.33333333       0.13333333 </v>
   <v>       0.13333333      -0.33333333       0.13333333 </v>
   <v>       0.20000000      -0.33333333       0.13333333 </v>
   <v>       0.26666667      -0.33333333       0.13333333 </v>
   <v>       0.33333333      -0.33333333       0.13333333 </v>
   <v>       0.40000000      -0.33333333       0.13333333 </v>
   <v>       0.46666667      -0.33333333       0.13333333 </v>
   <v>      -0.46666667      -0.33333333       0.13333333 </v>
   <v>      -0.40000000      -0.33333333       0.13333333 </v>
   <v>      -0.33333333      -0.33333333       0.13333333 </v>
   <v>      -0.26666667      -0.33333333       0.13333333 </v>
   <v>      -0.20000000      -0.33333333       0.13333333 </v>
   <v>      -0.13333333      -0.33333333       0.13333333 </v>
   <v>      -0.06666667      -0.33333333       0.13333333 </v>
   <v>       0.00000000      -0.26666667       0.13333333 </v>
   <v>       0.06666667      -0.26666667       0.13333333 </v>
   <v>       0.13333333      -0.26666667       0.13333333 </v>
   <v>       0.20000000      -0.26666667       0.13333333 </v>
   <v>       0.26666667      -0.26666667       0.13333333 </v>
   <v>       0.33333333      -0.26666667       0.13333333 </v>
   <v>       0.40000000      -0.26666667       0.13333333 </v>
   <v>       0.46666667      -0.26666667       0.13333333 </v>
   <v>      -0.46666667      -0.26666667       0.13333333 </v>
   <v>      -0.40000000      -0.26666667       0.13333333 </v>
   <v>      -0.33333333      -0.26666667       0.13333333 </v>
   <v>      -0.26666667      -0.26666667       0.13333333 </v>
   <v>      -0.20000000      -0.26666667       0.13333333 </v>
   <v>      -0.13333333      -0.26666667       0.13333333 </v>
   <v>      -0.06666667      -0.26666667       0.13333333 </v>
   <v>       0.00000000      -0.20000000       0.13333333 </v>
   <v>       0.06666667      -0.20000000       0.13333333 </v>
   <v>       0.13333333      -0.20000000       0.13333333 </v>
   <v>       0.20000000      -0.20000000       0.13333333 </v>
   <v>       0.26666667      -0.20000000       0.13333333 </v>
   <v>       0.33333333      -0.20000000       0.13333333 </v>
   <v>       0.40000000      -0.20000000       0.13333333 </v>
   <v>       0.46666667      -0.20000000       0.13333333 </v>
   <v>      -0.46666667      -0.20000000       0.13333333 </v>
   <v>      -0.40000000      -0.20000000       0.13333333 </v>
   <v>      -0.33333333      -0.20000000       0.13333333 </v>
   <v>      -0.26666667      -0.20000000       0.13333333 </v>
   <v>      -0.20000000      -0.20000000       0.13333333 </v>
   <v>      -0.13333333      -0.20000000       0.13333333 </v>
   <v>      -0.06666667      -0.20000000       0.13333333 </v>
   <v>       0.00000000      -0.13333333       0.13333333 </v>
   <v>       0.06666667      -0.13333333       0.13333333 </v>
   <v>       0.13333333      -0.13333333       0.13333333 </v>
   <v>       0.20000000      -0.13333333       0.13333333 </v>
   <v>       0.26666667      -0.13333333       0.13333333 </v>
   <v>       0.33333333      -0.13333333       0.13333333 </v>
   <v>       0.40000000      -0.13333333       0.13333333 </v>
   <v>       0.46666667      -0.13333333       0.13333333 </v>
   <v>      -0.46666667      -0.13333333       0.13333333 </v>
   <v>      -0.40000000      -0.13333333       0.13333333 </v>
   <v>      -0.33333333      -0.13333333       0.13333333 </v>
   <v>      -0.26666667      -0.13333333       0.13333333 </v>
   <v>      -0.20000000      -0.13333333       0.13333333 </v>
   <v>      -0.13333333      -0.13333333       0.13333333 </v>
   <v>      -0.06666667      -0.13333333       0.13333333 </v>
   <v>      -0.00000000      -0.06666667       0.13333333 </v>
   <v>       0.06666667      -0.06666667       0.13333333 </v>
   <v>       0.13333333      -0.06666667       0.13333333 </v>
   <v>       0.20000000      -0.06666667       0.13333333 </v>
   <v>       0.26666667      -0.06666667       0.13333333 </v>
   <v>       0.33333333      -0.06666667       0.13333333 </v>
   <v>       0.40000000      -0.06666667       0.13333333 </v>
   <v>       0.46666667      -0.06666667       0.13333333 </v>
   <v>      -0.46666667      -0.06666667       0.13333333 </v>
   <v>      -0.40000000      -0.06666667       0.13333333 </v>
   <v>      -0.33333333      -0.06666667       0.13333333 </v>
   <v>      -0.26666667      -0.06666667       0.13333333 </v>
   <v>      -0.20000000      -0.06666667       0.13333333 </v>
   <v>      -0.13333333      -0.06666667       0.13333333 </v>
   <v>      -0.06666667      -0.06666667       0.13333333 </v>
   <v>       0.00000000      -0.00000000       0.20000000 </v>
   <v>       0.06666667       0.00000000       0.20000000 </v>
   <v>       0.13333333      -0.00000000       0.20000000 </v>
   <v>       0.20000000      -0.00000000       0.20000000 </v>
   <v>       0.26666667       0.00000000       0.20000000 </v>
   <v>       0.33333333       0.00000000       0.20000000 </v>
   <v>       0.40000000       0.00000000       0.20000000 </v>
   <v>       0.46666667      -0.00000000       0.20000000 </v>
   <v>      -0.46666667       0.00000000       0.20000000 </v>
   <v>      -0.40000000       0.00000000       0.20000000 </v>
   <v>      -0.33333333      -0.00000000       0.20000000 </v>
   <v>      -0.26666667       0.00000000       0.20000000 </v>
   <v>      -0.20000000      -0.00000000       0.20000000 </v>
   <v>      -0.13333333       0.00000000       0.20000000 </v>
   <v>      -0.06666667      -0.00000000       0.20000000 </v>
   <v>       0.00000000       0.06666667       0.20000000 </v>
   <v>       0.06666667       0.06666667       0.20000000 </v>
   <v>       0.13333333       0.06666667       0.20000000 </v>
   <v>       0.20000000       0.06666667       0.20000000 </v>
   <v>       0.26666667       0.06666667       0.20000000 </v>
   <v>       0.33333333       0.06666667       0.20000000 </v>
   <v>       0.40000000       0.06666667       0.20000000 </v>
   <v>       0.46666667       0.06666667       0.20000000 </v>
   <v>      -0.46666667       0.06666667       0.20000000 </v>
   <v>      -0.40000000       0.06666667       0.20000000 </v>
   <v>      -0.33333333       0.06666667       0.20000000 </v>
   <v>      -0.26666667       0.06666667       0.20000000 </v>
   <v>      -0.20000000       0.06666667       0.20000000 </v>
   <v>      -0.13333333       0.06666667       0.20000000 </v>
   <v>      -0.06666667       0.06666667       0.20000000 </v>
   <v>       0.00000000       0.13333333       0.20000000 </v>
   <v>       0.06666667       0.13333333       0.20000000 </v>
   <v>       0.13333333       0.13333333       0.20000000 </v>
   <v>       0.20000000       0.13333333       0.20000000 </v>
   <v>       0.26666667       0.13333333       0.20000000 </v>
   <v>       0.33333333       0.13333333       0.20000000 </v>
   <v>       0.40000000       0.13333333       0.20000000 </v>
   <v>       0.46666667       0.13333333       0.20000000 </v>
   <v>      -0.46666667       0.13333333       0.20000000 </v>
   <v>      -0.40000000       0.13333333       0.20000000 </v>
   <v>      -0.33333333       0.13333333       0.20000000 </v>
   <v>      -0.26666667       0.13333333       0.20000000 </v>
   <v>      -0.20000000       0.13333333       0.20000000 </v>
   <v>      -0.13333333       0.13333333       0.20000000 </v>
   <v>      -0.06666667       0.13333333       0.20000000 </v>
   <v>       0.00000000       0.20000000       0.20000000 </v>
   <v>       0.06666667       0.20000000       0.20000000 </v>
   <v>       0.13333333       0.20000000       0.20000000 </v>
   <v>       0.20000000       0.20000000       0.20000000 </v>
   <v>       0.26666667       0.20000000       0.20000000 </v>
   <v>       0.33333333       0.20000000       0.20000000 </v>
   <v>       0.40000000       0.20000000       0.20000000 </v>
   <v>       0.46666667       0.20000000       0.20000000 </v>
   <v>      -0.46666667       0.20000000       0.20000000 </v>
   <v>      -0.40000000       0.20000000       0.20000000 </v>
   <v>      -0.33333333       0.20000000       0.20000000 </v>
   <v>      -0.26666667       0.20000000       0.20000000 </v>
   <v>      -0.20000000       0.20000000       0.20000000 </v>
   <v>      -0.13333333       0.20000000       0.20000000 </v>
   <v>      -0.06666667       0.20000000       0.20000000 </v>
   <v>       0.00000000       0.26666667       0.20000000 </v>
   <v>       0.06666667       0.26666667       0.20000000 </v>
   <v>       0.13333333       0.26666667       0.20000000 </v>
   <v>       0.20000000       0.26666667       0.20000000 </v>
   <v>       0.26666667       0.26666667       0.20000000 </v>
   <v>       0.33333333       0.26666667       0.20000000 </v>
   <v>       0.40000000       0.26666667       0.20000000 </v>
   <v>       0.46666667       0.26666667       0.20000000 </v>
   <v>      -0.46666667       0.26666667       0.20000000 </v>
   <v>      -0.40000000       0.26666667       0.20000000 </v>
   <v>      -0.33333333       0.26666667       0.20000000 </v>
   <v>      -0.26666667       0.26666667       0.20000000 </v>
   <v>      -0.20000000       0.26666667       0.20000000 </v>
   <v>      -0.13333333       0.26666667       0.20000000 </v>
   <v>      -0.06666667       0.26666667       0.20000000 </v>
   <v>      -0.00000000       0.33333333       0.20000000 </v>
   <v>       0.06666667       0.33333333       0.20000000 </v>
   <v>       0.13333333       0.33333333       0.20000000 </v>
   <v>       0.20000000       0.33333333       0.20000000 </v>
   <v>       0.26666667       0.33333333       0.20000000 </v>
   <v>       0.33333333       0.33333333       0.20000000 </v>
   <v>       0.40000000       0.33333333       0.20000000 </v>
   <v>       0.46666667       0.33333333       0.20000000 </v>
   <v>      -0.46666667       0.33333333       0.20000000 </v>
   <v>      -0.40000000       0.33333333       0.20000000 </v>
   <v>      -0.33333333       0.33333333       0.20000000 </v>
   <v>      -0.26666667       0.33333333       0.20000000 </v>
   <v>      -0.20000000       0.33333333       0.20000000 </v>
   <v>      -0.13333333       0.33333333       0.20000000 </v>
   <v>      -0.06666667       0.33333333       0.20000000 </v>
   <v>       0.00000000       0.40000000       0.20000000 </v>
   <v>       0.06666667       0.40000000       0.20000000 </v>
   <v>       0.13333333       0.40000000       0.20000000 </v>
   <v>       0.20000000       0.40000000       0.20000000 </v>
   <v>       0.26666667       0.40000000       0.20000000 </v>
   <v>       0.33333333       0.40000000       0.20000000 </v>
   <v>       0.40000000       0.40000000       0.20000000 </v>
   <v>       0.46666667       0.40000000       0.20000000 </v>
   <v>      -0.46666667       0.40000000       0.20000000 </v>
   <v>      -0.40000000       0.40000000       0.20000000 </v>
   <v>      -0.33333333       0.40000000       0.20000000 </v>
   <v>      -0.26666667       0.40000000       0.20000000 </v>
   <v>      -0.20000000       0.40000000       0.20000000 </v>
   <v>      -0.13333333       0.40000000       0.20000000 </v>
   <v>      -0.06666667       0.40000000       0.20000000 </v>
   <v>       0.00000000       0.46666667       0.20000000 </v>
   <v>       0.06666667       0.46666667       0.20000000 </v>
   <v>       0.13333333       0.46666667       0.20000000 </v>
   <v>       0.20000000       0.46666667       0.20000000 </v>
   <v>       0.26666667       0.46666667       0.20000000 </v>
   <v>       0.33333333       0.46666667       0.20000000 </v>
   <v>       0.40000000       0.46666667       0.20000000 </v>
   <v>       0.46666667       0.46666667       0.20000000 </v>
   <v>      -0.46666667       0.46666667       0.20000000 </v>
   <v>      -0.40000000       0.46666667       0.20000000 </v>
   <v>      -0.33333333       0.46666667       0.20000000 </v>
   <v>      -0.26666667       0.46666667       0.20000000 </v>
   <v>      -0.20000000       0.46666667       0.20000000 </v>
   <v>      -0.13333333       0.46666667       0.20000000 </v>
   <v>      -0.06666667       0.46666667       0.20000000 </v>
   <v>       0.00000000      -0.46666667       0.20000000 </v>
   <v>       0.06666667      -0.46666667       0.20000000 </v>
   <v>       0.13333333      -0.46666667       0.20000000 </v>
   <v>       0.20000000      -0.46666667       0.20000000 </v>
   <v>       0.26666667      -0.46666667       0.20000000 </v>
   <v>       0.33333333      -0.46666667       0.20000000 </v>
   <v>       0.40000000      -0.46666667       0.20000000 </v>
   <v>       0.46666667      -0.46666667       0.20000000 </v>
   <v>      -0.46666667      -0.46666667       0.20000000 </v>
   <v>      -0.40000000      -0.46666667       0.20000000 </v>
   <v>      -0.33333333      -0.46666667       0.20000000 </v>
   <v>      -0.26666667      -0.46666667       0.20000000 </v>
   <v>      -0.20000000      -0.46666667       0.20000000 </v>
   <v>      -0.13333333      -0.46666667       0.20000000 </v>
   <v>      -0.06666667      -0.46666667       0.20000000 </v>
   <v>       0.00000000      -0.40000000       0.20000000 </v>
   <v>       0.06666667      -0.40000000       0.20000000 </v>
   <v>       0.13333333      -0.40000000       0.20000000 </v>
   <v>       0.20000000      -0.40000000       0.20000000 </v>
   <v>       0.26666667      -0.40000000       0.20000000 </v>
   <v>       0.33333333      -0.40000000       0.20000000 </v>
   <v>       0.40000000      -0.40000000       0.20000000 </v>
   <v>       0.46666667      -0.40000000       0.20000000 </v>
   <v>      -0.46666667      -0.40000000       0.20000000 </v>
   <v>      -0.40000000      -0.40000000       0.20000000 </v>
   <v>      -0.33333333      -0.40000000       0.20000000 </v>
   <v>      -0.26666667      -0.40000000       0.20000000 </v>
   <v>      -0.20000000      -0.40000000       0.20000000 </v>
   <v>      -0.13333333      -0.40000000       0.20000000 </v>
   <v>      -0.06666667      -0.40000000       0.20000000 </v>
   <v>       0.00000000      -0.33333333       0.20000000 </v>
   <v>       0.06666667      -0.33333333       0.20000000 </v>
   <v>       0.13333333      -0.33333333       0.20000000 </v>
   <v>       0.20000000      -0.33333333       0.20000000 </v>
   <v>       0.26666667      -0.33333333       0.20000000 </v>
   <v>       0.33333333      -0.33333333       0.20000000 </v>
   <v>       0.40000000      -0.33333333       0.20000000 </v>
   <v>       0.46666667      -0.33333333       0.20000000 </v>
   <v>      -0.46666667      -0.33333333       0.20000000 </v>
   <v>      -0.40000000      -0.33333333       0.20000000 </v>
   <v>      -0.33333333      -0.33333333       0.20000000 </v>
   <v>      -0.26666667      -0.33333333       0.20000000 </v>
   <v>      -0.20000000      -0.33333333       0.20000000 </v>
   <v>      -0.13333333      -0.33333333       0.20000000 </v>
   <v>      -0.06666667      -0.33333333       0.20000000 </v>
   <v>       0.00000000      -0.26666667       0.20000000 </v>
   <v>       0.06666667      -0.26666667       0.20000000 </v>
   <v>       0.13333333      -0.26666667       0.20000000 </v>
   <v>       0.20000000      -0.26666667       0.20000000 </v>
   <v>       0.26666667      -0.26666667       0.20000000 </v>
   <v>       0.33333333      -0.26666667       0.20000000 </v>
   <v>       0.40000000      -0.26666667       0.20000000 </v>
   <v>       0.46666667      -0.26666667       0.20000000 </v>
   <v>      -0.46666667      -0.26666667       0.20000000 </v>
   <v>      -0.40000000      -0.26666667       0.20000000 </v>
   <v>      -0.33333333      -0.26666667       0.20000000 </v>
   <v>      -0.26666667      -0.26666667       0.20000000 </v>
   <v>      -0.20000000      -0.26666667       0.20000000 </v>
   <v>      -0.13333333      -0.26666667       0.20000000 </v>
   <v>      -0.06666667      -0.26666667       0.20000000 </v>
   <v>       0.00000000      -0.20000000       0.20000000 </v>
   <v>       0.06666667      -0.20000000       0.20000000 </v>
   <v>       0.13333333      -0.20000000       0.20000000 </v>
   <v>       0.20000000      -0.20000000       0.20000000 </v>
   <v>       0.26666667      -0.20000000       0.20000000 </v>
   <v>       0.33333333      -0.20000000       0.20000000 </v>
   <v>       0.40000000      -0.20000000       0.20000000 </v>
   <v>       0.46666667      -0.20000000       0.20000000 </v>
   <v>      -0.46666667      -0.20000000       0.20000000 </v>
   <v>      -0.40000000      -0.20000000       0.20000000 </v>
   <v>      -0.33333333      -0.20000000       0.20000000 </v>
   <v>      -0.26666667      -0.20000000       0.20000000 </v>
   <v>      -0.20000000      -0.20000000       0.20000000 </v>
   <v>      -0.13333333      -0.20000000       0.20000000 </v>
   <v>      -0.06666667      -0.20000000       0.20000000 </v>
   <v>       0.00000000      -0.13333333       0.20000000 </v>
   <v>       0.06666667      -0.13333333       0.20000000 </v>
   <v>       0.13333333      -0.13333333       0.20000000 </v>
   <v>       0.20000000      -0.13333333       0.20000000 </v>
   <v>       0.26666667      -0.13333333       0.20000000 </v>
   <v>       0.33333333      -0.13333333       0.20000000 </v>
   <v>       0.40000000      -0.13333333       0.20000000 </v>
   <v>       0.46666667      -0.13333333       0.20000000 </v>
   <v>      -0.46666667      -0.13333333       0.20000000 </v>
   <v>      -0.40000000      -0.13333333       0.20000000 </v>
   <v>      -0.33333333      -0.13333333       0.20000000 </v>
   <v>      -0.26666667      -0.13333333       0.20000000 </v>
   <v>      -0.20000000      -0.13333333       0.20000000 </v>
   <v>      -0.13333333      -0.13333333       0.20000000 </v>
   <v>      -0.06666667      -0.13333333       0.20000000 </v>
   <v>       0.00000000      -0.06666667       0.20000000 </v>
   <v>       0.06666667      -0.06666667       0.20000000 </v>
   <v>       0.13333333      -0.06666667       0.20000000 </v>
   <v>       0.20000000      -0.06666667       0.20000000 </v>
   <v>       0.26666667      -0.06666667       0.20000000 </v>
   <v>       0.33333333      -0.06666667       0.20000000 </v>
   <v>       0.40000000      -0.06666667       0.20000000 </v>
   <v>       0.46666667      -0.06666667       0.20000000 </v>
   <v>      -0.46666667      -0.06666667       0.20000000 </v>
   <v>      -0.40000000      -0.06666667       0.20000000 </v>
   <v>      -0.33333333      -0.06666667       0.20000000 </v>
   <v>      -0.26666667      -0.06666667       0.20000000 </v>
   <v>      -0.20000000      -0.06666667       0.20000000 </v>
   <v>      -0.13333333      -0.06666667       0.20000000 </v>
   <v>      -0.06666667      -0.06666667       0.20000000 </v>
   <v>       0.00000000       0.00000000       0.26666667 </v>
   <v>       0.06666667       0.00000000       0.26666667 </v>
   <v>       0.13333333       0.00000000       0.26666667 </v>
   <v>       0.20000000      -0.00000000       0.26666667 </v>
   <v>       0.26666667      -0.00000000       0.26666667 </v>
   <v>       0.33333333       0.00000000       0.26666667 </v>
   <v>       0.40000000      -0.00000000       0.26666667 </v>
   <v>       0.46666667       0.00000000       0.26666667 </v>
   <v>      -0.46666667      -0.00000000       0.26666667 </v>
   <v>      -0.40000000       0.00000000       0.26666667 </v>
   <v>      -0.33333333       0.00000000       0.26666667 </v>
   <v>      -0.26666667       0.00000000       0.26666667 </v>
   <v>      -0.20000000       0.00000000       0.26666667 </v>
   <v>      -0.13333333       0.00000000       0.26666667 </v>
   <v>      -0.06666667       0.00000000       0.26666667 </v>
   <v>       0.00000000       0.06666667       0.26666667 </v>
   <v>       0.06666667       0.06666667       0.26666667 </v>
   <v>       0.13333333       0.06666667       0.26666667 </v>
   <v>       0.20000000       0.06666667       0.26666667 </v>
   <v>       0.26666667       0.06666667       0.26666667 </v>
   <v>       0.33333333       0.06666667       0.26666667 </v>
   <v>       0.40000000       0.06666667       0.26666667 </v>
   <v>       0.46666667       0.06666667       0.26666667 </v>
   <v>      -0.46666667       0.06666667       0.26666667 </v>
   <v>      -0.40000000       0.06666667       0.26666667 </v>
   <v>      -0.33333333       0.06666667       0.26666667 </v>
   <v>      -0.26666667       0.06666667       0.26666667 </v>
   <v>      -0.20000000       0.06666667       0.26666667 </v>
   <v>      -0.13333333       0.06666667       0.26666667 </v>
   <v>      -0.06666667       0.06666667       0.26666667 </v>
   <v>      -0.00000000       0.13333333       0.26666667 </v>
   <v>       0.06666667       0.13333333       0.26666667 </v>
   <v>       0.13333333       0.13333333       0.26666667 </v>
   <v>       0.20000000       0.13333333       0.26666667 </v>
   <v>       0.26666667       0.13333333       0.26666667 </v>
   <v>       0.33333333       0.13333333       0.26666667 </v>
   <v>       0.40000000       0.13333333       0.26666667 </v>
   <v>       0.46666667       0.13333333       0.26666667 </v>
   <v>      -0.46666667       0.13333333       0.26666667 </v>
   <v>      -0.40000000       0.13333333       0.26666667 </v>
   <v>      -0.33333333       0.13333333       0.26666667 </v>
   <v>      -0.26666667       0.13333333       0.26666667 </v>
   <v>      -0.20000000       0.13333333       0.26666667 </v>
   <v>      -0.13333333       0.13333333       0.26666667 </v>
   <v>      -0.06666667       0.13333333       0.26666667 </v>
   <v>       0.00000000       0.20000000       0.26666667 </v>
   <v>       0.06666667       0.20000000       0.26666667 </v>
   <v>       0.13333333       0.20000000       0.26666667 </v>
   <v>       0.20000000       0.20000000       0.26666667 </v>
   <v>       0.26666667       0.20000000       0.26666667 </v>
   <v>       0.33333333       0.20000000       0.26666667 </v>
   <v>       0.40000000       0.20000000       0.26666667 </v>
   <v>       0.46666667       0.20000000       0.26666667 </v>
   <v>      -0.46666667       0.20000000       0.26666667 </v>
   <v>      -0.40000000       0.20000000       0.26666667 </v>
   <v>      -0.33333333       0.20000000       0.26666667 </v>
   <v>      -0.26666667       0.20000000       0.26666667 </v>
   <v>      -0.20000000       0.20000000       0.26666667 </v>
   <v>      -0.13333333       0.20000000       0.26666667 </v>
   <v>      -0.06666667       0.20000000       0.26666667 </v>
   <v>       0.00000000       0.26666667       0.26666667 </v>
   <v>       0.06666667       0.26666667       0.26666667 </v>
   <v>       0.13333333       0.26666667       0.26666667 </v>
   <v>       0.20000000       0.26666667       0.26666667 </v>
   <v>       0.26666667       0.26666667       0.26666667 </v>
   <v>       0.33333333       0.26666667       0.26666667 </v>
   <v>       0.40000000       0.26666667       0.26666667 </v>
   <v>       0.46666667       0.26666667       0.26666667 </v>
   <v>      -0.46666667       0.26666667       0.26666667 </v>
   <v>      -0.40000000       0.26666667       0.26666667 </v>
   <v>      -0.33333333       0.26666667       0.26666667 </v>
   <v>      -0.26666667       0.26666667       0.26666667 </v>
   <v>      -0.20000000       0.26666667       0.26666667 </v>
   <v>      -0.13333333       0.26666667       0.26666667 </v>
   <v>      -0.06666667       0.26666667       0.26666667 </v>
   <v>       0.00000000       0.33333333       0.26666667 </v>
   <v>       0.06666667       0.33333333       0.26666667 </v>
   <v>       0.13333333       0.33333333       0.26666667 </v>
   <v>       0.20000000       0.33333333       0.26666667 </v>
   <v>       0.26666667       0.33333333       0.26666667 </v>
   <v>       0.33333333       0.33333333       0.26666667 </v>
   <v>       0.40000000       0.33333333       0.26666667 </v>
   <v>       0.46666667       0.33333333       0.26666667 </v>
   <v>      -0.46666667       0.33333333       0.26666667 </v>
   <v>      -0.40000000       0.33333333       0.26666667 </v>
   <v>      -0.33333333       0.33333333       0.26666667 </v>
   <v>      -0.26666667       0.33333333       0.26666667 </v>
   <v>      -0.20000000       0.33333333       0.26666667 </v>
   <v>      -0.13333333       0.33333333       0.26666667 </v>
   <v>      -0.06666667       0.33333333       0.26666667 </v>
   <v>       0.00000000       0.40000000       0.26666667 </v>
   <v>       0.06666667       0.40000000       0.26666667 </v>
   <v>       0.13333333       0.40000000       0.26666667 </v>
   <v>       0.20000000       0.40000000       0.26666667 </v>
   <v>       0.26666667       0.40000000       0.26666667 </v>
   <v>       0.33333333       0.40000000       0.26666667 </v>
   <v>       0.40000000       0.40000000       0.26666667 </v>
   <v>       0.46666667       0.40000000       0.26666667 </v>
   <v>      -0.46666667       0.40000000       0.26666667 </v>
   <v>      -0.40000000       0.40000000       0.26666667 </v>
   <v>      -0.33333333       0.40000000       0.26666667 </v>
   <v>      -0.26666667       0.40000000       0.26666667 </v>
   <v>      -0.20000000       0.40000000       0.26666667 </v>
   <v>      -0.13333333       0.40000000       0.26666667 </v>
   <v>      -0.06666667       0.40000000       0.26666667 </v>
   <v>      -0.00000000       0.46666667       0.26666667 </v>
   <v>       0.06666667       0.46666667       0.26666667 </v>
   <v>       0.13333333       0.46666667       0.26666667 </v>
   <v>       0.20000000       0.46666667       0.26666667 </v>
   <v>       0.26666667       0.46666667       0.26666667 </v>
   <v>       0.33333333       0.46666667       0.26666667 </v>
   <v>       0.40000000       0.46666667       0.26666667 </v>
   <v>       0.46666667       0.46666667       0.26666667 </v>
   <v>      -0.46666667       0.46666667       0.26666667 </v>
   <v>      -0.40000000       0.46666667       0.26666667 </v>
   <v>      -0.33333333       0.46666667       0.26666667 </v>
   <v>      -0.26666667       0.46666667       0.26666667 </v>
   <v>      -0.20000000       0.46666667       0.26666667 </v>
   <v>      -0.13333333       0.46666667       0.26666667 </v>
   <v>      -0.06666667       0.46666667       0.26666667 </v>
   <v>       0.00000000      -0.46666667       0.26666667 </v>
   <v>       0.06666667      -0.46666667       0.26666667 </v>
   <v>       0.13333333      -0.46666667       0.26666667 </v>
   <v>       0.20000000      -0.46666667       0.26666667 </v>
   <v>       0.26666667      -0.46666667       0.26666667 </v>
   <v>       0.33333333      -0.46666667       0.26666667 </v>
   <v>       0.40000000      -0.46666667       0.26666667 </v>
   <v>       0.46666667      -0.46666667       0.26666667 </v>
   <v>      -0.46666667      -0.46666667       0.26666667 </v>
   <v>      -0.40000000      -0.46666667       0.26666667 </v>
   <v>      -0.33333333      -0.46666667       0.26666667 </v>
   <v>      -0.26666667      -0.46666667       0.26666667 </v>
   <v>      -0.20000000      -0.46666667       0.26666667 </v>
   <v>      -0.13333333      -0.46666667       0.26666667 </v>
   <v>      -0.06666667      -0.46666667       0.26666667 </v>
   <v>       0.00000000      -0.40000000       0.26666667 </v>
   <v>       0.06666667      -0.40000000       0.26666667 </v>
   <v>       0.13333333      -0.40000000       0.26666667 </v>
   <v>       0.20000000      -0.40000000       0.26666667 </v>
   <v>       0.26666667      -0.40000000       0.26666667 </v>
   <v>       0.33333333      -0.40000000       0.26666667 </v>
   <v>       0.40000000      -0.40000000       0.26666667 </v>
   <v>       0.46666667      -0.40000000       0.26666667 </v>
   <v>      -0.46666667      -0.40000000       0.26666667 </v>
   <v>      -0.40000000      -0.40000000       0.26666667 </v>
   <v>      -0.33333333      -0.40000000       0.26666667 </v>
   <v>      -0.26666667      -0.40000000       0.26666667 </v>
   <v>      -0.20000000      -0.40000000       0.26666667 </v>
   <v>      -0.13333333      -0.40000000       0.26666667 </v>
   <v>      -0.06666667      -0.40000000       0.26666667 </v>
   <v>       0.00000000      -0.33333333       0.26666667 </v>
   <v>       0.06666667      -0.33333333       0.26666667 </v>
   <v>       0.13333333      -0.33333333       0.26666667 </v>
   <v>       0.20000000      -0.33333333       0.26666667 </v>
   <v>       0.26666667      -0.33333333       0.26666667 </v>
   <v>       0.33333333      -0.33333333       0.26666667 </v>
   <v>       0.40000000      -0.33333333       0.26666667 </v>
   <v>       0.46666667      -0.33333333       0.26666667 </v>
   <v>      -0.46666667      -0.33333333       0.26666667 </v>
   <v>      -0.40000000      -0.33333333       0.26666667 </v>
   <v>      -0.33333333      -0.33333333       0.26666667 </v>
   <v>      -0.26666667      -0.33333333       0.26666667 </v>
   <v>      -0.20000000      -0.33333333       0.26666667 </v>
   <v>      -0.13333333      -0.33333333       0.26666667 </v>
   <v>      -0.06666667      -0.33333333       0.26666667 </v>
   <v>       0.00000000      -0.26666667       0.26666667 </v>
   <v>       0.06666667      -0.26666667       0.26666667 </v>
   <v>       0.13333333      -0.26666667       0.26666667 </v>
   <v>       0.20000000      -0.26666667       0.26666667 </v>
   <v>       0.26666667      -0.26666667       0.26666667 </v>
   <v>       0.33333333      -0.26666667       0.26666667 </v>
   <v>       0.40000000      -0.26666667       0.26666667 </v>
   <v>       0.46666667      -0.26666667       0.26666667 </v>
   <v>      -0.46666667      -0.26666667       0.26666667 </v>
   <v>      -0.40000000      -0.26666667       0.26666667 </v>
   <v>      -0.33333333      -0.26666667       0.26666667 </v>
   <v>      -0.26666667      -0.26666667       0.26666667 </v>
   <v>      -0.20000000      -0.26666667       0.26666667 </v>
   <v>      -0.13333333      -0.26666667       0.26666667 </v>
   <v>      -0.06666667      -0.26666667       0.26666667 </v>
   <v>       0.00000000      -0.20000000       0.26666667 </v>
   <v>       0.06666667      -0.20000000       0.26666667 </v>
   <v>       0.13333333      -0.20000000       0.26666667 </v>
   <v>       0.20000000      -0.20000000       0.26666667 </v>
   <v>       0.26666667      -0.20000000       0.26666667 </v>
   <v>       0.33333333      -0.20000000       0.26666667 </v>
   <v>       0.40000000      -0.20000000       0.26666667 </v>
   <v>       0.46666667      -0.20000000       0.26666667 </v>
   <v>      -0.46666667      -0.20000000       0.26666667 </v>
   <v>      -0.40000000      -0.20000000       0.26666667 </v>
   <v>      -0.33333333      -0.20000000       0.26666667 </v>
   <v>      -0.26666667      -0.20000000       0.26666667 </v>
   <v>      -0.20000000      -0.20000000       0.26666667 </v>
   <v>      -0.13333333      -0.20000000       0.26666667 </v>
   <v>      -0.06666667      -0.20000000       0.26666667 </v>
   <v>       0.00000000      -0.13333333       0.26666667 </v>
   <v>       0.06666667      -0.13333333       0.26666667 </v>
   <v>       0.13333333      -0.13333333       0.26666667 </v>
   <v>       0.20000000      -0.13333333       0.26666667 </v>
   <v>       0.26666667      -0.13333333       0.26666667 </v>
   <v>       0.33333333      -0.13333333       0.26666667 </v>
   <v>       0.40000000      -0.13333333       0.26666667 </v>
   <v>       0.46666667      -0.13333333       0.26666667 </v>
   <v>      -0.46666667      -0.13333333       0.26666667 </v>
   <v>      -0.40000000      -0.13333333       0.26666667 </v>
   <v>      -0.33333333      -0.13333333       0.26666667 </v>
   <v>      -0.26666667      -0.13333333       0.26666667 </v>
   <v>      -0.20000000      -0.13333333       0.26666667 </v>
   <v>      -0.13333333      -0.13333333       0.26666667 </v>
   <v>      -0.06666667      -0.13333333       0.26666667 </v>
   <v>       0.00000000      -0.06666667       0.26666667 </v>
   <v>       0.06666667      -0.06666667       0.26666667 </v>
   <v>       0.13333333      -0.06666667       0.26666667 </v>
   <v>       0.20000000      -0.06666667       0.26666667 </v>
   <v>       0.26666667      -0.06666667       0.26666667 </v>
   <v>       0.33333333      -0.06666667       0.26666667 </v>
   <v>       0.40000000      -0.06666667       0.26666667 </v>
   <v>       0.46666667      -0.06666667       0.26666667 </v>
   <v>      -0.46666667      -0.06666667       0.26666667 </v>
   <v>      -0.40000000      -0.06666667       0.26666667 </v>
   <v>      -0.33333333      -0.06666667       0.26666667 </v>
   <v>      -0.26666667      -0.06666667       0.26666667 </v>
   <v>      -0.20000000      -0.06666667       0.26666667 </v>
   <v>      -0.13333333      -0.06666667       0.26666667 </v>
   <v>      -0.06666667      -0.06666667       0.26666667 </v>
   <v>       0.00000000       0.00000000       0.33333333 </v>
   <v>       0.06666667       0.00000000       0.33333333 </v>
   <v>       0.13333333       0.00000000       0.33333333 </v>
   <v>       0.20000000       0.00000000       0.33333333 </v>
   <v>       0.26666667       0.00000000       0.33333333 </v>
   <v>       0.33333333       0.00000000       0.33333333 </v>
   <v>       0.40000000       0.00000000       0.33333333 </v>
   <v>       0.46666667       0.00000000       0.33333333 </v>
   <v>      -0.46666667       0.00000000       0.33333333 </v>
   <v>      -0.40000000       0.00000000       0.33333333 </v>
   <v>      -0.33333333       0.00000000       0.33333333 </v>
   <v>      -0.26666667       0.00000000       0.33333333 </v>
   <v>      -0.20000000       0.00000000       0.33333333 </v>
   <v>      -0.13333333       0.00000000       0.33333333 </v>
   <v>      -0.06666667      -0.00000000       0.33333333 </v>
   <v>       0.00000000       0.06666667       0.33333333 </v>
   <v>       0.06666667       0.06666667       0.33333333 </v>
   <v>       0.13333333       0.06666667       0.33333333 </v>
   <v>       0.20000000       0.06666667       0.33333333 </v>
   <v>       0.26666667       0.06666667       0.33333333 </v>
   <v>       0.33333333       0.06666667       0.33333333 </v>
   <v>       0.40000000       0.06666667       0.33333333 </v>
   <v>       0.46666667       0.06666667       0.33333333 </v>
   <v>      -0.46666667       0.06666667       0.33333333 </v>
   <v>      -0.40000000       0.06666667       0.33333333 </v>
   <v>      -0.33333333       0.06666667       0.33333333 </v>
   <v>      -0.26666667       0.06666667       0.33333333 </v>
   <v>      -0.20000000       0.06666667       0.33333333 </v>
   <v>      -0.13333333       0.06666667       0.33333333 </v>
   <v>      -0.06666667       0.06666667       0.33333333 </v>
   <v>       0.00000000       0.13333333       0.33333333 </v>
   <v>       0.06666667       0.13333333       0.33333333 </v>
   <v>       0.13333333       0.13333333       0.33333333 </v>
   <v>       0.20000000       0.13333333       0.33333333 </v>
   <v>       0.26666667       0.13333333       0.33333333 </v>
   <v>       0.33333333       0.13333333       0.33333333 </v>
   <v>       0.40000000       0.13333333       0.33333333 </v>
   <v>       0.46666667       0.13333333       0.33333333 </v>
   <v>      -0.46666667       0.13333333       0.33333333 </v>
   <v>      -0.40000000       0.13333333       0.33333333 </v>
   <v>      -0.33333333       0.13333333       0.33333333 </v>
   <v>      -0.26666667       0.13333333       0.33333333 </v>
   <v>      -0.20000000       0.13333333       0.33333333 </v>
   <v>      -0.13333333       0.13333333       0.33333333 </v>
   <v>      -0.06666667       0.13333333       0.33333333 </v>
   <v>       0.00000000       0.20000000       0.33333333 </v>
   <v>       0.06666667       0.20000000       0.33333333 </v>
   <v>       0.13333333       0.20000000       0.33333333 </v>
   <v>       0.20000000       0.20000000       0.33333333 </v>
   <v>       0.26666667       0.20000000       0.33333333 </v>
   <v>       0.33333333       0.20000000       0.33333333 </v>
   <v>       0.40000000       0.20000000       0.33333333 </v>
   <v>       0.46666667       0.20000000       0.33333333 </v>
   <v>      -0.46666667       0.20000000       0.33333333 </v>
   <v>      -0.40000000       0.20000000       0.33333333 </v>
   <v>      -0.33333333       0.20000000       0.33333333 </v>
   <v>      -0.26666667       0.20000000       0.33333333 </v>
   <v>      -0.20000000       0.20000000       0.33333333 </v>
   <v>      -0.13333333       0.20000000       0.33333333 </v>
   <v>      -0.06666667       0.20000000       0.33333333 </v>
   <v>      -0.00000000       0.26666667       0.33333333 </v>
   <v>       0.06666667       0.26666667       0.33333333 </v>
   <v>       0.13333333       0.26666667       0.33333333 </v>
   <v>       0.20000000       0.26666667       0.33333333 </v>
   <v>       0.26666667       0.26666667       0.33333333 </v>
   <v>       0.33333333       0.26666667       0.33333333 </v>
   <v>       0.40000000       0.26666667       0.33333333 </v>
   <v>       0.46666667       0.26666667       0.33333333 </v>
   <v>      -0.46666667       0.26666667       0.33333333 </v>
   <v>      -0.40000000       0.26666667       0.33333333 </v>
   <v>      -0.33333333       0.26666667       0.33333333 </v>
   <v>      -0.26666667       0.26666667       0.33333333 </v>
   <v>      -0.20000000       0.26666667       0.33333333 </v>
   <v>      -0.13333333       0.26666667       0.33333333 </v>
   <v>      -0.06666667       0.26666667       0.33333333 </v>
   <v>       0.00000000       0.33333333       0.33333333 </v>
   <v>       0.06666667       0.33333333       0.33333333 </v>
   <v>       0.13333333       0.33333333       0.33333333 </v>
   <v>       0.20000000       0.33333333       0.33333333 </v>
   <v>       0.26666667       0.33333333       0.33333333 </v>
   <v>       0.33333333       0.33333333       0.33333333 </v>
   <v>       0.40000000       0.33333333       0.33333333 </v>
   <v>       0.46666667       0.33333333       0.33333333 </v>
   <v>      -0.46666667       0.33333333       0.33333333 </v>
   <v>      -0.40000000       0.33333333       0.33333333 </v>
   <v>      -0.33333333       0.33333333       0.33333333 </v>
   <v>      -0.26666667       0.33333333       0.33333333 </v>
   <v>      -0.20000000       0.33333333       0.33333333 </v>
   <v>      -0.13333333       0.33333333       0.33333333 </v>
   <v>      -0.06666667       0.33333333       0.33333333 </v>
   <v>       0.00000000       0.40000000       0.33333333 </v>
   <v>       0.06666667       0.40000000       0.33333333 </v>
   <v>       0.13333333       0.40000000       0.33333333 </v>
   <v>       0.20000000       0.40000000       0.33333333 </v>
   <v>       0.26666667       0.40000000       0.33333333 </v>
   <v>       0.33333333       0.40000000       0.33333333 </v>
   <v>       0.40000000       0.40000000       0.33333333 </v>
   <v>       0.46666667       0.40000000       0.33333333 </v>
   <v>      -0.46666667       0.40000000       0.33333333 </v>
   <v>      -0.40000000       0.40000000       0.33333333 </v>
   <v>      -0.33333333       0.40000000       0.33333333 </v>
   <v>      -0.26666667       0.40000000       0.33333333 </v>
   <v>      -0.20000000       0.40000000       0.33333333 </v>
   <v>      -0.13333333       0.40000000       0.33333333 </v>
   <v>      -0.06666667       0.40000000       0.33333333 </v>
   <v>       0.00000000       0.46666667       0.33333333 </v>
   <v>       0.06666667       0.46666667       0.33333333 </v>
   <v>       0.13333333       0.46666667       0.33333333 </v>
   <v>       0.20000000       0.46666667       0.33333333 </v>
   <v>       0.26666667       0.46666667       0.33333333 </v>
   <v>       0.33333333       0.46666667       0.33333333 </v>
   <v>       0.40000000       0.46666667       0.33333333 </v>
   <v>       0.46666667       0.46666667       0.33333333 </v>
   <v>      -0.46666667       0.46666667       0.33333333 </v>
   <v>      -0.40000000       0.46666667       0.33333333 </v>
   <v>      -0.33333333       0.46666667       0.33333333 </v>
   <v>      -0.26666667       0.46666667       0.33333333 </v>
   <v>      -0.20000000       0.46666667       0.33333333 </v>
   <v>      -0.13333333       0.46666667       0.33333333 </v>
   <v>      -0.06666667       0.46666667       0.33333333 </v>
   <v>      -0.00000000      -0.46666667       0.33333333 </v>
   <v>       0.06666667      -0.46666667       0.33333333 </v>
   <v>       0.13333333      -0.46666667       0.33333333 </v>
   <v>       0.20000000      -0.46666667       0.33333333 </v>
   <v>       0.26666667      -0.46666667       0.33333333 </v>
   <v>       0.33333333      -0.46666667       0.33333333 </v>
   <v>       0.40000000      -0.46666667       0.33333333 </v>
   <v>       0.46666667      -0.46666667       0.33333333 </v>
   <v>      -0.46666667      -0.46666667       0.33333333 </v>
   <v>      -0.40000000      -0.46666667       0.33333333 </v>
   <v>      -0.33333333      -0.46666667       0.33333333 </v>
   <v>      -0.26666667      -0.46666667       0.33333333 </v>
   <v>      -0.20000000      -0.46666667       0.33333333 </v>
   <v>      -0.13333333      -0.46666667       0.33333333 </v>
   <v>      -0.06666667      -0.46666667       0.33333333 </v>
   <v>       0.00000000      -0.40000000       0.33333333 </v>
   <v>       0.06666667      -0.40000000       0.33333333 </v>
   <v>       0.13333333      -0.40000000       0.33333333 </v>
   <v>       0.20000000      -0.40000000       0.33333333 </v>
   <v>       0.26666667      -0.40000000       0.33333333 </v>
   <v>       0.33333333      -0.40000000       0.33333333 </v>
   <v>       0.40000000      -0.40000000       0.33333333 </v>
   <v>       0.46666667      -0.40000000       0.33333333 </v>
   <v>      -0.46666667      -0.40000000       0.33333333 </v>
   <v>      -0.40000000      -0.40000000       0.33333333 </v>
   <v>      -0.33333333      -0.40000000       0.33333333 </v>
   <v>      -0.26666667      -0.40000000       0.33333333 </v>
   <v>      -0.20000000      -0.40000000       0.33333333 </v>
   <v>      -0.13333333      -0.40000000       0.33333333 </v>
   <v>      -0.06666667      -0.40000000       0.33333333 </v>
   <v>       0.00000000      -0.33333333       0.33333333 </v>
   <v>       0.06666667      -0.33333333       0.33333333 </v>
   <v>       0.13333333      -0.33333333       0.33333333 </v>
   <v>       0.20000000      -0.33333333       0.33333333 </v>
   <v>       0.26666667      -0.33333333       0.33333333 </v>
   <v>       0.33333333      -0.33333333       0.33333333 </v>
   <v>       0.40000000      -0.33333333       0.33333333 </v>
   <v>       0.46666667      -0.33333333       0.33333333 </v>
   <v>      -0.46666667      -0.33333333       0.33333333 </v>
   <v>      -0.40000000      -0.33333333       0.33333333 </v>
   <v>      -0.33333333      -0.33333333       0.33333333 </v>
   <v>      -0.26666667      -0.33333333       0.33333333 </v>
   <v>      -0.20000000      -0.33333333       0.33333333 </v>
   <v>      -0.13333333      -0.33333333       0.33333333 </v>
   <v>      -0.06666667      -0.33333333       0.33333333 </v>
   <v>       0.00000000      -0.26666667       0.33333333 </v>
   <v>       0.06666667      -0.26666667       0.33333333 </v>
   <v>       0.13333333      -0.26666667       0.33333333 </v>
   <v>       0.20000000      -0.26666667       0.33333333 </v>
   <v>       0.26666667      -0.26666667       0.33333333 </v>
   <v>       0.33333333      -0.26666667       0.33333333 </v>
   <v>       0.40000000      -0.26666667       0.33333333 </v>
   <v>       0.46666667      -0.26666667       0.33333333 </v>
   <v>      -0.46666667      -0.26666667       0.33333333 </v>
   <v>      -0.40000000      -0.26666667       0.33333333 </v>
   <v>      -0.33333333      -0.26666667       0.33333333 </v>
   <v>      -0.26666667      -0.26666667       0.33333333 </v>
   <v>      -0.20000000      -0.26666667       0.33333333 </v>
   <v>      -0.13333333      -0.26666667       0.33333333 </v>
   <v>      -0.06666667      -0.26666667       0.33333333 </v>
   <v>      -0.00000000      -0.20000000       0.33333333 </v>
   <v>       0.06666667      -0.20000000       0.33333333 </v>
   <v>       0.13333333      -0.20000000       0.33333333 </v>
   <v>       0.20000000      -0.20000000       0.33333333 </v>
   <v>       0.26666667      -0.20000000       0.33333333 </v>
   <v>       0.33333333      -0.20000000       0.33333333 </v>
   <v>       0.40000000      -0.20000000       0.33333333 </v>
   <v>       0.46666667      -0.20000000       0.33333333 </v>
   <v>      -0.46666667      -0.20000000       0.33333333 </v>
   <v>      -0.40000000      -0.20000000       0.33333333 </v>
   <v>      -0.33333333      -0.20000000       0.33333333 </v>
   <v>      -0.26666667      -0.20000000       0.33333333 </v>
   <v>      -0.20000000      -0.20000000       0.33333333 </v>
   <v>      -0.13333333      -0.20000000       0.33333333 </v>
   <v>      -0.06666667      -0.20000000       0.33333333 </v>
   <v>      -0.00000000      -0.13333333       0.33333333 </v>
   <v>       0.06666667      -0.13333333       0.33333333 </v>
   <v>       0.13333333      -0.13333333       0.33333333 </v>
   <v>       0.20000000      -0.13333333       0.33333333 </v>
   <v>       0.26666667      -0.13333333       0.33333333 </v>
   <v>       0.33333333      -0.13333333       0.33333333 </v>
   <v>       0.40000000      -0.13333333       0.33333333 </v>
   <v>       0.46666667      -0.13333333       0.33333333 </v>
   <v>      -0.46666667      -0.13333333       0.33333333 </v>
   <v>      -0.40000000      -0.13333333       0.33333333 </v>
   <v>      -0.33333333      -0.13333333       0.33333333 </v>
   <v>      -0.26666667      -0.13333333       0.33333333 </v>
   <v>      -0.20000000      -0.13333333       0.33333333 </v>
   <v>      -0.13333333      -0.13333333       0.33333333 </v>
   <v>      -0.06666667      -0.13333333       0.33333333 </v>
   <v>      -0.00000000      -0.06666667       0.33333333 </v>
   <v>       0.06666667      -0.06666667       0.33333333 </v>
[...]
       <r>    4.1470    1.0000 </r>
       <r>    4.5275    1.0000 </r>
       <r>    4.7398    1.0000 </r>
       <r>    4.8378    1.0000 </r>
       <r>    4.9722    1.0000 </r>
       <r>    5.7939    1.0000 </r>
       <r>    6.0125    1.0000 </r>
       <r>    6.1970    1.0000 </r>
       <r>    6.2636    1.0000 </r>
       <r>    6.3564    1.0000 </r>
       <r>    6.6417    1.0000 </r>
       <r>    7.3063    1.0000 </r>
       <r>    7.3147    1.0000 </r>
       <r>    7.6502    1.0000 </r>
       <r>    8.0165    1.0000 </r>
       <r>   11.3453    0.0000 </r>
       <r>   11.8177    0.0000 </r>
       <r>   15.6001    0.0000 </r>
       <r>   16.0314    0.0000 </r>
       <r>   18.2955    0.0000 </r>
      </set>
      <set comment="kpoint 1686">
       <r>    2.2382    1.0000 </r>
       <r>    2.6490    1.0000 </r>
       <r>    3.7252    1.0000 </r>
       <r>    3.8414    1.0000 </r>
       <r>    3.8560    1.0000 </r>
       <r>    4.0304    1.0000 </r>
       <r>    4.0469    1.0000 </r>
       <r>    4.0895    1.0000 </r>
       <r>    4.5286    1.0000 </r>
       <r>    4.7025    1.0000 </r>
       <r>    5.0212    1.0000 </r>
       <r>    5.0896    1.0000 </r>
       <r>    5.8317    1.0000 </r>
       <r>    6.0688    1.0000 </r>
       <r>    6.2802    1.0000 </r>
       <r>    6.3334    1.0000 </r>
       <r>    6.4101    1.0000 </r>
       <r>    6.7176    1.0000 </r>
       <r>    7.3176    1.0000 </r>
       <r>    7.5412    1.0000 </r>
       <r>    7.5417    1.0000 </r>
       <r>    7.6102    1.0000 </r>
       <r>   12.2020    0.0000 </r>
       <r>   12.6234    0.0000 </r>
       <r>   15.2652    0.0000 </r>
       <r>   15.6529    0.0000 </r>
       <r>   17.8980    0.0000 </r>
      </set>
      <set comment="kpoint 1687">
       <r>    2.0748    1.0000 </r>
       <r>    2.4957    1.0000 </r>
       <r>    3.6806    1.0000 </r>
       <r>    3.7114    1.0000 </r>
       <r>    3.7492    1.0000 </r>
       <r>    3.9462    1.0000 </r>
       <r>    4.1244    1.0000 </r>
       <r>    4.1432    1.0000 </r>
       <r>    4.5626    1.0000 </r>
       <r>    4.6570    1.0000 </r>
       <r>    5.2370    1.0000 </r>
       <r>    5.2430    1.0000 </r>
       <r>    5.8679    1.0000 </r>
       <r>    6.1204    1.0000 </r>
       <r>    6.3154    1.0000 </r>
       <r>    6.3422    1.0000 </r>
       <r>    6.3804    1.0000 </r>
       <r>    6.7251    1.0000 </r>
       <r>    7.0851    1.0000 </r>
       <r>    7.2837    1.0000 </r>
       <r>    7.7417    1.0000 </r>
       <r>    7.7429    1.0000 </r>
       <r>   13.0908    0.0000 </r>
       <r>   13.3858    0.0000 </r>
       <r>   15.1199    0.0000 </r>
       <r>   15.4020    0.0000 </r>
       <r>   17.5002    0.0000 </r>
      </set>
      <set comment="kpoint 1688">
       <r>    1.9712    1.0000 </r>
       <r>    2.3969    1.0000 </r>
       <r>    3.6297    1.0000 </r>
       <r>    3.6297    1.0000 </r>
       <r>    3.6848    1.0000 </r>
       <r>    3.8937    1.0000 </r>
       <r>    4.1884    1.0000 </r>
       <r>    4.1884    1.0000 </r>
       <r>    4.6124    1.0000 </r>
       <r>    4.6124    1.0000 </r>
       <r>    5.3962    1.0000 </r>
       <r>    5.4369    1.0000 </r>
       <r>    5.9204    1.0000 </r>
       <r>    6.1933    1.0000 </r>
       <r>    6.2337    1.0000 </r>
       <r>    6.3223    1.0000 </r>
       <r>    6.3223    1.0000 </r>
       <r>    6.5750    1.0000 </r>
       <r>    6.9884    1.0000 </r>
       <r>    7.1344    1.0000 </r>
       <r>    7.8825    1.0000 </r>
       <r>    7.8825    1.0000 </r>
       <r>   13.8318    0.0000 </r>
       <r>   13.8318    0.0000 </r>
       <r>   15.4104    0.0000 </r>
       <r>   15.4104    0.0000 </r>
       <r>   16.9861    0.0000 </r>
      </set>
     </set>
    </set>
   </array>
  </eigenvalues>
  <separator name="orbital magnetization" >
   <v name="MAGDIPOLOUT">      0.00000000      0.00000000      0.00000000</v>
  </separator>
  <dos>
   <i name="efermi">      9.67816341 </i>
   <total>
    <array>
     <dimension dim="1">gridpoints</dimension>
     <dimension dim="2">spin</dimension>
     <field>energy</field>
     <field>total</field>
     <field>integrated</field>
     <set>
      <set comment="spin 1">
       <r>    -1.3195     0.0000     0.0000 </r>
       <r>    -1.2475     0.0000     0.0000 </r>
       <r>    -1.1755     0.0000     0.0000 </r>
       <r>    -1.1036     0.0000     0.0000 </r>
       <r>    -1.0316     0.0000     0.0000 </r>
       <r>    -0.9596     0.0000     0.0000 </r>
       <r>    -0.8877     0.0000     0.0000 </r>
       <r>    -0.8157     0.0000     0.0000 </r>
       <r>    -0.7437     0.0000     0.0000 </r>
       <r>    -0.6718     0.0000     0.0000 </r>
       <r>    -0.5998     0.0000     0.0000 </r>
       <r>    -0.5278     0.0000     0.0000 </r>
       <r>    -0.4559     0.0004     0.0000 </r>
       <r>    -0.3839     0.0044     0.0003 </r>
       <r>    -0.3119     0.0223     0.0020 </r>
       <r>    -0.2400     0.0597     0.0062 </r>
       <r>    -0.1680     0.0965     0.0132 </r>
       <r>    -0.0960     0.1332     0.0228 </r>
       <r>    -0.0241     0.1739     0.0353 </r>
       <r>     0.0479     0.1741     0.0478 </r>
       <r>     0.1199     0.1883     0.0614 </r>
       <r>     0.1918     0.2427     0.0788 </r>
       <r>     0.2638     0.2582     0.0974 </r>
       <r>     0.3358     0.2640     0.1164 </r>
       <r>     0.4077     0.2772     0.1364 </r>
       <r>     0.4797     0.2612     0.1552 </r>
       <r>     0.5517     0.3158     0.1779 </r>
       <r>     0.6237     0.3836     0.2055 </r>
       <r>     0.6956     0.3952     0.2339 </r>
       <r>     0.7676     0.3647     0.2602 </r>
       <r>     0.8396     0.3027     0.2820 </r>
       <r>     0.9115     0.3700     0.3086 </r>
       <r>     0.9835     0.4976     0.3444 </r>
       <r>     1.0555     0.5153     0.3815 </r>
       <r>     1.1274     0.4753     0.4157 </r>
       <r>     1.1994     0.4482     0.4480 </r>
       <r>     1.2714     0.4966     0.4837 </r>
       <r>     1.3433     0.5501     0.5233 </r>
       <r>     1.4153     0.5551     0.5632 </r>
       <r>     1.4873     0.5621     0.6037 </r>
       <r>     1.5592     0.6368     0.6495 </r>
       <r>     1.6312     0.7683     0.7048 </r>
       <r>     1.7032     0.7507     0.7588 </r>
       <r>     1.7751     0.6899     0.8085 </r>
       <r>     1.8471     0.6718     0.8568 </r>
       <r>     1.9191     0.7674     0.9121 </r>
       <r>     1.9910     1.0463     0.9874 </r>
       <r>     2.0630     1.2182     1.0750 </r>
       <r>     2.1350     1.1402     1.1571 </r>
       <r>     2.2070     1.3584     1.2549 </r>
       <r>     2.2789     2.0140     1.3998 </r>
       <r>     2.3509     2.5066     1.5802 </r>
       <r>     2.4229     2.6968     1.7743 </r>
       <r>     2.4948     2.7697     1.9736 </r>
       <r>     2.5668     3.0695     2.1945 </r>
       <r>     2.6388     3.7652     2.4655 </r>
       <r>     2.7107     4.3899     2.7814 </r>
       <r>     2.7827     4.8860     3.1331 </r>
       <r>     2.8547     5.4077     3.5222 </r>
       <r>     2.9266     6.1508     3.9649 </r>
       <r>     2.9986     6.9271     4.4634 </r>
       <r>     3.0706     7.3265     4.9907 </r>
       <r>     3.1425     7.3560     5.5201 </r>
       <r>     3.2145     7.2768     6.0438 </r>
       <r>     3.2865     7.2421     6.5650 </r>
       <r>     3.3584     6.7829     7.0532 </r>
       <r>     3.4304     6.4424     7.5168 </r>
       <r>     3.5024     6.6310     7.9940 </r>
       <r>     3.5743     6.4169     8.4558 </r>
       <r>     3.6463     6.0623     8.8921 </r>
       <r>     3.7183     5.8519     9.3133 </r>
       <r>     3.7902     5.1017     9.6804 </r>
       <r>     3.8622     4.6908    10.0180 </r>
       <r>     3.9342     5.0855    10.3840 </r>
       <r>     4.0062     5.5545    10.7838 </r>
       <r>     4.0781     6.0595    11.2199 </r>
       <r>     4.1501     6.7209    11.7036 </r>
       <r>     4.2221     7.2894    12.2282 </r>
       <r>     4.2940     7.5508    12.7716 </r>
       <r>     4.3660     7.7584    13.3299 </r>
       <r>     4.4380     7.4863    13.8687 </r>
       <r>     4.5099     7.3803    14.3998 </r>
       <r>     4.5819     7.8380    14.9639 </r>
       <r>     4.6539     8.1535    15.5507 </r>
       <r>     4.7258     8.1218    16.1352 </r>
       <r>     4.7978     7.9904    16.7103 </r>
       <r>     4.8698     8.2826    17.3064 </r>
       <r>     4.9417     9.0952    17.9609 </r>
       <r>     5.0137    10.2671    18.6999 </r>
       <r>     5.0857    11.2783    19.5115 </r>
       <r>     5.1576    12.0869    20.3814 </r>
       <r>     5.2296    12.7328    21.2978 </r>
       <r>     5.3016    11.8747    22.1524 </r>
       <r>     5.3735     9.6734    22.8485 </r>
       <r>     5.4455     8.2834    23.4447 </r>
       <r>     5.5175     7.5284    23.9865 </r>
       <r>     5.5895     6.8076    24.4764 </r>
       <r>     5.6614     6.5371    24.9469 </r>
       <r>     5.7334     6.3880    25.4066 </r>
       <r>     5.8054     6.2101    25.8535 </r>
       <r>     5.8773     6.2640    26.3043 </r>
       <r>     5.9493     6.5456    26.7754 </r>
       <r>     6.0213     7.2856    27.2997 </r>
       <r>     6.0932     7.9633    27.8728 </r>
       <r>     6.1652     7.8134    28.4352 </r>
       <r>     6.2372     7.8914    29.0031 </r>
       <r>     6.3091     8.5470    29.6182 </r>
       <r>     6.3811     8.6453    30.2404 </r>
       <r>     6.4531     7.8830    30.8077 </r>
       <r>     6.5250     7.1497    31.3223 </r>
       <r>     6.5970     7.1922    31.8399 </r>
       <r>     6.6690     7.3080    32.3658 </r>
       <r>     6.7409     6.8963    32.8621 </r>
       <r>     6.8129     6.1378    33.3039 </r>
       <r>     6.8849     5.7754    33.7195 </r>
       <r>     6.9568     6.2175    34.1670 </r>
       <r>     7.0288     6.7586    34.6534 </r>
       <r>     7.1008     6.8203    35.1442 </r>
       <r>     7.1727     6.2966    35.5974 </r>
       <r>     7.2447     6.5458    36.0685 </r>
       <r>     7.3167     7.5789    36.6139 </r>
       <r>     7.3887     7.9265    37.1843 </r>
       <r>     7.4606     8.3920    37.7883 </r>
       <r>     7.5326    10.3157    38.5307 </r>
       <r>     7.6046    11.8784    39.3856 </r>
       <r>     7.6765    10.8174    40.1641 </r>
       <r>     7.7485     8.6844    40.7891 </r>
       <r>     7.8205     6.5153    41.2580 </r>
       <r>     7.8924     4.8704    41.6085 </r>
       <r>     7.9644     4.3443    41.9211 </r>
       <r>     8.0364     3.4197    42.1672 </r>
       <r>     8.1083     1.7707    42.2947 </r>
       <r>     8.1803     0.7626    42.3496 </r>
       <r>     8.2523     0.5731    42.3908 </r>
       <r>     8.3242     0.7723    42.4464 </r>
       <r>     8.3962     1.2129    42.5337 </r>
       <r>     8.4682     1.5898    42.6481 </r>
       <r>     8.5401     1.4606    42.7532 </r>
       <r>     8.6121     0.9890    42.8244 </r>
       <r>     8.6841     0.8353    42.8845 </r>
       <r>     8.7560     0.9685    42.9542 </r>
       <r>     8.8280     1.1003    43.0334 </r>
       <r>     8.9000     1.2569    43.1238 </r>
       <r>     8.9720     1.4074    43.2251 </r>
       <r>     9.0439     1.2946    43.3183 </r>
       <r>     9.1159     1.0050    43.3906 </r>
       <r>     9.1879     0.8571    43.4523 </r>
       <r>     9.2598     0.8483    43.5134 </r>
       <r>     9.3318     1.0798    43.5911 </r>
       <r>     9.4038     1.3747    43.6900 </r>
       <r>     9.4757     1.3993    43.7907 </r>
       <r>     9.5477     1.1844    43.8759 </r>
       <r>     9.6197     0.9769    43.9462 </r>
       <r>     9.6916     0.9185    44.0123 </r>
       <r>     9.7636     0.9445    44.0803 </r>
       <r>     9.8356     1.0842    44.1584 </r>
       <r>     9.9075     1.3148    44.2530 </r>
       <r>     9.9795     1.4877    44.3600 </r>
       <r>    10.0515     1.3868    44.4599 </r>
       <r>    10.1234     0.9670    44.5294 </r>
       <r>    10.1954     0.6389    44.5754 </r>
       <r>    10.2674     0.7604    44.6301 </r>
       <r>    10.3393     1.0973    44.7091 </r>
       <r>    10.4113     1.2013    44.7956 </r>
       <r>    10.4833     1.1945    44.8815 </r>
       <r>    10.5552     1.3290    44.9772 </r>
       <r>    10.6272     1.3499    45.0743 </r>
       <r>    10.6992     1.1058    45.1539 </r>
       <r>    10.7712     0.9875    45.2250 </r>
       <r>    10.8431     1.0769    45.3025 </r>
       <r>    10.9151     1.0596    45.3788 </r>
       <r>    10.9871     1.0017    45.4508 </r>
       <r>    11.0590     1.0286    45.5249 </r>
       <r>    11.1310     0.9869    45.5959 </r>
       <r>    11.2030     1.0523    45.6716 </r>
       <r>    11.2749     1.2235    45.7597 </r>
       <r>    11.3469     1.1703    45.8439 </r>
       <r>    11.4189     1.0130    45.9168 </r>
       <r>    11.4908     0.9024    45.9818 </r>
       <r>    11.5628     0.9415    46.0495 </r>
       <r>    11.6348     1.0252    46.1233 </r>
       <r>    11.7067     1.1097    46.2032 </r>
       <r>    11.7787     1.2272    46.2915 </r>
       <r>    11.8507     1.1296    46.3728 </r>
       <r>    11.9226     0.9593    46.4418 </r>
       <r>    11.9946     0.8168    46.5006 </r>
       <r>    12.0666     0.6545    46.5477 </r>
       <r>    12.1385     0.7569    46.6022 </r>
       <r>    12.2105     1.1152    46.6824 </r>
       <r>    12.2825     1.2744    46.7741 </r>
       <r>    12.3545     1.0416    46.8491 </r>
       <r>    12.4264     0.7842    46.9055 </r>
       <r>    12.4984     0.7261    46.9578 </r>
       <r>    12.5704     0.7998    47.0154 </r>
       <r>    12.6423     0.9851    47.0863 </r>
       <r>    12.7143     1.4575    47.1911 </r>
       <r>    12.7863     2.1621    47.3468 </r>
       <r>    12.8582     2.2322    47.5074 </r>
       <r>    12.9302     1.5582    47.6195 </r>
       <r>    13.0022     1.0534    47.6954 </r>
       <r>    13.0741     1.1568    47.7786 </r>
       <r>    13.1461     1.5953    47.8934 </r>
       <r>    13.2181     1.7245    48.0175 </r>
       <r>    13.2900     1.5340    48.1279 </r>
       <r>    13.3620     1.4398    48.2316 </r>
       <r>    13.4340     1.1111    48.3115 </r>
       <r>    13.5059     0.7679    48.3668 </r>
       <r>    13.5779     0.8295    48.4265 </r>
       <r>    13.6499     1.0276    48.5004 </r>
       <r>    13.7218     1.1436    48.5827 </r>
       <r>    13.7938     1.1986    48.6690 </r>
       <r>    13.8658     1.3972    48.7696 </r>
       <r>    13.9377     1.2943    48.8627 </r>
       <r>    14.0097     0.9483    48.9310 </r>
       <r>    14.0817     0.7856    48.9875 </r>
       <r>    14.1537     0.7329    49.0402 </r>
       <r>    14.2256     0.9230    49.1067 </r>
       <r>    14.2976     1.3136    49.2012 </r>
       <r>    14.3696     1.4192    49.3033 </r>
       <r>    14.4415     1.2613    49.3941 </r>
       <r>    14.5135     1.1118    49.4741 </r>
       <r>    14.5855     1.0766    49.5516 </r>
       <r>    14.6574     1.2720    49.6431 </r>
       <r>    14.7294     1.4195    49.7453 </r>
       <r>    14.8014     1.6053    49.8608 </r>
       <r>    14.8733     1.5462    49.9721 </r>
       <r>    14.9453     1.1006    50.0513 </r>
       <r>    15.0173     0.8330    50.1113 </r>
       <r>    15.0892     0.9845    50.1821 </r>
       <r>    15.1612     1.3586    50.2799 </r>
       <r>    15.2332     1.4579    50.3848 </r>
       <r>    15.3051     1.5000    50.4928 </r>
       <r>    15.3771     1.6868    50.6142 </r>
       <r>    15.4491     1.8158    50.7449 </r>
       <r>    15.5210     1.6184    50.8613 </r>
       <r>    15.5930     1.4037    50.9624 </r>
       <r>    15.6650     1.2156    51.0498 </r>
       <r>    15.7370     0.9016    51.1147 </r>
       <r>    15.8089     0.7520    51.1688 </r>
       <r>    15.8809     0.9918    51.2402 </r>
       <r>    15.9529     1.3585    51.3380 </r>
       <r>    16.0248     1.4929    51.4454 </r>
       <r>    16.0968     1.1686    51.5295 </r>
       <r>    16.1688     0.7696    51.5849 </r>
       <r>    16.2407     0.7178    51.6366 </r>
       <r>    16.3127     0.7853    51.6931 </r>
       <r>    16.3847     0.9754    51.7633 </r>
       <r>    16.4566     1.1573    51.8466 </r>
       <r>    16.5286     1.2437    51.9361 </r>
       <r>    16.6006     1.2126    52.0234 </r>
       <r>    16.6725     1.0677    52.1002 </r>
       <r>    16.7445     0.8362    52.1604 </r>
       <r>    16.8165     0.7764    52.2163 </r>
       <r>    16.8884     1.0461    52.2915 </r>
       <r>    16.9604     1.4107    52.3931 </r>
       <r>    17.0324     1.6141    52.5092 </r>
       <r>    17.1043     1.2332    52.5980 </r>
       <r>    17.1763     0.7421    52.6514 </r>
       <r>    17.2483     0.8194    52.7104 </r>
       <r>    17.3202     1.1084    52.7901 </r>
       <r>    17.3922     1.0408    52.8650 </r>
       <r>    17.4642     0.7641    52.9200 </r>
       <r>    17.5362     0.8239    52.9793 </r>
       <r>    17.6081     1.2856    53.0718 </r>
       <r>    17.6801     1.5896    53.1862 </r>
       <r>    17.7521     1.3861    53.2860 </r>
       <r>    17.8240     0.9854    53.3569 </r>
       <r>    17.8960     0.9097    53.4224 </r>
       <r>    17.9680     0.9105    53.4879 </r>
       <r>    18.0399     0.7344    53.5408 </r>
       <r>    18.1119     0.6066    53.5844 </r>
       <r>    18.1839     0.6490    53.6311 </r>
       <r>    18.2558     0.8908    53.6952 </r>
       <r>    18.3278     0.8848    53.7589 </r>
       <r>    18.3998     0.5003    53.7949 </r>
       <r>    18.4717     0.2553    53.8133 </r>
       <r>    18.5437     0.2065    53.8281 </r>
       <r>    18.6157     0.2246    53.8443 </r>
       <r>    18.6876     0.2510    53.8624 </r>
       <r>    18.7596     0.2783    53.8824 </r>
       <r>    18.8316     0.3213    53.9055 </r>
       <r>    18.9035     0.3202    53.9286 </r>
       <r>    18.9755     0.2636    53.9475 </r>
       <r>    19.0475     0.2036    53.9622 </r>
       <r>    19.1195     0.1260    53.9713 </r>
       <r>    19.1914     0.1147    53.9795 </r>
       <r>    19.2634     0.1528    53.9905 </r>
       <r>    19.3354     0.1012    53.9978 </r>
       <r>    19.4073     0.0274    53.9998 </r>
       <r>    19.4793     0.0030    54.0000 </r>
       <r>    19.5513     0.0001    54.0000 </r>
       <r>    19.6232     0.0000    54.0000 </r>
       <r>    19.6952     0.0000    54.0000 </r>
       <r>    19.7672     0.0000    54.0000 </r>
       <r>    19.8391     0.0000    54.0000 </r>
       <r>    19.9111     0.0000    54.0000 </r>
       <r>    19.9831     0.0000    54.0000 </r>
       <r>    20.0550     0.0000    54.0000 </r>
       <r>    20.1270     0.0000    54.0000 </r>
       <r>    20.1990     0.0000    54.0000 </r>
       <r>    20.2709     0.0000    54.0000 </r>
      </set>
     </set>
    </array>
   </total>
  </dos>
 </calculation>
 <structure name="finalpos" >
  <crystal>
   <varray name="basis" >
    <v>       4.07129496      -0.00000003      -0.00000006 </v>
    <v>      -0.00000003       4.07129457       0.00000014 </v>
    <v>      -0.00000006       0.00000014       4.07129463 </v>
   </varray>
   <i name="volume">     67.48350415 </i>
   <varray name="rec_basis" >
    <v>       0.24562210       0.00000000       0.00000000 </v>
    <v>       0.00000000       0.24562212      -0.00000001 </v>
    <v>       0.00000000      -0.00000001       0.24562212 </v>
   </varray>
  </crystal>
  <varray name="positions" >
   <v>       1.00000000       0.00000000       0.00000000 </v>
   <v>       0.00000000       0.50000000       0.50000000 </v>
   <v>       0.50000000       1.00000000       0.50000000 </v>
   <v>       0.50000000       0.50000000       1.00000000 </v>
  </varray>
 </structure>
</modeling>
