unknown system                          
           1
     4.071295   -0.000000   -0.000000
    -0.000000    4.071295    0.000000
    -0.000000    0.000000    4.071295
   Au
   4
Direct configuration=     1
   1.00000000  0.00000000  0.00000000
   0.00000000  0.50000000  0.50000000
   0.50000000  1.00000000  0.50000000
   0.50000000  0.50000000  1.00000000
