   4   4   0   0
  0.2100464E+02  0.4497119E-09  0.4497119E-09  0.4154382E-09  0.2000000E-15
  1.000000000000000E-004
  CAR 
 unknown system                          
     16.09437002     -2.48145645  301      6.36853432      1.00000000
     -2.481  0.0000E+00  0.0000E+00
     -2.420  0.0000E+00  0.0000E+00
     -2.358  0.0000E+00  0.0000E+00
     -2.296  0.0000E+00  0.0000E+00
     -2.234  0.0000E+00  0.0000E+00
     -2.172  0.0000E+00  0.0000E+00
     -2.110  0.0000E+00  0.0000E+00
     -2.048  0.5313E-19  0.3290E-20
     -1.986  0.4853E-16  0.3008E-17
     -1.924  0.2019E-13  0.1253E-14
     -1.862  0.4061E-11  0.2527E-12
     -1.800  0.4020E-09  0.2515E-10
     -1.738  0.2005E-07  0.1266E-08
     -1.677  0.5181E-06  0.3335E-07
     -1.615  0.7164E-05  0.4770E-06
     -1.553  0.5470E-04  0.3864E-05
     -1.491  0.2382E-03  0.1861E-04
     -1.429  0.6213E-03  0.5708E-04
     -1.367  0.1088E-02  0.1245E-03
     -1.305  0.1552E-02  0.2206E-03
     -1.243  0.1965E-02  0.3422E-03
     -1.181  0.2156E-02  0.4757E-03
     -1.119  0.2397E-02  0.6242E-03
     -1.057  0.2808E-02  0.7980E-03
     -0.995  0.3044E-02  0.9865E-03
     -0.933  0.3214E-02  0.1186E-02
     -0.872  0.3354E-02  0.1393E-02
     -0.810  0.3476E-02  0.1608E-02
     -0.748  0.3874E-02  0.1848E-02
     -0.686  0.4352E-02  0.2118E-02
     -0.624  0.4468E-02  0.2394E-02
     -0.562  0.4278E-02  0.2659E-02
     -0.500  0.4410E-02  0.2932E-02
     -0.438  0.5041E-02  0.3245E-02
     -0.376  0.5578E-02  0.3590E-02
     -0.314  0.5593E-02  0.3936E-02
     -0.252  0.5352E-02  0.4268E-02
     -0.190  0.5730E-02  0.4623E-02
     -0.129  0.6537E-02  0.5027E-02
     -0.067  0.6802E-02  0.5448E-02
     -0.005  0.6728E-02  0.5865E-02
      0.057  0.6921E-02  0.6294E-02
      0.119  0.7444E-02  0.6755E-02
      0.181  0.8196E-02  0.7262E-02
      0.243  0.8694E-02  0.7800E-02
      0.305  0.8666E-02  0.8337E-02
      0.367  0.9218E-02  0.8908E-02
      0.429  0.1077E-01  0.9575E-02
      0.491  0.1165E-01  0.1030E-01
      0.553  0.1168E-01  0.1102E-01
      0.615  0.1318E-01  0.1184E-01
      0.676  0.1714E-01  0.1290E-01
      0.738  0.2286E-01  0.1431E-01
      0.800  0.2840E-01  0.1607E-01
      0.862  0.3122E-01  0.1800E-01
      0.924  0.3338E-01  0.2007E-01
      0.986  0.3809E-01  0.2243E-01
      1.048  0.4420E-01  0.2517E-01
      1.110  0.5068E-01  0.2831E-01
      1.172  0.5778E-01  0.3188E-01
      1.234  0.6626E-01  0.3599E-01
      1.296  0.7737E-01  0.4078E-01
      1.358  0.8815E-01  0.4623E-01
      1.419  0.9570E-01  0.5216E-01
      1.481  0.9911E-01  0.5830E-01
      1.543  0.9804E-01  0.6437E-01
      1.605  0.9457E-01  0.7022E-01
      1.667  0.9094E-01  0.7585E-01
      1.729  0.8743E-01  0.8127E-01
      1.791  0.8323E-01  0.8642E-01
      1.853  0.7835E-01  0.9127E-01
      1.915  0.7299E-01  0.9579E-01
      1.977  0.6943E-01  0.1001E+00
      2.039  0.7251E-01  0.1046E+00
      2.101  0.8335E-01  0.1097E+00
      2.163  0.9795E-01  0.1158E+00
      2.224  0.1128E+00  0.1228E+00
      2.286  0.1233E+00  0.1304E+00
      2.348  0.1271E+00  0.1383E+00
      2.410  0.1273E+00  0.1462E+00
      2.472  0.1255E+00  0.1540E+00
      2.534  0.1200E+00  0.1614E+00
      2.596  0.1150E+00  0.1685E+00
      2.658  0.1173E+00  0.1758E+00
      2.720  0.1253E+00  0.1835E+00
      2.782  0.1303E+00  0.1916E+00
      2.844  0.1297E+00  0.1996E+00
      2.906  0.1304E+00  0.2077E+00
      2.967  0.1326E+00  0.2159E+00
      3.029  0.1316E+00  0.2241E+00
      3.091  0.1268E+00  0.2319E+00
      3.153  0.1177E+00  0.2392E+00
      3.215  0.1082E+00  0.2459E+00
      3.277  0.1051E+00  0.2524E+00
      3.339  0.1083E+00  0.2591E+00
      3.401  0.1118E+00  0.2660E+00
      3.463  0.1141E+00  0.2731E+00
      3.525  0.1177E+00  0.2804E+00
      3.587  0.1217E+00  0.2879E+00
      3.649  0.1226E+00  0.2955E+00
      3.710  0.1186E+00  0.3029E+00
      3.772  0.1120E+00  0.3098E+00
      3.834  0.1090E+00  0.3165E+00
      3.896  0.1108E+00  0.3234E+00
      3.958  0.1101E+00  0.3302E+00
      4.020  0.1052E+00  0.3367E+00
      4.082  0.1025E+00  0.3431E+00
      4.144  0.1035E+00  0.3495E+00
      4.206  0.1074E+00  0.3561E+00
      4.268  0.1166E+00  0.3634E+00
      4.330  0.1304E+00  0.3714E+00
      4.392  0.1421E+00  0.3802E+00
      4.454  0.1489E+00  0.3895E+00
      4.515  0.1440E+00  0.3984E+00
      4.577  0.1210E+00  0.4059E+00
      4.639  0.8922E-01  0.4114E+00
      4.701  0.6083E-01  0.4152E+00
      4.763  0.4118E-01  0.4177E+00
      4.825  0.2892E-01  0.4195E+00
      4.887  0.2226E-01  0.4209E+00
      4.949  0.1898E-01  0.4221E+00
      5.011  0.1521E-01  0.4230E+00
      5.073  0.1160E-01  0.4237E+00
      5.135  0.1017E-01  0.4243E+00
      5.197  0.1099E-01  0.4250E+00
      5.258  0.1403E-01  0.4259E+00
      5.320  0.1618E-01  0.4269E+00
      5.382  0.1437E-01  0.4278E+00
      5.444  0.1068E-01  0.4284E+00
      5.506  0.8620E-02  0.4290E+00
      5.568  0.9880E-02  0.4296E+00
      5.630  0.1358E-01  0.4304E+00
      5.692  0.1633E-01  0.4314E+00
      5.754  0.1555E-01  0.4324E+00
      5.816  0.1280E-01  0.4332E+00
      5.878  0.1071E-01  0.4339E+00
      5.940  0.9916E-02  0.4345E+00
      6.002  0.1025E-01  0.4351E+00
      6.063  0.1181E-01  0.4358E+00
      6.125  0.1382E-01  0.4367E+00
      6.187  0.1452E-01  0.4376E+00
      6.249  0.1389E-01  0.4385E+00
      6.311  0.1316E-01  0.4393E+00
      6.373  0.1260E-01  0.4401E+00
      6.435  0.1203E-01  0.4408E+00
      6.497  0.1174E-01  0.4415E+00
      6.559  0.1209E-01  0.4423E+00
      6.621  0.1308E-01  0.4431E+00
      6.683  0.1392E-01  0.4439E+00
      6.745  0.1398E-01  0.4448E+00
      6.806  0.1354E-01  0.4457E+00
      6.868  0.1325E-01  0.4465E+00
      6.930  0.1290E-01  0.4473E+00
      6.992  0.1224E-01  0.4480E+00
      7.054  0.1162E-01  0.4487E+00
      7.116  0.1196E-01  0.4495E+00
      7.178  0.1301E-01  0.4503E+00
      7.240  0.1341E-01  0.4511E+00
      7.302  0.1284E-01  0.4519E+00
      7.364  0.1246E-01  0.4527E+00
      7.426  0.1262E-01  0.4535E+00
      7.488  0.1229E-01  0.4542E+00
      7.549  0.1253E-01  0.4550E+00
      7.611  0.1386E-01  0.4559E+00
      7.673  0.1451E-01  0.4568E+00
      7.735  0.1389E-01  0.4576E+00
      7.797  0.1240E-01  0.4584E+00
      7.859  0.1117E-01  0.4591E+00
      7.921  0.1055E-01  0.4597E+00
      7.983  0.1086E-01  0.4604E+00
      8.045  0.1303E-01  0.4612E+00
      8.107  0.1479E-01  0.4621E+00
      8.169  0.1388E-01  0.4630E+00
      8.231  0.1230E-01  0.4638E+00
      8.293  0.1201E-01  0.4645E+00
      8.354  0.1217E-01  0.4653E+00
      8.416  0.1292E-01  0.4661E+00
      8.478  0.1570E-01  0.4670E+00
      8.540  0.1921E-01  0.4682E+00
      8.602  0.2020E-01  0.4695E+00
      8.664  0.1828E-01  0.4706E+00
      8.726  0.1723E-01  0.4717E+00
      8.788  0.1796E-01  0.4728E+00
      8.850  0.1721E-01  0.4738E+00
      8.912  0.1556E-01  0.4748E+00
      8.974  0.1505E-01  0.4757E+00
      9.036  0.1555E-01  0.4767E+00
      9.097  0.1636E-01  0.4777E+00
      9.159  0.1582E-01  0.4787E+00
      9.221  0.1416E-01  0.4796E+00
      9.283  0.1288E-01  0.4804E+00
      9.345  0.1179E-01  0.4811E+00
      9.407  0.1102E-01  0.4818E+00
      9.469  0.1124E-01  0.4825E+00
      9.531  0.1219E-01  0.4832E+00
      9.593  0.1256E-01  0.4840E+00
      9.655  0.1138E-01  0.4847E+00
      9.717  0.1046E-01  0.4854E+00
      9.779  0.1091E-01  0.4860E+00
      9.841  0.1110E-01  0.4867E+00
      9.902  0.1032E-01  0.4874E+00
      9.964  0.1011E-01  0.4880E+00
     10.026  0.1139E-01  0.4887E+00
     10.088  0.1256E-01  0.4895E+00
     10.150  0.1241E-01  0.4902E+00
     10.212  0.1184E-01  0.4910E+00
     10.274  0.1130E-01  0.4917E+00
     10.336  0.1025E-01  0.4923E+00
     10.398  0.1022E-01  0.4929E+00
     10.460  0.1209E-01  0.4937E+00
     10.522  0.1442E-01  0.4946E+00
     10.584  0.1671E-01  0.4956E+00
     10.645  0.1876E-01  0.4968E+00
     10.707  0.1890E-01  0.4979E+00
     10.769  0.1680E-01  0.4990E+00
     10.831  0.1500E-01  0.4999E+00
     10.893  0.1467E-01  0.5008E+00
     10.955  0.1464E-01  0.5017E+00
     11.017  0.1423E-01  0.5026E+00
     11.079  0.1365E-01  0.5035E+00
     11.141  0.1332E-01  0.5043E+00
     11.203  0.1381E-01  0.5051E+00
     11.265  0.1502E-01  0.5061E+00
     11.327  0.1545E-01  0.5070E+00
     11.388  0.1522E-01  0.5080E+00
     11.450  0.1523E-01  0.5089E+00
     11.512  0.1486E-01  0.5098E+00
     11.574  0.1402E-01  0.5107E+00
     11.636  0.1354E-01  0.5115E+00
     11.698  0.1400E-01  0.5124E+00
     11.760  0.1560E-01  0.5134E+00
     11.822  0.1710E-01  0.5144E+00
     11.884  0.1641E-01  0.5154E+00
     11.946  0.1429E-01  0.5163E+00
     12.008  0.1289E-01  0.5171E+00
     12.070  0.1186E-01  0.5179E+00
     12.132  0.1092E-01  0.5185E+00
     12.193  0.1044E-01  0.5192E+00
     12.255  0.1073E-01  0.5198E+00
     12.317  0.1203E-01  0.5206E+00
     12.379  0.1249E-01  0.5214E+00
     12.441  0.1188E-01  0.5221E+00
     12.503  0.1130E-01  0.5228E+00
     12.565  0.1011E-01  0.5234E+00
     12.627  0.8459E-02  0.5240E+00
     12.689  0.7766E-02  0.5244E+00
     12.751  0.8694E-02  0.5250E+00
     12.813  0.1160E-01  0.5257E+00
     12.875  0.1619E-01  0.5267E+00
     12.936  0.1909E-01  0.5279E+00
     12.998  0.1768E-01  0.5290E+00
     13.060  0.1352E-01  0.5298E+00
     13.122  0.9991E-02  0.5304E+00
     13.184  0.8195E-02  0.5309E+00
     13.246  0.7514E-02  0.5314E+00
     13.308  0.7973E-02  0.5319E+00
     13.370  0.9635E-02  0.5325E+00
     13.432  0.1105E-01  0.5332E+00
     13.494  0.1054E-01  0.5338E+00
     13.556  0.8790E-02  0.5344E+00
     13.618  0.7099E-02  0.5348E+00
     13.680  0.5974E-02  0.5352E+00
     13.741  0.5536E-02  0.5355E+00
     13.803  0.5962E-02  0.5359E+00
     13.865  0.7261E-02  0.5363E+00
     13.927  0.8508E-02  0.5369E+00
     13.989  0.8583E-02  0.5374E+00
     14.051  0.7336E-02  0.5379E+00
     14.113  0.5272E-02  0.5382E+00
     14.175  0.3596E-02  0.5384E+00
     14.237  0.2939E-02  0.5386E+00
     14.299  0.2682E-02  0.5387E+00
     14.361  0.2453E-02  0.5389E+00
     14.423  0.2486E-02  0.5391E+00
     14.484  0.2643E-02  0.5392E+00
     14.546  0.2211E-02  0.5394E+00
     14.608  0.1482E-02  0.5394E+00
     14.670  0.1383E-02  0.5395E+00
     14.732  0.1656E-02  0.5396E+00
     14.794  0.1530E-02  0.5397E+00
     14.856  0.9246E-03  0.5398E+00
     14.918  0.4208E-03  0.5398E+00
     14.980  0.4375E-03  0.5398E+00
     15.042  0.7958E-03  0.5399E+00
     15.104  0.9338E-03  0.5399E+00
     15.166  0.6061E-03  0.5400E+00
     15.227  0.2082E-03  0.5400E+00
     15.289  0.3650E-04  0.5400E+00
     15.351  0.3185E-05  0.5400E+00
     15.413  0.1359E-06  0.5400E+00
     15.475  0.2801E-08  0.5400E+00
     15.537  0.2769E-10  0.5400E+00
     15.599  0.1305E-12  0.5400E+00
     15.661  0.2921E-15  0.5400E+00
     15.723  0.2975E-18  0.5400E+00
     15.785  0.0000E+00  0.5400E+00
     15.847  0.0000E+00  0.5400E+00
     15.909  0.0000E+00  0.5400E+00
     15.971  0.0000E+00  0.5400E+00
     16.032  0.0000E+00  0.5400E+00
     16.094  0.0000E+00  0.5400E+00
