    4    4  100    1
  0.2100464E+02  0.4497119E-09  0.4497119E-09  0.4154382E-09  0.2000000E-15
  1.000000000000000E-004
  CAR 
 unknown system                          
     44   1688     27
 
  0.0000000E+00  0.0000000E+00  0.0000000E+00  0.2962963E-03
    1       -1.481456   1.000000
    2        0.952736   1.000000
    3        0.952736   1.000000
    4        1.060725   1.000000
    5        1.220719   1.000000
    6        1.220719   1.000000
    7        1.223348   1.000000
    8        2.502423   1.000000
    9        2.502423   1.000000
   10        2.976105   1.000000
   11        3.416583   1.000000
   12        3.912890   1.000000
   13        4.446393   1.000000
   14        4.446394   1.000000
   15        4.482332   1.000000
   16        4.536738   1.000000
   17        4.536741   1.000000
   18        4.752868   1.000000
   19        4.752868   1.000000
   20        4.879035   1.000000
   21        4.879035   1.000000
   22        7.585468   0.000000
   23        7.585469   0.000000
   24        8.751718   0.000000
   25       10.169356   0.000000
   26       10.169358   0.000000
   27       11.640672   0.000000
 
  0.6666667E-01 -0.8615811E-25  0.0000000E+00  0.5925926E-03
    1       -1.440552   1.000000
    2        0.963042   1.000000
    3        0.978485   1.000000
    4        1.083769   1.000000
    5        1.233123   1.000000
    6        1.243042   1.000000
    7        1.243595   1.000000
    8        2.486417   1.000000
    9        2.521919   1.000000
   10        2.989065   1.000000
   11        3.407688   1.000000
   12        3.910105   1.000000
   13        4.417390   1.000000
   14        4.437902   1.000000
   15        4.438245   1.000000
   16        4.455553   1.000000
   17        4.513595   1.000000
   18        4.663802   1.000000
   19        4.754271   1.000000
   20        4.842412   1.000000
   21        4.877695   1.000000
   22        7.150684   0.000000
   23        7.716868   0.000000
   24        8.871089   0.000000
   25       10.160003   0.000000
   26       10.680101   0.000000
   27       11.570975   0.000000
 
  0.1333333E+00  0.3447937E-25  0.0000000E+00  0.5925926E-03
    1       -1.318516   1.000000
    2        0.990928   1.000000
    3        1.053966   1.000000
    4        1.151259   1.000000
    5        1.269897   1.000000
    6        1.302024   1.000000
    7        1.312047   1.000000
    8        2.439429   1.000000
    9        2.580150   1.000000
   10        3.027744   1.000000
   11        3.378544   1.000000
   12        3.905822   1.000000
   13        4.183287   1.000000
   14        4.332864   1.000000
   15        4.376422   1.000000
   16        4.414080   1.000000
   17        4.425120   1.000000
   18        4.446341   1.000000
   19        4.736400   1.000000
   20        4.758391   1.000000
   21        4.873670   1.000000
   22        6.307455   0.806147
   23        8.068644   0.000000
   24        9.200085   0.000000
   25       10.134795   0.000000
   26       11.382504   0.000000
   27       11.753470   0.000000
 
  0.2000000E+00 -0.2584739E-24  0.1240771E-23  0.5925926E-03
    1       -1.117898   1.000000
    2        1.026789   1.000000
    3        1.173564   1.000000
    4        1.258068   1.000000
    5        1.329959   1.000000
    6        1.400215   1.000000
    7        1.425582   1.000000
    8        2.364417   1.000000
    9        2.676151   1.000000
   10        3.091567   1.000000
   11        3.324671   1.000000
   12        3.847427   1.000000
   13        3.909239   1.000000
   14        4.094965   1.000000
   15        4.200389   1.000000
   16        4.249706   1.000000
   17        4.341143   1.000000
   18        4.374320   1.000000
   19        4.571789   1.000000
   20        4.765029   1.000000
   21        4.867134   1.000000
   22        5.424684   1.000000
   23        8.564413   0.000000
   24        9.679327   0.000000
   25       10.101551   0.000000
   26       11.124064   0.000000
   27       13.028570   0.000000
 
  0.2666667E+00  0.4825486E-24  0.1654361E-23  0.5925926E-03
    1       -0.843696   1.000000
    2        1.050887   1.000000
    3        1.326649   1.000000
    4        1.394357   1.000000
    5        1.411431   1.000000
    6        1.537391   1.000000
    7        1.583483   1.000000
    8        2.265818   1.000000
    9        2.808164   1.000000
   10        3.179373   1.000000
   11        3.246668   1.000000
   12        3.483965   1.000000
   13        3.723208   1.000000
   14        3.927938   1.000000
   15        4.034123   1.000000
   16        4.085578   1.000000
   17        4.206667   1.000000
   18        4.312200   1.000000
   19        4.363363   1.000000
   20        4.621254   1.000000
   21        4.773918   1.000000
   22        4.858396   1.000000
   23        9.147667   0.000000
   24       10.071546   0.000000
   25       10.256530   0.000000
   26       10.847757   0.000000
   27       13.705822   0.000000
 
  0.3333333E+00 -0.1051176E-23  0.0000000E+00  0.5925926E-03
    1       -0.504944   1.000000
    2        1.027660   1.000000
    3        1.495060   1.000000
    4        1.511699   1.000000
    5        1.543353   1.000000
    6        1.713147   1.000000
    7        1.784478   1.000000
    8        2.149277   1.000000
    9        2.973634   1.000000
   10        3.122532   1.000000
   11        3.156084   1.000000
   12        3.289505   1.000000
   13        3.342461   1.000000
   14        3.856452   1.000000
   15        3.903236   1.000000
   16        3.903896   1.000000
   17        3.963774   1.000000
   18        4.052838   1.000000
   19        4.127085   1.000000
   20        4.283716   1.000000
   21        4.784663   1.000000
   22        4.847776   1.000000
   23        9.784447   0.000000
   24       10.057414   0.000000
   25       10.593088   0.000000
   26       10.895644   0.000000
   27       13.125235   0.000000
 
  0.4000000E+00 -0.5169477E-24  0.2481542E-23  0.5925926E-03
    1       -0.118521   1.000000
    2        0.905395   1.000000
    3        1.627342   1.000000
    4        1.649531   1.000000
    5        1.677667   1.000000
    6        1.926754   1.000000
    7        2.020993   1.000000
    8        2.026893   1.000000
    9        2.778998   1.000000
   10        2.972416   1.000000
   11        3.076882   1.000000
   12        3.169002   1.000000
   13        3.411826   1.000000
   14        3.419531   1.000000
   15        3.700898   1.000000
   16        3.734390   1.000000
   17        3.877820   1.000000
   18        3.889220   1.000000
   19        4.014119   1.000000
   20        4.210934   1.000000
   21        4.796786   1.000000
   22        4.835811   1.000000
   23       10.071596   0.000000
   24       10.383084   0.000000
   25       10.453033   0.000000
   26       11.572177   0.000000
   27       12.489857   0.000000
 
  0.4666667E+00 -0.8099010E-24  0.8271806E-24  0.5925926E-03
    1        0.284158   1.000000
    2        0.648208   1.000000
    3        1.749185   1.000000
    4        1.754156   1.000000
    5        1.758257   1.000000
    6        1.887261   1.000000
    7        2.177043   1.000000
    8        2.308257   1.000000
    9        2.462100   1.000000
   10        2.625138   1.000000
   11        3.049300   1.000000
   12        3.136193   1.000000
   13        3.389411   1.000000
   14        3.566037   1.000000
   15        3.611225   1.000000
   16        3.623536   1.000000
   17        3.628427   1.000000
   18        3.724545   1.000000
   19        4.074792   1.000000
   20        4.141577   1.000000
   21        4.809731   1.000000
   22        4.822922   1.000000
   23       10.125174   0.000000
   24       10.227111   0.000000
   25       11.136903   0.000000
   26       11.821080   0.000000
   27       12.267736   0.000000
 
 -0.2015023E-24  0.6666667E-01  0.4135903E-24  0.5925926E-03
    1       -1.440552   1.000000
    2        0.963042   1.000000
    3        0.978484   1.000000
    4        1.083769   1.000000
    5        1.233124   1.000000
    6        1.243042   1.000000
    7        1.243595   1.000000
    8        2.486418   1.000000
    9        2.521919   1.000000
   10        2.989065   1.000000
   11        3.407688   1.000000
   12        3.910105   1.000000
   13        4.417390   1.000000
   14        4.437902   1.000000
   15        4.438245   1.000000
   16        4.455553   1.000000
   17        4.513595   1.000000
   18        4.663803   1.000000
   19        4.754271   1.000000
   20        4.842412   1.000000
   21        4.877694   1.000000
   22        7.150685   0.000000
   23        7.716867   0.000000
   24        8.871089   0.000000
   25       10.160002   0.000000
   26       10.680103   0.000000
   27       11.570975   0.000000
 
  0.6666667E-01  0.6666667E-01  0.0000000E+00  0.5925926E-03
    1       -1.399791   1.000000
    2        0.988948   1.000000
    3        0.988949   1.000000
    4        1.104955   1.000000
    5        1.255856   1.000000
    6        1.255856   1.000000
    7        1.263966   1.000000
    8        2.486174   1.000000
    9        2.525884   1.000000
   10        3.001117   1.000000
   11        3.399649   1.000000
   12        3.907408   1.000000
   13        4.372230   1.000000
   14        4.372232   1.000000
   15        4.429708   1.000000
   16        4.448749   1.000000
   17        4.448751   1.000000
   18        4.606717   1.000000
   19        4.727473   1.000000
   20        4.840954   1.000000
   21        4.840955   1.000000
   22        7.274268   0.000000
   23        7.274269   0.000000
   24        8.986768   0.000000
   25       10.680020   0.000000
   26       10.680022   0.000000
   27       11.492890   0.000000
 
  0.1333333E+00  0.6666667E-01  0.6203855E-24  0.5925926E-03
    1       -1.278343   1.000000
    2        1.017443   1.000000
    3        1.065002   1.000000
    4        1.167098   1.000000
    5        1.292271   1.000000
    6        1.323934   1.000000
    7        1.326526   1.000000
    8        2.446525   1.000000
    9        2.577465   1.000000
   10        3.036947   1.000000
   11        3.373061   1.000000
   12        3.903710   1.000000
   13        4.126576   1.000000
   14        4.279576   1.000000
   15        4.351252   1.000000
   16        4.353240   1.000000
   17        4.390400   1.000000
   18        4.439047   1.000000
   19        4.718015   1.000000
   20        4.734667   1.000000
   21        4.836604   1.000000
   22        6.435483   0.171871
   23        7.594772   0.000000
   24        9.307300   0.000000
   25       10.685239   0.000000
   26       11.281172   0.000000
   27       11.754591   0.000000
 
  0.2000000E+00  0.6666667E-01  0.1240771E-23  0.5925926E-03
    1       -1.078664   1.000000
    2        1.054265   1.000000
    3        1.185626   1.000000
    4        1.266149   1.000000
    5        1.351732   1.000000
    6        1.429452   1.000000
    7        1.436835   1.000000
    8        2.373669   1.000000
    9        2.672319   1.000000
   10        3.094533   1.000000
   11        3.324117   1.000000
   12        3.791713   1.000000
   13        3.908720   1.000000
   14        4.072558   1.000000
   15        4.140904   1.000000
   16        4.217909   1.000000
   17        4.230426   1.000000
   18        4.406365   1.000000
   19        4.569638   1.000000
   20        4.722016   1.000000
   21        4.829593   1.000000
   22        5.579204   1.000000
   23        8.021918   0.000000
   24        9.777437   0.000000
   25       10.712292   0.000000
   26       10.988678   0.000000
   27       13.018796   0.000000
 
  0.2666667E+00  0.6666667E-01  0.1240771E-23  0.5925926E-03
    1       -0.805820   1.000000
    2        1.079660   1.000000
    3        1.340261   1.000000
    4        1.395587   1.000000
    5        1.432392   1.000000
    6        1.569125   1.000000
    7        1.593794   1.000000
    8        2.276742   1.000000
    9        2.804032   1.000000
   10        3.158436   1.000000
   11        3.267203   1.000000
   12        3.431706   1.000000
   13        3.709773   1.000000
   14        3.930602   1.000000
   15        3.938623   1.000000
   16        4.051926   1.000000
   17        4.070906   1.000000
   18        4.352760   1.000000
   19        4.360788   1.000000
   20        4.730465   1.000000
   21        4.820186   1.000000
   22        4.837552   1.000000
   23        8.482138   0.000000
   24       10.346893   0.000000
   25       10.670237   0.000000
   26       10.789614   0.000000
   27       13.634366   0.000000
 
  0.3333333E+00  0.6666667E-01  0.4135903E-24  0.5925926E-03
    1       -0.468793   1.000000
    2        1.057734   1.000000
    3        1.510813   1.000000
    4        1.531609   1.000000
    5        1.543916   1.000000
    6        1.739578   1.000000
    7        1.793529   1.000000
    8        2.161827   1.000000
    9        2.969451   1.000000
   10        3.076417   1.000000
   11        3.126914   1.000000
   12        3.313794   1.000000
   13        3.335737   1.000000
   14        3.634778   1.000000
   15        3.873618   1.000000
   16        3.893442   1.000000
   17        3.971137   1.000000
   18        4.124062   1.000000
   19        4.236245   1.000000
   20        4.361368   1.000000
   21        4.741510   1.000000
   22        4.808797   1.000000
   23        8.917056   0.000000
   24       10.363965   0.000000
   25       10.955713   0.000000
   26       10.980002   0.000000
   27       13.177752   0.000000
 
  0.4000000E+00  0.6666667E-01  0.2067952E-23  0.5925926E-03
    1       -0.084313   1.000000
    2        0.936270   1.000000
    3        1.646021   1.000000
    4        1.667854   1.000000
    5        1.685976   1.000000
    6        1.937347   1.000000
    7        2.034218   1.000000
    8        2.035137   1.000000
    9        2.741540   1.000000
   10        2.970745   1.000000
   11        3.049505   1.000000
   12        3.164869   1.000000
   13        3.292340   1.000000
   14        3.436111   1.000000
   15        3.715128   1.000000
   16        3.729835   1.000000
   17        3.874412   1.000000
   18        3.969864   1.000000
   19        4.027230   1.000000
   20        4.245382   1.000000
   21        4.754236   1.000000
   22        4.795909   1.000000
   23        9.284239   0.000000
   24       10.086300   0.000000
   25       11.244586   0.000000
   26       11.652090   0.000000
   27       12.671288   0.000000
 
  0.4666667E+00  0.6666667E-01  0.0000000E+00  0.5925926E-03
    1        0.316553   1.000000
    2        0.679526   1.000000
    3        1.769146   1.000000
    4        1.771455   1.000000
    5        1.775427   1.000000
    6        1.902997   1.000000
    7        2.167746   1.000000
    8        2.313352   1.000000
    9        2.436548   1.000000
   10        2.627306   1.000000
   11        3.011708   1.000000
   12        3.073920   1.000000
   13        3.385441   1.000000
   14        3.585567   1.000000
   15        3.619794   1.000000
   16        3.624712   1.000000
   17        3.625165   1.000000
   18        3.759781   1.000000
   19        4.094272   1.000000
   20        4.167778   1.000000
   21        4.768002   1.000000
   22        4.782107   1.000000
   23        9.578421   0.000000
   24        9.832607   0.000000
   25       11.655869   0.000000
   26       12.148927   0.000000
   27       12.344524   0.000000
 
 -0.4666667E+00  0.6666667E-01 -0.3308722E-23  0.5925926E-03
    1        0.316553   1.000000
    2        0.679526   1.000000
    3        1.769146   1.000000
    4        1.771455   1.000000
    5        1.775427   1.000000
    6        1.902997   1.000000
    7        2.167746   1.000000
    8        2.313352   1.000000
    9        2.436548   1.000000
   10        2.627306   1.000000
   11        3.011708   1.000000
   12        3.073920   1.000000
   13        3.385441   1.000000
   14        3.585567   1.000000
   15        3.619794   1.000000
   16        3.624712   1.000000
   17        3.625165   1.000000
   18        3.759781   1.000000
   19        4.094272   1.000000
   20        4.167778   1.000000
   21        4.768002   1.000000
   22        4.782107   1.000000
   23        9.578421   0.000000
   24        9.832607   0.000000
   25       11.655869   0.000000
   26       12.148929   0.000000
   27       12.344532   0.000000
 
 -0.4000000E+00  0.6666667E-01 -0.3308722E-23  0.5925926E-03
    1       -0.084313   1.000000
    2        0.936270   1.000000
    3        1.646021   1.000000
    4        1.667854   1.000000
    5        1.685976   1.000000
    6        1.937347   1.000000
    7        2.034218   1.000000
    8        2.035137   1.000000
    9        2.741540   1.000000
   10        2.970745   1.000000
   11        3.049505   1.000000
   12        3.164869   1.000000
   13        3.292340   1.000000
   14        3.436111   1.000000
   15        3.715128   1.000000
   16        3.729835   1.000000
   17        3.874412   1.000000
   18        3.969864   1.000000
   19        4.027230   1.000000
   20        4.245382   1.000000
   21        4.754236   1.000000
   22        4.795909   1.000000
   23        9.284240   0.000000
   24       10.086300   0.000000
   25       11.244586   0.000000
   26       11.652090   0.000000
   27       12.671288   0.000000
 
 -0.3333333E+00  0.6666667E-01 -0.1654361E-23  0.5925926E-03
    1       -0.468793   1.000000
    2        1.057734   1.000000
    3        1.510813   1.000000
    4        1.531609   1.000000
    5        1.543916   1.000000
    6        1.739578   1.000000
    7        1.793529   1.000000
    8        2.161827   1.000000
    9        2.969451   1.000000
   10        3.076417   1.000000
   11        3.126914   1.000000
   12        3.313794   1.000000
   13        3.335737   1.000000
   14        3.634778   1.000000
   15        3.873618   1.000000
   16        3.893442   1.000000
   17        3.971137   1.000000
   18        4.124062   1.000000
   19        4.236245   1.000000
   20        4.361368   1.000000
   21        4.741510   1.000000
   22        4.808797   1.000000
   23        8.917056   0.000000
   24       10.363965   0.000000
   25       10.955713   0.000000
   26       10.980002   0.000000
   27       13.177749   0.000000
 
 -0.2666667E+00  0.6666667E-01 -0.1654361E-23  0.5925926E-03
    1       -0.805820   1.000000
    2        1.079660   1.000000
    3        1.340261   1.000000
    4        1.395587   1.000000
    5        1.432392   1.000000
    6        1.569125   1.000000
    7        1.593794   1.000000
    8        2.276742   1.000000
    9        2.804032   1.000000
   10        3.158436   1.000000
   11        3.267203   1.000000
   12        3.431706   1.000000
   13        3.709773   1.000000
   14        3.930602   1.000000
   15        3.938623   1.000000
   16        4.051926   1.000000
   17        4.070906   1.000000
   18        4.352760   1.000000
   19        4.360788   1.000000
   20        4.730465   1.000000
   21        4.820186   1.000000
   22        4.837552   1.000000
   23        8.482138   0.000000
   24       10.346893   0.000000
   25       10.670237   0.000000
   26       10.789614   0.000000
   27       13.634330   0.000000
 
 -0.2000000E+00  0.6666667E-01 -0.8271806E-24  0.5925926E-03
    1       -1.078664   1.000000
    2        1.054265   1.000000
    3        1.185626   1.000000
    4        1.266149   1.000000
    5        1.351732   1.000000
    6        1.429452   1.000000
    7        1.436835   1.000000
    8        2.373669   1.000000
    9        2.672319   1.000000
   10        3.094533   1.000000
   11        3.324117   1.000000
   12        3.791713   1.000000
   13        3.908720   1.000000
   14        4.072558   1.000000
   15        4.140904   1.000000
   16        4.217909   1.000000
   17        4.230426   1.000000
   18        4.406365   1.000000
   19        4.569638   1.000000
   20        4.722016   1.000000
   21        4.829593   1.000000
   22        5.579204   1.000000
   23        8.021918   0.000000
   24        9.777436   0.000000
   25       10.712292   0.000000
   26       10.988678   0.000000
   27       13.018796   0.000000
 
 -0.1333333E+00  0.6666667E-01  0.0000000E+00  0.5925926E-03
    1       -1.278344   1.000000
    2        1.017443   1.000000
    3        1.065002   1.000000
    4        1.167098   1.000000
    5        1.292271   1.000000
    6        1.323934   1.000000
    7        1.326526   1.000000
    8        2.446525   1.000000
    9        2.577465   1.000000
   10        3.036947   1.000000
   11        3.373061   1.000000
   12        3.903710   1.000000
   13        4.126576   1.000000
   14        4.279576   1.000000
   15        4.351252   1.000000
   16        4.353240   1.000000
   17        4.390400   1.000000
   18        4.439047   1.000000
   19        4.718015   1.000000
   20        4.734667   1.000000
   21        4.836604   1.000000
   22        6.435483   0.171871
   23        7.594772   0.000000
   24        9.307300   0.000000
   25       10.685239   0.000000
   26       11.281172   0.000000
   27       11.754591   0.000000
 
 -0.6666667E-01  0.6666667E-01  0.4135903E-24  0.5925926E-03
    1       -1.399791   1.000000
    2        0.988948   1.000000
    3        0.988949   1.000000
    4        1.104955   1.000000
    5        1.255856   1.000000
    6        1.255856   1.000000
    7        1.263966   1.000000
    8        2.486174   1.000000
    9        2.525884   1.000000
   10        3.001117   1.000000
   11        3.399649   1.000000
   12        3.907408   1.000000
   13        4.372230   1.000000
   14        4.372232   1.000000
   15        4.429708   1.000000
   16        4.448749   1.000000
   17        4.448751   1.000000
   18        4.606717   1.000000
   19        4.727473   1.000000
   20        4.840954   1.000000
   21        4.840955   1.000000
   22        7.274268   0.000000
   23        7.274269   0.000000
   24        8.986768   0.000000
   25       10.680020   0.000000
   26       10.680022   0.000000
   27       11.492890   0.000000
 
 -0.1962090E-24  0.1333333E+00 -0.8271806E-24  0.5925926E-03
    1       -1.318516   1.000000
    2        0.990928   1.000000
    3        1.053966   1.000000
    4        1.151259   1.000000
    5        1.269897   1.000000
    6        1.302024   1.000000
    7        1.312047   1.000000
    8        2.439429   1.000000
    9        2.580149   1.000000
   10        3.027744   1.000000
   11        3.378544   1.000000
   12        3.905822   1.000000
   13        4.183287   1.000000
   14        4.332864   1.000000
   15        4.376422   1.000000
   16        4.414080   1.000000
   17        4.425120   1.000000
   18        4.446341   1.000000
   19        4.736400   1.000000
   20        4.758390   1.000000
   21        4.873669   1.000000
   22        6.307457   0.806143
   23        8.068643   0.000000
   24        9.200085   0.000000
   25       10.134793   0.000000
   26       11.382504   0.000000
   27       11.753472   0.000000
 
  0.6666667E-01  0.1333333E+00  0.4135903E-24  0.5925926E-03
    1       -1.278343   1.000000
    2        1.017443   1.000000
    3        1.065002   1.000000
    4        1.167098   1.000000
    5        1.292271   1.000000
    6        1.323934   1.000000
    7        1.326526   1.000000
    8        2.446526   1.000000
    9        2.577464   1.000000
   10        3.036947   1.000000
   11        3.373061   1.000000
   12        3.903710   1.000000
   13        4.126576   1.000000
   14        4.279576   1.000000
   15        4.351252   1.000000
   16        4.353240   1.000000
   17        4.390400   1.000000
   18        4.439047   1.000000
   19        4.718015   1.000000
   20        4.734667   1.000000
   21        4.836604   1.000000
   22        6.435484   0.171868
   23        7.594771   0.000000
   24        9.307300   0.000000
   25       10.685237   0.000000
   26       11.281172   0.000000
   27       11.754593   0.000000
 
  0.1333333E+00  0.1333333E+00  0.0000000E+00  0.5925926E-03
    1       -1.158589   1.000000
    2        1.095266   1.000000
    3        1.095267   1.000000
    4        1.215284   1.000000
    5        1.359244   1.000000
    6        1.359244   1.000000
    7        1.397651   1.000000
    8        2.442355   1.000000
    9        2.595476   1.000000
   10        3.064016   1.000000
   11        3.353467   1.000000
   12        3.902344   1.000000
   13        3.996649   1.000000
   14        3.996651   1.000000
   15        4.251220   1.000000
   16        4.284278   1.000000
   17        4.365730   1.000000
   18        4.365732   1.000000
   19        4.652318   1.000000
   20        4.729506   1.000000
   21        4.729506   1.000000
   22        6.750355   0.000000
   23        6.750355   0.000000
   24        9.607906   0.000000
   25       11.008115   0.000000
   26       11.762332   0.000000
   27       11.762334   0.000000
 
  0.2000000E+00  0.1333333E+00  0.6203855E-24  0.5925926E-03
    1       -0.961832   1.000000
    2        1.135049   1.000000
    3        1.218982   1.000000
    4        1.296738   1.000000
    5        1.416865   1.000000
    6        1.470236   1.000000
    7        1.509163   1.000000
    8        2.390934   1.000000
    9        2.671908   1.000000
   10        3.104887   1.000000
   11        3.316028   1.000000
   12        3.653036   1.000000
   13        3.816372   1.000000
   14        3.913396   1.000000
   15        3.991123   1.000000
   16        4.172631   1.000000
   17        4.241705   1.000000
   18        4.350443   1.000000
   19        4.563309   1.000000
   20        4.622616   1.000000
   21        4.721160   1.000000
   22        5.919371   1.000000
   23        7.149702   0.000000
   24       10.055781   0.000000
   25       10.633518   0.000000
   26       11.788913   0.000000
   27       12.992440   0.000000
 
  0.2666667E+00  0.1333333E+00  0.2791735E-23  0.5925926E-03
    1       -0.693093   1.000000
    2        1.164417   1.000000
    3        1.378314   1.000000
    4        1.410681   1.000000
    5        1.494972   1.000000
    6        1.624389   1.000000
    7        1.651423   1.000000
    8        2.304367   1.000000
    9        2.797172   1.000000
   10        3.132059   1.000000
   11        3.285650   1.000000
   12        3.298263   1.000000
   13        3.586550   1.000000
   14        3.663425   1.000000
   15        3.946375   1.000000
   16        4.026283   1.000000
   17        4.081928   1.000000
   18        4.296586   1.000000
   19        4.353204   1.000000
   20        4.617896   1.000000
   21        4.710018   1.000000
   22        5.212995   1.000000
   23        7.572730   0.000000
   24       10.224922   0.000000
   25       10.605686   0.000000
   26       11.851712   0.000000
   27       13.529785   0.000000
 
  0.3333333E+00  0.1333333E+00  0.1550964E-23  0.5925926E-03
    1       -0.361387   1.000000
    2        1.146402   1.000000
    3        1.552627   1.000000
    4        1.555548   1.000000
    5        1.591009   1.000000
    6        1.810795   1.000000
    7        1.820241   1.000000
    8        2.196592   1.000000
    9        2.956600   1.000000
   10        2.960048   1.000000
   11        3.080809   1.000000
   12        3.312722   1.000000
   13        3.319026   1.000000
   14        3.336836   1.000000
   15        3.862652   1.000000
   16        3.906108   1.000000
   17        4.002644   1.000000
   18        4.115300   1.000000
   19        4.185286   1.000000
   20        4.624142   1.000000
   21        4.696628   1.000000
   22        4.704981   1.000000
   23        7.987071   0.000000
   24        9.824751   0.000000
   25       11.223270   0.000000
   26       11.968046   0.000000
   27       13.260369   0.000000
 
  0.4000000E+00  0.1333333E+00  0.1447566E-23  0.5925926E-03
    1        0.017032   1.000000
    2        1.027108   1.000000
    3        1.701589   1.000000
    4        1.707002   1.000000
    5        1.721009   1.000000
    6        1.972789   1.000000
    7        2.055770   1.000000
    8        2.075940   1.000000
    9        2.641897   1.000000
   10        2.964245   1.000000
   11        2.993379   1.000000
   12        3.075743   1.000000
   13        3.154439   1.000000
   14        3.449472   1.000000
   15        3.713576   1.000000
   16        3.743896   1.000000
   17        3.864701   1.000000
   18        3.995305   1.000000
   19        4.078173   1.000000
   20        4.424642   1.000000
   21        4.635757   1.000000
   22        4.681645   1.000000
   23        8.377179   0.000000
   24        9.448838   0.000000
   25       11.883700   0.000000
   26       12.148156   0.000000
   27       12.970553   0.000000
 
  0.4666667E+00  0.1333333E+00  0.2067952E-23  0.5925926E-03
    1        0.412130   1.000000
    2        0.771572   1.000000
    3        1.822625   1.000000
    4        1.823760   1.000000
    5        1.828188   1.000000
    6        1.949247   1.000000
    7        2.144839   1.000000
    8        2.328039   1.000000
    9        2.366217   1.000000
   10        2.632924   1.000000
   11        2.929613   1.000000
   12        2.941414   1.000000
   13        3.374794   1.000000
   14        3.598736   1.000000
   15        3.614348   1.000000
   16        3.625298   1.000000
   17        3.636813   1.000000
   18        3.782683   1.000000
   19        4.168867   1.000000
   20        4.276330   1.000000
   21        4.650170   1.000000
   22        4.665831   1.000000
   23        8.742007   0.000000
   24        9.093161   0.000000
   25       12.388795   0.000000
   26       12.567911   0.000000
   27       12.671946   0.000000
 
 -0.4666667E+00  0.1333333E+00 -0.1654361E-23  0.5925926E-03
    1        0.412130   1.000000
    2        0.771572   1.000000
    3        1.822625   1.000000
    4        1.823760   1.000000
    5        1.828188   1.000000