 running on   24 total cores
 distrk:  each k-point on   24 cores,    1 groups
 distr:  one band on    8 cores,    3 groups
 using from now: INCAR     
 vasp.5.4.4.18Apr17-6-g9f103f2a35 (build Jan 14 2019 14:48:31) complex          
  
 POSCAR found type information on POSCAR  Au
 POSCAR found :  1 types and       4 ions
 scaLAPACK will be used
 LDA part: xc-table for Pade appr. of Perdew
 POSCAR found type information on POSCAR  Au
 POSCAR found :  1 types and       4 ions
 POSCAR, INCAR and KPOINTS ok, starting setup
 FFT: planning ...
 WAVECAR not read
 entering main loop
       N       E                     dE             d eps       ncg     rms          rms(c)
DAV:   1     0.262389652217E+03    0.26239E+03   -0.22062E+04 91827   0.149E+03
DAV:   2    -0.803853297026E+01   -0.27043E+03   -0.26149E+03107064   0.310E+02
DAV:   3    -0.131577795856E+02   -0.51192E+01   -0.50724E+01101529   0.440E+01
DAV:   4    -0.131927158768E+02   -0.34936E-01   -0.34908E-01103923   0.384E+00
DAV:   5    -0.131930892249E+02   -0.37335E-03   -0.37333E-03107010   0.407E-01    0.996E+00
RMM:   6    -0.122853862997E+02    0.90770E+00   -0.27766E+00 91172   0.106E+01    0.719E+00
RMM:   7    -0.122588772863E+02    0.26509E-01   -0.16687E-01 91284   0.238E+00    0.426E+00
RMM:   8    -0.122556340697E+02    0.32432E-02   -0.70989E-03 91228   0.566E-01    0.444E-01
RMM:   9    -0.122553915153E+02    0.24255E-03   -0.73552E-04 91246   0.160E-01    0.481E-02
RMM:  10    -0.122554231220E+02   -0.31607E-04   -0.61286E-05 91224   0.538E-02    0.539E-03
RMM:  11    -0.122554231775E+02   -0.55489E-07   -0.24936E-06 52876   0.888E-03
   1 F= -.12255423E+02 E0= -.12252338E+02  d E =-.122554E+02
 curvature:   0.00 expect dE= 0.000E+00 dE for cont linesearch  0.000E+00
 trial: gam= 0.00000 g(F)=  0.129E-13 g(S)=  0.000E+00 ort = 0.000E+00 (trialstep = 0.100E+01)
 search vector abs. value=  0.100E-09
 reached required accuracy - stopping structural energy minimisation
