   4   4   0   0
  0.1732205E+02  0.4204350E-09  0.4204350E-09  0.4204350E-09  0.2000000E-15
  1.000000000000000E-004
  CAR 
 unknown system                          
     20.58624052     -1.84966678  301      9.09460036      1.00000000
     -1.850  0.0000E+00  0.0000E+00
     -1.775  0.0000E+00  0.0000E+00
     -1.700  0.0000E+00  0.0000E+00
     -1.625  0.0000E+00  0.0000E+00
     -1.551  0.0000E+00  0.0000E+00
     -1.476  0.0000E+00  0.0000E+00
     -1.401  0.2639E-19  0.1974E-20
     -1.326  0.9031E-16  0.6756E-17
     -1.251  0.1037E-12  0.7760E-14
     -1.177  0.4125E-10  0.3092E-11
     -1.102  0.5947E-08  0.4478E-09
     -1.027  0.3322E-06  0.2529E-07
     -0.952  0.7709E-05  0.6018E-06
     -0.877  0.7711E-04  0.6368E-05
     -0.803  0.3439E-03  0.3209E-04
     -0.728  0.8027E-03  0.9212E-04
     -0.653  0.1322E-02  0.1910E-03
     -0.578  0.1664E-02  0.3155E-03
     -0.504  0.1919E-02  0.4590E-03
     -0.429  0.2444E-02  0.6417E-03
     -0.354  0.2596E-02  0.8359E-03
     -0.279  0.2608E-02  0.1031E-02
     -0.204  0.3247E-02  0.1274E-02
     -0.130  0.3770E-02  0.1556E-02
     -0.055  0.3557E-02  0.1822E-02
      0.020  0.3725E-02  0.2100E-02
      0.095  0.4628E-02  0.2446E-02
      0.170  0.5288E-02  0.2842E-02
      0.244  0.5409E-02  0.3246E-02
      0.319  0.5710E-02  0.3673E-02
      0.394  0.6830E-02  0.4184E-02
      0.469  0.7456E-02  0.4742E-02
      0.543  0.7455E-02  0.5299E-02
      0.618  0.7796E-02  0.5882E-02
      0.693  0.7606E-02  0.6451E-02
      0.768  0.6995E-02  0.6974E-02
      0.843  0.8136E-02  0.7583E-02
      0.917  0.9382E-02  0.8284E-02
      0.992  0.8568E-02  0.8925E-02
      1.067  0.8321E-02  0.9548E-02
      1.142  0.1019E-01  0.1031E-01
      1.217  0.1727E-01  0.1160E-01
      1.291  0.3072E-01  0.1390E-01
      1.366  0.4163E-01  0.1701E-01
      1.441  0.4749E-01  0.2056E-01
      1.516  0.5065E-01  0.2435E-01
      1.591  0.5245E-01  0.2827E-01
      1.665  0.5215E-01  0.3217E-01
      1.740  0.4813E-01  0.3577E-01
      1.815  0.4641E-01  0.3924E-01
      1.890  0.4722E-01  0.4278E-01
      1.964  0.4183E-01  0.4590E-01
      2.039  0.3312E-01  0.4838E-01
      2.114  0.3020E-01  0.5064E-01
      2.189  0.3273E-01  0.5309E-01
      2.264  0.3238E-01  0.5551E-01
      2.338  0.2581E-01  0.5744E-01
      2.413  0.2042E-01  0.5897E-01
      2.488  0.2195E-01  0.6061E-01
      2.563  0.2733E-01  0.6265E-01
      2.638  0.2919E-01  0.6483E-01
      2.712  0.2714E-01  0.6686E-01
      2.787  0.2763E-01  0.6893E-01
      2.862  0.3375E-01  0.7145E-01
      2.937  0.4353E-01  0.7471E-01
      3.011  0.4941E-01  0.7840E-01
      3.086  0.4827E-01  0.8201E-01
      3.161  0.5045E-01  0.8579E-01
      3.236  0.6303E-01  0.9050E-01
      3.311  0.8374E-01  0.9676E-01
      3.385  0.1046E+00  0.1046E+00
      3.460  0.1183E+00  0.1134E+00
      3.535  0.1200E+00  0.1224E+00
      3.610  0.1135E+00  0.1309E+00
      3.685  0.1055E+00  0.1388E+00
      3.759  0.9700E-01  0.1460E+00
      3.834  0.8972E-01  0.1527E+00
      3.909  0.8628E-01  0.1592E+00
      3.984  0.8281E-01  0.1654E+00
      4.058  0.7659E-01  0.1711E+00
      4.133  0.6739E-01  0.1762E+00
      4.208  0.5588E-01  0.1803E+00
      4.283  0.4928E-01  0.1840E+00
      4.358  0.5066E-01  0.1878E+00
      4.432  0.5489E-01  0.1919E+00
      4.507  0.5786E-01  0.1962E+00
      4.582  0.5677E-01  0.2005E+00
      4.657  0.5378E-01  0.2045E+00
      4.732  0.5269E-01  0.2085E+00
      4.806  0.5022E-01  0.2122E+00
      4.881  0.5055E-01  0.2160E+00
      4.956  0.5640E-01  0.2202E+00
      5.031  0.6036E-01  0.2247E+00
      5.105  0.5753E-01  0.2290E+00
      5.180  0.5588E-01  0.2332E+00
      5.255  0.6073E-01  0.2377E+00
      5.330  0.6317E-01  0.2425E+00
      5.405  0.6242E-01  0.2471E+00
      5.479  0.6293E-01  0.2518E+00
      5.554  0.6629E-01  0.2568E+00
      5.629  0.7349E-01  0.2623E+00
      5.704  0.7547E-01  0.2679E+00
      5.779  0.7429E-01  0.2735E+00
      5.853  0.7807E-01  0.2793E+00
      5.928  0.8700E-01  0.2858E+00
      6.003  0.1003E+00  0.2933E+00
      6.078  0.1048E+00  0.3012E+00
      6.152  0.9759E-01  0.3085E+00
      6.227  0.9266E-01  0.3154E+00
      6.302  0.9306E-01  0.3224E+00
      6.377  0.9661E-01  0.3296E+00
      6.452  0.9819E-01  0.3369E+00
      6.526  0.9935E-01  0.3444E+00
      6.601  0.1030E+00  0.3521E+00
      6.676  0.1046E+00  0.3599E+00
      6.751  0.1018E+00  0.3675E+00
      6.826  0.9828E-01  0.3749E+00
      6.900  0.9137E-01  0.3817E+00
      6.975  0.8145E-01  0.3878E+00
      7.050  0.7658E-01  0.3935E+00
      7.125  0.7113E-01  0.3988E+00
      7.199  0.5762E-01  0.4031E+00
      7.274  0.4304E-01  0.4064E+00
      7.349  0.3546E-01  0.4090E+00
      7.424  0.3149E-01  0.4114E+00
      7.499  0.2826E-01  0.4135E+00
      7.573  0.2540E-01  0.4154E+00
      7.648  0.2356E-01  0.4171E+00
      7.723  0.2337E-01  0.4189E+00
      7.798  0.2408E-01  0.4207E+00
      7.873  0.2256E-01  0.4224E+00
      7.947  0.1836E-01  0.4237E+00
      8.022  0.1636E-01  0.4250E+00
      8.097  0.1851E-01  0.4263E+00
      8.172  0.1970E-01  0.4278E+00
      8.246  0.1779E-01  0.4292E+00
      8.321  0.1726E-01  0.4304E+00
      8.396  0.1704E-01  0.4317E+00
      8.471  0.1511E-01  0.4328E+00
      8.546  0.1279E-01  0.4338E+00
      8.620  0.1159E-01  0.4347E+00
      8.695  0.1117E-01  0.4355E+00
      8.770  0.1103E-01  0.4363E+00
      8.845  0.1132E-01  0.4372E+00
      8.920  0.1114E-01  0.4380E+00
      8.994  0.1076E-01  0.4388E+00
      9.069  0.1146E-01  0.4397E+00
      9.144  0.1334E-01  0.4407E+00
      9.219  0.1341E-01  0.4417E+00
      9.294  0.1175E-01  0.4426E+00
      9.368  0.1062E-01  0.4433E+00
      9.443  0.8887E-02  0.4440E+00
      9.518  0.7415E-02  0.4446E+00
      9.593  0.8486E-02  0.4452E+00
      9.667  0.9600E-02  0.4459E+00
      9.742  0.1048E-01  0.4467E+00
      9.817  0.1196E-01  0.4476E+00
      9.892  0.1308E-01  0.4486E+00
      9.967  0.1318E-01  0.4496E+00
     10.041  0.1141E-01  0.4504E+00
     10.116  0.8579E-02  0.4511E+00
     10.191  0.7999E-02  0.4517E+00
     10.266  0.9376E-02  0.4524E+00
     10.341  0.9725E-02  0.4531E+00
     10.415  0.9509E-02  0.4538E+00
     10.490  0.9797E-02  0.4545E+00
     10.565  0.1061E-01  0.4553E+00
     10.640  0.1213E-01  0.4562E+00
     10.714  0.1352E-01  0.4572E+00
     10.789  0.1225E-01  0.4582E+00
     10.864  0.1064E-01  0.4590E+00
     10.939  0.1054E-01  0.4597E+00
     11.014  0.9722E-02  0.4605E+00
     11.088  0.8089E-02  0.4611E+00
     11.163  0.7515E-02  0.4616E+00
     11.238  0.9471E-02  0.4623E+00
     11.313  0.1217E-01  0.4633E+00
     11.388  0.1355E-01  0.4643E+00
     11.462  0.1364E-01  0.4653E+00
     11.537  0.1203E-01  0.4662E+00
     11.612  0.9726E-02  0.4669E+00
     11.687  0.8909E-02  0.4676E+00
     11.761  0.8335E-02  0.4682E+00
     11.836  0.7639E-02  0.4688E+00
     11.911  0.7630E-02  0.4693E+00
     11.986  0.8441E-02  0.4700E+00
     12.061  0.1039E-01  0.4708E+00
     12.135  0.1158E-01  0.4716E+00
     12.210  0.1176E-01  0.4725E+00
     12.285  0.1056E-01  0.4733E+00
     12.360  0.9049E-02  0.4740E+00
     12.435  0.8010E-02  0.4746E+00
     12.509  0.8227E-02  0.4752E+00
     12.584  0.8484E-02  0.4758E+00
     12.659  0.7802E-02  0.4764E+00
     12.734  0.7091E-02  0.4769E+00
     12.808  0.7356E-02  0.4775E+00
     12.883  0.8351E-02  0.4781E+00
     12.958  0.9074E-02  0.4788E+00
     13.033  0.9910E-02  0.4795E+00
     13.108  0.1071E-01  0.4803E+00
     13.182  0.1002E-01  0.4811E+00
     13.257  0.8881E-02  0.4817E+00
     13.332  0.8687E-02  0.4824E+00
     13.407  0.7520E-02  0.4829E+00
     13.482  0.6351E-02  0.4834E+00
     13.556  0.7223E-02  0.4840E+00
     13.631  0.8069E-02  0.4846E+00
     13.706  0.8079E-02  0.4852E+00
     13.781  0.8538E-02  0.4858E+00
     13.855  0.9016E-02  0.4865E+00
     13.930  0.9009E-02  0.4872E+00
     14.005  0.8411E-02  0.4878E+00
     14.080  0.8667E-02  0.4884E+00
     14.155  0.1061E-01  0.4892E+00
     14.229  0.1219E-01  0.4901E+00
     14.304  0.1302E-01  0.4911E+00
     14.379  0.1461E-01  0.4922E+00
     14.454  0.1640E-01  0.4934E+00
     14.529  0.1693E-01  0.4947E+00
     14.603  0.1711E-01  0.4960E+00
     14.678  0.1654E-01  0.4972E+00
     14.753  0.1559E-01  0.4984E+00
     14.828  0.1458E-01  0.4995E+00
     14.902  0.1386E-01  0.5005E+00
     14.977  0.1443E-01  0.5016E+00
     15.052  0.1459E-01  0.5027E+00
     15.127  0.1396E-01  0.5037E+00
     15.202  0.1390E-01  0.5048E+00
     15.276  0.1438E-01  0.5058E+00
     15.351  0.1399E-01  0.5069E+00
     15.426  0.1302E-01  0.5079E+00
     15.501  0.1430E-01  0.5089E+00
     15.576  0.1673E-01  0.5102E+00
     15.650  0.1730E-01  0.5115E+00
     15.725  0.1600E-01  0.5127E+00
     15.800  0.1442E-01  0.5137E+00
     15.875  0.1394E-01  0.5148E+00
     15.949  0.1356E-01  0.5158E+00
     16.024  0.1282E-01  0.5168E+00
     16.099  0.1400E-01  0.5178E+00
     16.174  0.1600E-01  0.5190E+00
     16.249  0.1628E-01  0.5202E+00
     16.323  0.1421E-01  0.5213E+00
     16.398  0.1193E-01  0.5222E+00
     16.473  0.1064E-01  0.5230E+00
     16.548  0.9995E-02  0.5237E+00
     16.623  0.1106E-01  0.5245E+00
     16.697  0.1316E-01  0.5255E+00
     16.772  0.1332E-01  0.5265E+00
     16.847  0.1134E-01  0.5274E+00
     16.922  0.1092E-01  0.5282E+00
     16.996  0.1211E-01  0.5291E+00
     17.071  0.1161E-01  0.5300E+00
     17.146  0.1013E-01  0.5307E+00
     17.221  0.9081E-02  0.5314E+00
     17.296  0.8686E-02  0.5321E+00
     17.370  0.8250E-02  0.5327E+00
     17.445  0.7350E-02  0.5332E+00
     17.520  0.6813E-02  0.5337E+00
     17.595  0.7249E-02  0.5343E+00
     17.670  0.7249E-02  0.5348E+00
     17.744  0.6324E-02  0.5353E+00
     17.819  0.5380E-02  0.5357E+00
     17.894  0.4723E-02  0.5360E+00
     17.969  0.4524E-02  0.5364E+00
     18.044  0.5115E-02  0.5368E+00
     18.118  0.5273E-02  0.5372E+00
     18.193  0.4672E-02  0.5375E+00
     18.268  0.4177E-02  0.5378E+00
     18.343  0.3576E-02  0.5381E+00
     18.417  0.3175E-02  0.5383E+00
     18.492  0.2617E-02  0.5385E+00
     18.567  0.2293E-02  0.5387E+00
     18.642  0.2133E-02  0.5389E+00
     18.717  0.1784E-02  0.5390E+00
     18.791  0.1985E-02  0.5391E+00
     18.866  0.2503E-02  0.5393E+00
     18.941  0.2252E-02  0.5395E+00
     19.016  0.1550E-02  0.5396E+00
     19.091  0.1251E-02  0.5397E+00
     19.165  0.9859E-03  0.5398E+00
     19.240  0.8413E-03  0.5398E+00
     19.315  0.7673E-03  0.5399E+00
     19.390  0.3958E-03  0.5399E+00
     19.464  0.1799E-03  0.5399E+00
     19.539  0.3139E-03  0.5400E+00
     19.614  0.3559E-03  0.5400E+00
     19.689  0.1529E-03  0.5400E+00
     19.764  0.2420E-04  0.5400E+00
     19.838  0.1388E-05  0.5400E+00
     19.913  0.2832E-07  0.5400E+00
     19.988  0.2020E-09  0.5400E+00
     20.063  0.4966E-12  0.5400E+00
     20.138  0.4156E-15  0.5400E+00
     20.212  0.1056E-18  0.5400E+00
     20.287  0.0000E+00  0.5400E+00
     20.362  0.0000E+00  0.5400E+00
     20.437  0.0000E+00  0.5400E+00
     20.511  0.0000E+00  0.5400E+00
     20.586  0.0000E+00  0.5400E+00
