   4   4   0   0
  0.1840402E+02  0.4268628E-09  0.4155953E-09  0.4155953E-09  0.2000000E-15
  1.000000000000000E-004
  CAR 
 unknown system                          
     18.73219600     -1.82857819  301      8.27175294      1.00000000
     -1.829  0.0000E+00  0.0000E+00
     -1.760  0.0000E+00  0.0000E+00
     -1.692  0.0000E+00  0.0000E+00
     -1.623  0.0000E+00  0.0000E+00
     -1.554  0.0000E+00  0.0000E+00
     -1.486  0.0000E+00  0.0000E+00
     -1.417  0.4800E-20  0.3290E-21
     -1.349  0.8332E-17  0.5714E-18
     -1.280  0.7644E-14  0.5245E-15
     -1.212  0.2857E-11  0.1963E-12
     -1.143  0.4449E-09  0.3069E-10
     -1.075  0.2988E-07  0.2078E-08
     -1.006  0.9062E-06  0.6419E-07
     -0.938  0.1310E-04  0.9622E-06
     -0.869  0.9503E-04  0.7475E-05
     -0.801  0.3622E-03  0.3230E-04
     -0.732  0.7835E-03  0.8600E-04
     -0.663  0.1182E-02  0.1670E-03
     -0.595  0.1621E-02  0.2782E-03
     -0.526  0.1897E-02  0.4082E-03
     -0.458  0.1930E-02  0.5405E-03
     -0.389  0.2306E-02  0.6985E-03
     -0.321  0.2730E-02  0.8856E-03
     -0.252  0.2829E-02  0.1080E-02
     -0.184  0.2902E-02  0.1278E-02
     -0.115  0.2897E-02  0.1477E-02
     -0.047  0.3188E-02  0.1695E-02
      0.022  0.3873E-02  0.1961E-02
      0.090  0.4202E-02  0.2249E-02
      0.159  0.3912E-02  0.2517E-02
      0.227  0.3568E-02  0.2762E-02
      0.296  0.3993E-02  0.3035E-02
      0.365  0.4846E-02  0.3367E-02
      0.433  0.5235E-02  0.3726E-02
      0.502  0.5228E-02  0.4085E-02
      0.570  0.5203E-02  0.4441E-02
      0.639  0.5282E-02  0.4803E-02
      0.707  0.5557E-02  0.5184E-02
      0.776  0.5756E-02  0.5578E-02
      0.844  0.6204E-02  0.6004E-02
      0.913  0.7255E-02  0.6501E-02
      0.981  0.7752E-02  0.7032E-02
      1.050  0.7465E-02  0.7544E-02
      1.118  0.7388E-02  0.8050E-02
      1.187  0.7924E-02  0.8593E-02
      1.256  0.9163E-02  0.9221E-02
      1.324  0.1041E-01  0.9935E-02
      1.393  0.1135E-01  0.1071E-01
      1.461  0.1314E-01  0.1161E-01
      1.530  0.1595E-01  0.1271E-01
      1.598  0.1922E-01  0.1402E-01
      1.667  0.2268E-01  0.1558E-01
      1.735  0.2606E-01  0.1736E-01
      1.804  0.2971E-01  0.1940E-01
      1.872  0.3379E-01  0.2172E-01
      1.941  0.3924E-01  0.2441E-01
      2.009  0.4569E-01  0.2754E-01
      2.078  0.5119E-01  0.3105E-01
      2.147  0.5762E-01  0.3499E-01
      2.215  0.6530E-01  0.3947E-01
      2.284  0.7205E-01  0.4441E-01
      2.352  0.7768E-01  0.4973E-01
      2.421  0.7985E-01  0.5520E-01
      2.489  0.7913E-01  0.6063E-01
      2.558  0.7880E-01  0.6603E-01
      2.626  0.7563E-01  0.7121E-01
      2.695  0.7173E-01  0.7613E-01
      2.763  0.7138E-01  0.8102E-01
      2.832  0.7026E-01  0.8584E-01
      2.900  0.6668E-01  0.9041E-01
      2.969  0.6234E-01  0.9468E-01
      3.037  0.5837E-01  0.9868E-01
      3.106  0.5877E-01  0.1027E+00
      3.175  0.6335E-01  0.1070E+00
      3.243  0.7024E-01  0.1119E+00
      3.312  0.7938E-01  0.1173E+00
      3.380  0.8768E-01  0.1233E+00
      3.449  0.9224E-01  0.1296E+00
      3.517  0.9515E-01  0.1362E+00
      3.586  0.9504E-01  0.1427E+00
      3.654  0.9499E-01  0.1492E+00
      3.723  0.9712E-01  0.1558E+00
      3.791  0.9794E-01  0.1625E+00
      3.860  0.9617E-01  0.1691E+00
      3.928  0.9586E-01  0.1757E+00
      3.997  0.9976E-01  0.1825E+00
      4.066  0.1067E+00  0.1899E+00
      4.134  0.1135E+00  0.1976E+00
      4.203  0.1139E+00  0.2054E+00
      4.271  0.1093E+00  0.2129E+00
      4.340  0.1076E+00  0.2203E+00
      4.408  0.1067E+00  0.2276E+00
      4.477  0.1031E+00  0.2347E+00
      4.545  0.9572E-01  0.2412E+00
      4.614  0.8575E-01  0.2471E+00
      4.682  0.7895E-01  0.2525E+00
      4.751  0.7653E-01  0.2578E+00
      4.819  0.7783E-01  0.2631E+00
      4.888  0.8215E-01  0.2687E+00
      4.956  0.8798E-01  0.2748E+00
      5.025  0.9227E-01  0.2811E+00
      5.094  0.9527E-01  0.2876E+00
      5.162  0.9818E-01  0.2944E+00
      5.231  0.9575E-01  0.3009E+00
      5.299  0.8989E-01  0.3071E+00
      5.368  0.8891E-01  0.3132E+00
      5.436  0.8869E-01  0.3193E+00
      5.505  0.8465E-01  0.3251E+00
      5.573  0.7932E-01  0.3305E+00
      5.642  0.7464E-01  0.3356E+00
      5.710  0.7479E-01  0.3407E+00
      5.779  0.7839E-01  0.3461E+00
      5.847  0.7913E-01  0.3515E+00
      5.916  0.7937E-01  0.3570E+00
      5.985  0.8556E-01  0.3628E+00
      6.053  0.9493E-01  0.3693E+00
      6.122  0.1041E+00  0.3765E+00
      6.190  0.1165E+00  0.3845E+00
      6.259  0.1232E+00  0.3929E+00
      6.327  0.1144E+00  0.4007E+00
      6.396  0.9569E-01  0.4073E+00
      6.464  0.7488E-01  0.4124E+00
      6.533  0.5562E-01  0.4162E+00
      6.601  0.4038E-01  0.4190E+00
      6.670  0.2872E-01  0.4210E+00
      6.738  0.1747E-01  0.4222E+00
      6.807  0.1062E-01  0.4229E+00
      6.875  0.1055E-01  0.4236E+00
      6.944  0.1290E-01  0.4245E+00
      7.013  0.1435E-01  0.4255E+00
      7.081  0.1296E-01  0.4264E+00
      7.150  0.9863E-02  0.4271E+00
      7.218  0.8975E-02  0.4277E+00
      7.287  0.1056E-01  0.4284E+00
      7.355  0.1315E-01  0.4293E+00
      7.424  0.1462E-01  0.4303E+00
      7.492  0.1301E-01  0.4312E+00
      7.561  0.1082E-01  0.4319E+00
      7.629  0.1004E-01  0.4326E+00
      7.698  0.9929E-02  0.4333E+00
      7.766  0.1091E-01  0.4340E+00
      7.835  0.1344E-01  0.4350E+00
      7.904  0.1474E-01  0.4360E+00
      7.972  0.1325E-01  0.4369E+00
      8.041  0.1122E-01  0.4377E+00
      8.109  0.1011E-01  0.4384E+00
      8.178  0.9806E-02  0.4390E+00
      8.246  0.1014E-01  0.4397E+00
      8.315  0.1173E-01  0.4405E+00
      8.383  0.1372E-01  0.4415E+00
      8.452  0.1422E-01  0.4424E+00
      8.520  0.1313E-01  0.4433E+00
      8.589  0.1165E-01  0.4441E+00
      8.657  0.1075E-01  0.4449E+00
      8.726  0.1062E-01  0.4456E+00
      8.794  0.1086E-01  0.4463E+00
      8.863  0.1073E-01  0.4471E+00
      8.932  0.1090E-01  0.4478E+00
      9.000  0.1228E-01  0.4487E+00
      9.069  0.1334E-01  0.4496E+00
      9.137  0.1278E-01  0.4505E+00
      9.206  0.1150E-01  0.4512E+00
      9.274  0.1052E-01  0.4520E+00
      9.343  0.1089E-01  0.4527E+00
      9.411  0.1180E-01  0.4535E+00
      9.480  0.1183E-01  0.4543E+00
      9.548  0.1162E-01  0.4551E+00
      9.617  0.1164E-01  0.4559E+00
      9.685  0.1164E-01  0.4567E+00
      9.754  0.1111E-01  0.4575E+00
      9.823  0.1070E-01  0.4582E+00
      9.891  0.1123E-01  0.4590E+00
      9.960  0.1170E-01  0.4598E+00
     10.028  0.1162E-01  0.4606E+00
     10.097  0.1137E-01  0.4614E+00
     10.165  0.1078E-01  0.4621E+00
     10.234  0.1059E-01  0.4628E+00
     10.302  0.1068E-01  0.4636E+00
     10.371  0.1101E-01  0.4643E+00
     10.439  0.1177E-01  0.4651E+00
     10.508  0.1235E-01  0.4660E+00
     10.576  0.1290E-01  0.4669E+00
     10.645  0.1395E-01  0.4678E+00
     10.713  0.1425E-01  0.4688E+00
     10.782  0.1356E-01  0.4697E+00
     10.851  0.1270E-01  0.4706E+00
     10.919  0.1254E-01  0.4714E+00
     10.988  0.1333E-01  0.4724E+00
     11.056  0.1308E-01  0.4733E+00
     11.125  0.1186E-01  0.4741E+00
     11.193  0.1193E-01  0.4749E+00
     11.262  0.1366E-01  0.4758E+00
     11.330  0.1534E-01  0.4769E+00
     11.399  0.1510E-01  0.4779E+00
     11.467  0.1403E-01  0.4789E+00
     11.536  0.1377E-01  0.4798E+00
     11.604  0.1380E-01  0.4808E+00
     11.673  0.1354E-01  0.4817E+00
     11.742  0.1312E-01  0.4826E+00
     11.810  0.1240E-01  0.4834E+00
     11.879  0.1152E-01  0.4842E+00
     11.947  0.1087E-01  0.4850E+00
     12.016  0.1016E-01  0.4857E+00
     12.084  0.9885E-02  0.4863E+00
     12.153  0.1083E-01  0.4871E+00
     12.221  0.1187E-01  0.4879E+00
     12.290  0.1154E-01  0.4887E+00
     12.358  0.1159E-01  0.4895E+00
     12.427  0.1228E-01  0.4903E+00
     12.495  0.1162E-01  0.4911E+00
     12.564  0.1035E-01  0.4918E+00
     12.632  0.9774E-02  0.4925E+00
     12.701  0.1047E-01  0.4932E+00
     12.770  0.1105E-01  0.4940E+00
     12.838  0.1173E-01  0.4948E+00
     12.907  0.1367E-01  0.4957E+00
     12.975  0.1509E-01  0.4968E+00
     13.044  0.1515E-01  0.4978E+00
     13.112  0.1366E-01  0.4987E+00
     13.181  0.1310E-01  0.4996E+00
     13.249  0.1530E-01  0.5007E+00
     13.318  0.1678E-01  0.5018E+00
     13.386  0.1571E-01  0.5029E+00
     13.455  0.1427E-01  0.5039E+00
     13.523  0.1431E-01  0.5049E+00
     13.592  0.1470E-01  0.5059E+00
     13.661  0.1380E-01  0.5068E+00
     13.729  0.1318E-01  0.5077E+00
     13.798  0.1364E-01  0.5087E+00
     13.866  0.1347E-01  0.5096E+00
     13.935  0.1329E-01  0.5105E+00
     14.003  0.1399E-01  0.5114E+00
     14.072  0.1335E-01  0.5124E+00
     14.140  0.1183E-01  0.5132E+00
     14.209  0.1134E-01  0.5139E+00
     14.277  0.1125E-01  0.5147E+00
     14.346  0.1120E-01  0.5155E+00
     14.414  0.1125E-01  0.5163E+00
     14.483  0.1094E-01  0.5170E+00
     14.552  0.1055E-01  0.5177E+00
     14.620  0.1071E-01  0.5185E+00
     14.689  0.1116E-01  0.5192E+00
     14.757  0.1139E-01  0.5200E+00
     14.826  0.1172E-01  0.5208E+00
     14.894  0.1157E-01  0.5216E+00
     14.963  0.1078E-01  0.5223E+00
     15.031  0.1048E-01  0.5231E+00
     15.100  0.1042E-01  0.5238E+00
     15.168  0.1025E-01  0.5245E+00
     15.237  0.1041E-01  0.5252E+00
     15.305  0.1084E-01  0.5259E+00
     15.374  0.1103E-01  0.5267E+00
     15.442  0.1175E-01  0.5275E+00
     15.511  0.1270E-01  0.5284E+00
     15.580  0.1270E-01  0.5292E+00
     15.648  0.1238E-01  0.5301E+00
     15.717  0.1240E-01  0.5309E+00
     15.785  0.1225E-01  0.5318E+00
     15.854  0.1144E-01  0.5326E+00
     15.922  0.1001E-01  0.5332E+00
     15.991  0.8840E-02  0.5339E+00
     16.059  0.8584E-02  0.5344E+00
     16.128  0.8458E-02  0.5350E+00
     16.196  0.7981E-02  0.5356E+00
     16.265  0.7338E-02  0.5361E+00
     16.333  0.6712E-02  0.5365E+00
     16.402  0.6710E-02  0.5370E+00
     16.471  0.6733E-02  0.5375E+00
     16.539  0.5655E-02  0.5378E+00
     16.608  0.4694E-02  0.5382E+00
     16.676  0.4449E-02  0.5385E+00
     16.745  0.3750E-02  0.5387E+00
     16.813  0.2718E-02  0.5389E+00
     16.882  0.2356E-02  0.5391E+00
     16.950  0.2488E-02  0.5392E+00
     17.019  0.2363E-02  0.5394E+00
     17.087  0.1651E-02  0.5395E+00
     17.156  0.1105E-02  0.5396E+00
     17.224  0.1163E-02  0.5397E+00
     17.293  0.1061E-02  0.5397E+00
     17.361  0.6329E-03  0.5398E+00
     17.430  0.4039E-03  0.5398E+00
     17.499  0.3902E-03  0.5398E+00
     17.567  0.4189E-03  0.5399E+00
     17.636  0.5349E-03  0.5399E+00
     17.704  0.6355E-03  0.5400E+00
     17.773  0.4832E-03  0.5400E+00
     17.841  0.2004E-03  0.5400E+00
     17.910  0.4100E-04  0.5400E+00
     17.978  0.3805E-05  0.5400E+00
     18.047  0.1515E-06  0.5400E+00
     18.115  0.2505E-08  0.5400E+00
     18.184  0.1685E-10  0.5400E+00
     18.252  0.4563E-13  0.5400E+00
     18.321  0.4932E-16  0.5400E+00
     18.390  0.0000E+00  0.5400E+00
     18.458  0.0000E+00  0.5400E+00
     18.527  0.0000E+00  0.5400E+00
     18.595  0.0000E+00  0.5400E+00
     18.664  0.0000E+00  0.5400E+00
     18.732  0.0000E+00  0.5400E+00
