 running on   24 total cores
 distrk:  each k-point on   24 cores,    1 groups
 distr:  one band on    8 cores,    3 groups
 using from now: INCAR     
 vasp.5.4.4.18Apr17-6-g9f103f2a35 (build Jan 14 2019 14:48:31) complex          
  
 POSCAR found type information on POSCAR  Au
 POSCAR found :  1 types and       4 ions
 scaLAPACK will be used
 LDA part: xc-table for Pade appr. of Perdew
 POSCAR found type information on POSCAR  Au
 POSCAR found :  1 types and       4 ions
 POSCAR, INCAR and KPOINTS ok, starting setup
 FFT: planning ...
 WAVECAR not read
 entering main loop
       N       E                     dE             d eps       ncg     rms          rms(c)
DAV:   1     0.272368069145E+03    0.27237E+03   -0.22514E+04 91908   0.151E+03
DAV:   2    -0.886410850699E+01   -0.28123E+03   -0.27319E+03105723   0.324E+02
DAV:   3    -0.138583866466E+02   -0.49943E+01   -0.49598E+01101466   0.453E+01
DAV:   4    -0.138886587641E+02   -0.30272E-01   -0.30257E-01104202   0.366E+00
DAV:   5    -0.138889547338E+02   -0.29597E-03   -0.29596E-03107478   0.375E-01    0.148E+01
RMM:   6    -0.129062904110E+02    0.98266E+00   -0.26259E+00 91152   0.106E+01    0.979E+00
RMM:   7    -0.128518814329E+02    0.54409E-01   -0.29172E-01 91212   0.335E+00    0.475E+00
RMM:   8    -0.128444151695E+02    0.74663E-02   -0.13097E-02 91237   0.739E-01    0.526E-01
RMM:   9    -0.128442788572E+02    0.13631E-03   -0.34168E-04 91234   0.105E-01    0.399E-02
RMM:  10    -0.128442956006E+02   -0.16743E-04   -0.21659E-05 91286   0.347E-02    0.278E-02
RMM:  11    -0.128442972076E+02   -0.16069E-05   -0.90685E-07 50829   0.525E-03    0.881E-04
RMM:  12    -0.128442970793E+02    0.12825E-06   -0.15359E-07 46999   0.249E-03
   1 F= -.12844297E+02 E0= -.12841442E+02  d E =-.128443E+02
 curvature:   0.00 expect dE= 0.000E+00 dE for cont linesearch  0.000E+00
 trial: gam= 0.00000 g(F)=  0.107E-13 g(S)=  0.000E+00 ort = 0.000E+00 (trialstep = 0.100E+01)
 search vector abs. value=  0.100E-09
 reached required accuracy - stopping structural energy minimisation
