   2   2   0   0
  0.7989452E+02  0.2479115E-09  0.2457738E-09  0.3028239E-08  0.5000000E-15
  1.000000000000000E-004
  CAR 
 unknown system                          
     18.05025153    -24.57434386  301     -3.52844989      1.00000000
    -24.574  0.0000E+00  0.0000E+00
    -24.432  0.0000E+00  0.0000E+00
    -24.290  0.0000E+00  0.0000E+00
    -24.148  0.0000E+00  0.0000E+00
    -24.006  0.0000E+00  0.0000E+00
    -23.864  0.0000E+00  0.0000E+00
    -23.722  0.0000E+00  0.0000E+00
    -23.580  0.0000E+00  0.0000E+00
    -23.438  0.0000E+00  0.0000E+00
    -23.296  0.0000E+00  0.0000E+00
    -23.154  0.0000E+00  0.0000E+00
    -23.011  0.0000E+00  0.0000E+00
    -22.869  0.4723E-13  0.6711E-14
    -22.727  0.1031E-04  0.1465E-05
    -22.585  0.2189E-02  0.3125E-03
    -22.443  0.1996E-02  0.5962E-03
    -22.301  0.4777E-02  0.1275E-02
    -22.159  0.2246E-02  0.1594E-02
    -22.017  0.2469E-02  0.1945E-02
    -21.875  0.3362E-02  0.2422E-02
    -21.733  0.4467E-02  0.3057E-02
    -21.591  0.2628E-02  0.3431E-02
    -21.449  0.2050E-02  0.3722E-02
    -21.306  0.3128E-02  0.4166E-02
    -21.164  0.2549E-02  0.4528E-02
    -21.022  0.5242E-02  0.5273E-02
    -20.880  0.3617E-02  0.5787E-02
    -20.738  0.1016E-02  0.5931E-02
    -20.596  0.5160E-02  0.6664E-02
    -20.454  0.1179E-03  0.6681E-02
    -20.312  0.3656E-02  0.7201E-02
    -20.170  0.4646E-02  0.7861E-02
    -20.028  0.3747E-02  0.8393E-02
    -19.886  0.3473E-02  0.8887E-02
    -19.744  0.2094E-02  0.9184E-02
    -19.601  0.3778E-02  0.9721E-02
    -19.459  0.4064E-02  0.1030E-01
    -19.317  0.1810E-02  0.1056E-01
    -19.175  0.2125E-04  0.1056E-01
    -19.033  0.5155E-02  0.1129E-01
    -18.891  0.6885E-02  0.1227E-01
    -18.749  0.3151E-02  0.1272E-01
    -18.607  0.1900E-02  0.1299E-01
    -18.465  0.2457E-02  0.1334E-01
    -18.323  0.5086E-02  0.1406E-01
    -18.181  0.2727E-02  0.1445E-01
    -18.039  0.3081E-02  0.1488E-01
    -17.896  0.2668E-02  0.1526E-01
    -17.754  0.1191E-02  0.1543E-01
    -17.612  0.6827E-02  0.1640E-01
    -17.470  0.7627E-02  0.1749E-01
    -17.328  0.3856E-02  0.1803E-01
    -17.186  0.2108E-02  0.1833E-01
    -17.044  0.5654E-03  0.1841E-01
    -16.902  0.4425E-02  0.1904E-01
    -16.760  0.8764E-03  0.1917E-01
    -16.618  0.2513E-05  0.1917E-01
    -16.476  0.1718E-02  0.1941E-01
    -16.334  0.2529E-02  0.1977E-01
    -16.192  0.5747E-02  0.2059E-01
    -16.049  0.2051E-02  0.2088E-01
    -15.907  0.3634E-02  0.2139E-01
    -15.765  0.1884E-02  0.2166E-01
    -15.623  0.3575E-02  0.2217E-01
    -15.481  0.4266E-02  0.2278E-01
    -15.339  0.7522E-02  0.2385E-01
    -15.197  0.3983E-02  0.2441E-01
    -15.055  0.2173E-02  0.2472E-01
    -14.913  0.7208E-03  0.2482E-01
    -14.771  0.8506E-02  0.2603E-01
    -14.629  0.5644E-03  0.2611E-01
    -14.487  0.3427E-03  0.2616E-01
    -14.344  0.4788E-02  0.2684E-01
    -14.202  0.5455E-02  0.2762E-01
    -14.060  0.2002E-02  0.2790E-01
    -13.918  0.3134E-02  0.2834E-01
    -13.776  0.1876E-02  0.2861E-01
    -13.634  0.1863E-02  0.2888E-01
    -13.492  0.2943E-02  0.2929E-01
    -13.350  0.4743E-02  0.2997E-01
    -13.208  0.4886E-02  0.3066E-01
    -13.066  0.7023E-02  0.3166E-01
    -12.924  0.7290E-03  0.3176E-01
    -12.782  0.2429E-02  0.3211E-01
    -12.639  0.3104E-02  0.3255E-01
    -12.497  0.3540E-02  0.3305E-01
    -12.355  0.2171E-02  0.3336E-01
    -12.213  0.4884E-02  0.3406E-01
    -12.071  0.7585E-02  0.3513E-01
    -11.929  0.3079E-02  0.3557E-01
    -11.787  0.3617E-02  0.3608E-01
    -11.645  0.5978E-02  0.3693E-01
    -11.503  0.4062E-03  0.3699E-01
    -11.361  0.5641E-02  0.3779E-01
    -11.219  0.4417E-02  0.3842E-01
    -11.077  0.4835E-02  0.3911E-01
    -10.934  0.4161E-02  0.3970E-01
    -10.792  0.2942E-02  0.4012E-01
    -10.650  0.6886E-02  0.4110E-01
    -10.508  0.8187E-02  0.4226E-01
    -10.366  0.6710E-02  0.4321E-01
    -10.224  0.8480E-02  0.4442E-01
    -10.082  0.1262E-01  0.4621E-01
     -9.940  0.6197E-02  0.4709E-01
     -9.798  0.9525E-02  0.4844E-01
     -9.656  0.7401E-02  0.4949E-01
     -9.514  0.1142E-01  0.5112E-01
     -9.372  0.1150E-01  0.5275E-01
     -9.229  0.8931E-02  0.5402E-01
     -9.087  0.4378E-02  0.5464E-01
     -8.945  0.9206E-02  0.5595E-01
     -8.803  0.8764E-02  0.5720E-01
     -8.661  0.1159E-01  0.5884E-01
     -8.519  0.4717E-02  0.5951E-01
     -8.377  0.7297E-02  0.6055E-01
     -8.235  0.2886E-02  0.6096E-01
     -8.093  0.5376E-02  0.6172E-01
     -7.951  0.5902E-02  0.6256E-01
     -7.809  0.6786E-02  0.6353E-01
     -7.667  0.9959E-02  0.6494E-01
     -7.525  0.6267E-02  0.6583E-01
     -7.382  0.2796E-02  0.6623E-01
     -7.240  0.7995E-02  0.6737E-01
     -7.098  0.6279E-02  0.6826E-01
     -6.956  0.3066E-02  0.6869E-01
     -6.814  0.3603E-02  0.6921E-01
     -6.672  0.6048E-02  0.7006E-01
     -6.530  0.7317E-02  0.7110E-01
     -6.388  0.7965E-02  0.7224E-01
     -6.246  0.4962E-02  0.7294E-01
     -6.104  0.3026E-02  0.7337E-01
     -5.962  0.2612E-02  0.7374E-01
     -5.820  0.5125E-02  0.7447E-01
     -5.677  0.5015E-02  0.7518E-01
     -5.535  0.2849E-02  0.7559E-01
     -5.393  0.2418E-02  0.7593E-01
     -5.251  0.4945E-02  0.7663E-01
     -5.109  0.1111E-01  0.7821E-01
     -4.967  0.8519E-03  0.7833E-01
     -4.825  0.3538E-05  0.7833E-01
     -4.683  0.1825E-02  0.7859E-01
     -4.541  0.2119E-02  0.7889E-01
     -4.399  0.1879E-02  0.7916E-01
     -4.257  0.1132E-03  0.7918E-01
     -4.115  0.1857E-02  0.7944E-01
     -3.972  0.6232E-04  0.7945E-01
     -3.830  0.2124E-02  0.7975E-01
     -3.688  0.1745E-02  0.8000E-01
     -3.546  0.3677E-05  0.8000E-01
     -3.404  0.4536E-14  0.8000E-01
     -3.262  0.0000E+00  0.8000E-01
     -3.120  0.0000E+00  0.8000E-01
     -2.978  0.0000E+00  0.8000E-01
     -2.836  0.2062E-17  0.8000E-01
     -2.694  0.8783E-07  0.8000E-01
     -2.552  0.1079E-02  0.8015E-01
     -2.410  0.2751E-02  0.8054E-01
     -2.267  0.2747E-03  0.8058E-01
     -2.125  0.1754E-02  0.8083E-01
     -1.983  0.1220E-04  0.8083E-01
     -1.841  0.3473E-02  0.8133E-01
     -1.699  0.2385E-02  0.8167E-01
     -1.557  0.1061E-02  0.8182E-01
     -1.415  0.8559E-02  0.8303E-01
     -1.273  0.5631E-02  0.8383E-01
     -1.131  0.7096E-02  0.8484E-01
     -0.989  0.1652E-02  0.8508E-01
     -0.847  0.5165E-02  0.8581E-01
     -0.705  0.2116E-02  0.8611E-01
     -0.562  0.7530E-05  0.8611E-01
     -0.420  0.5926E-02  0.8695E-01
     -0.278  0.1888E-02  0.8722E-01
     -0.136  0.7020E-04  0.8723E-01
      0.006  0.4067E-02  0.8781E-01
      0.148  0.4389E-02  0.8843E-01
      0.290  0.5602E-02  0.8923E-01
      0.432  0.2982E-02  0.8965E-01
      0.574  0.7144E-02  0.9067E-01
      0.716  0.3121E-02  0.9111E-01
      0.858  0.3546E-02  0.9162E-01
      1.000  0.5972E-02  0.9246E-01
      1.142  0.6794E-02  0.9343E-01
      1.285  0.1268E-01  0.9523E-01
      1.427  0.6702E-02  0.9618E-01
      1.569  0.1009E-01  0.9762E-01
      1.711  0.1269E-01  0.9942E-01
      1.853  0.1207E-01  0.1011E+00
      1.995  0.1054E-01  0.1026E+00
      2.137  0.1405E-01  0.1046E+00
      2.279  0.2017E-01  0.1075E+00
      2.421  0.1465E-01  0.1096E+00
      2.563  0.1215E-01  0.1113E+00
      2.705  0.1726E-01  0.1138E+00
      2.847  0.1695E-01  0.1162E+00
      2.990  0.1665E-01  0.1185E+00
      3.132  0.1610E-01  0.1208E+00
      3.274  0.1643E-01  0.1232E+00
      3.416  0.1554E-01  0.1254E+00
      3.558  0.1937E-01  0.1281E+00
      3.700  0.2383E-01  0.1315E+00
      3.842  0.1768E-01  0.1340E+00
      3.984  0.2199E-01  0.1371E+00
      4.126  0.2231E-01  0.1403E+00
      4.268  0.2475E-01  0.1438E+00
      4.410  0.2636E-01  0.1476E+00
      4.552  0.1923E-01  0.1503E+00
      4.695  0.3790E-01  0.1557E+00
      4.837  0.1710E-01  0.1581E+00
      4.979  0.3170E-01  0.1626E+00
      5.121  0.3154E-01  0.1671E+00
      5.263  0.4232E-01  0.1731E+00
      5.405  0.3112E-01  0.1775E+00
      5.547  0.2559E-01  0.1812E+00
      5.689  0.3431E-01  0.1860E+00
      5.831  0.2779E-01  0.1900E+00
      5.973  0.3611E-01  0.1951E+00
      6.115  0.3477E-01  0.2001E+00
      6.257  0.2882E-01  0.2042E+00
      6.400  0.3465E-01  0.2091E+00
      6.542  0.1633E-01  0.2114E+00
      6.684  0.3463E-01  0.2163E+00
      6.826  0.3404E-01  0.2212E+00
      6.968  0.2449E-01  0.2246E+00
      7.110  0.3496E-01  0.2296E+00
      7.252  0.2526E-01  0.2332E+00
      7.394  0.3712E-01  0.2385E+00
      7.536  0.3669E-01  0.2437E+00
      7.678  0.4021E-01  0.2494E+00
      7.820  0.3979E-01  0.2550E+00
      7.962  0.2885E-01  0.2591E+00
      8.105  0.3902E-01  0.2647E+00
      8.247  0.2342E-01  0.2680E+00
      8.389  0.4023E-01  0.2737E+00
      8.531  0.2465E-01  0.2772E+00
      8.673  0.3063E-01  0.2816E+00
      8.815  0.3505E-01  0.2866E+00
      8.957  0.3448E-01  0.2915E+00
      9.099  0.4109E-01  0.2973E+00
      9.241  0.4378E-01  0.3035E+00
      9.383  0.2998E-01  0.3078E+00
      9.525  0.3526E-01  0.3128E+00
      9.667  0.3121E-01  0.3172E+00
      9.809  0.4818E-01  0.3241E+00
      9.952  0.3679E-01  0.3293E+00
     10.094  0.4511E-01  0.3357E+00
     10.236  0.3790E-01  0.3411E+00
     10.378  0.4206E-01  0.3471E+00
     10.520  0.3091E-01  0.3515E+00
     10.662  0.3157E-01  0.3559E+00
     10.804  0.3891E-01  0.3615E+00
     10.946  0.3695E-01  0.3667E+00
     11.088  0.5561E-01  0.3746E+00
     11.230  0.4075E-01  0.3804E+00
     11.372  0.3331E-01  0.3852E+00
     11.514  0.3882E-01  0.3907E+00
     11.657  0.3597E-01  0.3958E+00
     11.799  0.2839E-01  0.3998E+00
     11.941  0.3441E-01  0.4047E+00
     12.083  0.4265E-01  0.4108E+00
     12.225  0.3664E-01  0.4160E+00
     12.367  0.2848E-01  0.4200E+00
     12.509  0.4263E-01  0.4261E+00
     12.651  0.4551E-01  0.4325E+00
     12.793  0.3609E-01  0.4377E+00
     12.935  0.2803E-01  0.4416E+00
     13.077  0.3205E-01  0.4462E+00
     13.219  0.1872E-01  0.4489E+00
     13.362  0.3471E-01  0.4538E+00
     13.504  0.2743E-01  0.4577E+00
     13.646  0.1712E-01  0.4601E+00
     13.788  0.2742E-01  0.4640E+00
     13.930  0.1999E-01  0.4669E+00
     14.072  0.2563E-01  0.4705E+00
     14.214  0.1271E-01  0.4723E+00
     14.356  0.1758E-01  0.4748E+00
     14.498  0.6682E-02  0.4758E+00
     14.640  0.5114E-02  0.4765E+00
     14.782  0.7240E-02  0.4775E+00
     14.924  0.4651E-02  0.4782E+00
     15.067  0.2938E-02  0.4786E+00
     15.209  0.1755E-03  0.4786E+00
     15.351  0.6171E-03  0.4787E+00
     15.493  0.2432E-02  0.4790E+00
     15.635  0.3401E-02  0.4795E+00
     15.777  0.1370E-02  0.4797E+00
     15.919  0.4671E-06  0.4797E+00
     16.061  0.1407E-03  0.4797E+00
     16.203  0.1804E-02  0.4800E+00
     16.345  0.1031E-04  0.4800E+00
     16.487  0.4723E-13  0.4800E+00
     16.629  0.0000E+00  0.4800E+00
     16.772  0.0000E+00  0.4800E+00
     16.914  0.0000E+00  0.4800E+00
     17.056  0.0000E+00  0.4800E+00
     17.198  0.0000E+00  0.4800E+00
     17.340  0.0000E+00  0.4800E+00
     17.482  0.0000E+00  0.4800E+00
     17.624  0.0000E+00  0.4800E+00
     17.766  0.0000E+00  0.4800E+00
     17.908  0.0000E+00  0.4800E+00
     18.050  0.0000E+00  0.4800E+00
