 vasp.5.4.4.18Apr17-6-g9f103f2a35 (build Jan 14 2019 14:48:31) complex          
  
 executed on             LinuxIFC date 2019.09.10  15:54:32
 running on   24 total cores
 distrk:  each k-point on   24 cores,    1 groups
 distr:  one band on NCORES_PER_BAND=   1 cores,   24 groups


--------------------------------------------------------------------------------------------------------


 INCAR:
 POTCAR:    PAW_PBE C_h 06Feb2004                 

 ----------------------------------------------------------------------------- 
|                                                                             |
|           W    W    AA    RRRRR   N    N  II  N    N   GGGG   !!!           |
|           W    W   A  A   R    R  NN   N  II  NN   N  G    G  !!!           |
|           W    W  A    A  R    R  N N  N  II  N N  N  G       !!!           |
|           W WW W  AAAAAA  RRRRR   N  N N  II  N  N N  G  GGG   !            |
|           WW  WW  A    A  R   R   N   NN  II  N   NN  G    G                |
|           W    W  A    A  R    R  N    N  II  N    N   GGGG   !!!           |
|                                                                             |
|      For optimal performance we recommend to set                            |
|        NCORE= 4 - approx SQRT( number of cores)                             |
|      NCORE specifies how many cores store one orbital (NPAR=cpu/NCORE).     |
|      This setting can  greatly improve the performance of VASP for DFT.     |
|      The default,   NCORE=1            might be grossly inefficient         |
|      on modern multi-core architectures or massively parallel machines.     |
|      Do your own testing !!!!                                               |
|      Unfortunately you need to use the default for GW and RPA calculations. |
|      (for HF NCORE is supported but not extensively tested yet)             |
|                                                                             |
 ----------------------------------------------------------------------------- 

 POTCAR:    PAW_PBE C_h 06Feb2004                 
   VRHFIN =C: s2p2                                                              
   LEXCH  = PE                                                                  
   EATOM  =   147.1560 eV,   10.8157 Ry                                         
                                                                                
   TITEL  = PAW_PBE C_h 06Feb2004                                               
   LULTRA =        F    use ultrasoft PP ?                                      
   IUNSCR =        1    unscreen: 0-lin 1-nonlin 2-no                           
   RPACOR =    0.800    partial core radius                                     
   POMASS =   12.011; ZVAL   =    4.000    mass and valenz                      
   RCORE  =    1.100    outmost cutoff radius                                   
   RWIGS  =    1.630; RWIGS  =    0.863    wigner-seitz radius (au A)           
   ENMAX  =  700.000; ENMIN  =  500.000 eV                                      
   ICORE  =        2    local potential                                         
   LCOR   =        T    correct aug charges                                     
   LPAW   =        T    paw PP                                                  
   EAUG   =  946.768                                                            
   DEXC   =    0.000                                                            
   RMAX   =    1.128    core radius for proj-oper                               
   RAUG   =    1.300    factor for augmentation sphere                          
   RDEP   =    1.162    radius for radial grids                                 
   RDEPT  =    1.088    core radius for aug-charge                              
                                                                                
   Atomic configuration                                                         
    4 entries                                                                   
     n  l   j            E        occ.                                          
     1  0  0.50      -273.3789   2.0000                                         
     2  0  0.50       -13.7508   2.0000                                         
     2  1  0.50        -5.2854   2.0000                                         
     3  2  1.50        -5.4423   0.0000                                         
   Description                                                                  
     l       E           TYP  RCUT    TYP  RCUT                                 
     0    -13.7508458     23  1.100                                             
     0     -8.2022199     23  1.100                                             
     1     -5.2854383     23  1.100                                             
     1      1.1560700     23  1.100                                             
     2     -5.4423304      7  1.100                                             
  local pseudopotential read in
  partial core-charges read in
  partial kinetic energy density read in
  atomic valenz-charges read in
  non local Contribution for L=           0  read in
    real space projection operators read in
  non local Contribution for L=           0  read in
    real space projection operators read in
  non local Contribution for L=           1  read in
    real space projection operators read in
  non local Contribution for L=           1  read in
    real space projection operators read in
    PAW grid and wavefunctions read in
 
   number of l-projection  operators is LMAX  =           4
   number of lm-projection operators is LMMAX =           8
 
  PAW_PBE C_h 06Feb2004                 :
 energy of atom  1       EATOM= -147.1560
 kinetic energy error for atom=    0.0044 (will be added to EATOM!!)
 
 
 POSCAR: graphene                                
  positions in direct lattice
  velocities in cartesian coordinates
 exchange correlation table for  LEXCH =        8
   RHO(1)=    0.500       N(1)  =     2000
   RHO(2)=  100.500       N(2)  =     4000

 VTST: version 3.1, (03/28/14)

 CHAIN: initializing optimizer
 
 OPT: Using VASP Conjugate-Gradient optimizer
 CHAIN: Read ICHAIN            0
 
 POSCAR: graphene                                
  positions in direct lattice
  velocities in cartesian coordinates
 


--------------------------------------------------------------------------------------------------------


 ion  position               nearest neighbor table
   1  0.000  1.000  0.500-   2 1.42   2 1.43   2 1.43
   2  0.667  0.333  0.500-   1 1.42   1 1.43   1 1.43
 
  Warning from LATTYP: Monoclinic adjustement (A1->A3, A2->A1, A3->A2)!
  Warning from LATTYP: Got some problem with cell dimensions!
  Tried to take original basis but could not verify dimensions!
  LATTYP: Found a simple monoclinic cell.
 ALAT       =     4.2569211259
 B/A-ratio  =     7.1136844792
 C/A-ratio  =     1.5294297765
 COS(beta)  =    -0.9817092217
  
  Lattice vectors:
  
 A1 = (  -3.6919321631,  -2.1192013533,   0.0000000000)
 A2 = (   0.0000000000,   0.0000000000, -30.2823937426)
 A3 = (   6.1603459866,   2.1068592842,   0.0000000000)


Analysis of symmetry for initial positions (statically):
=====================================================================
 Subroutine PRICEL returns:
 Original cell was already a primitive cell.
 

 Routine SETGRP: Setting up the symmetry group for a 
 simple monoclinic supercell.


 Subroutine GETGRP returns: Found  4 space group operations
 (whereof  2 operations were pure point group operations)
 out of a pool of  4 trial point group operations.


The static configuration has the point symmetry C_1h.
 The point group associated with its full space group is C_2h.


Analysis of symmetry for dynamics (positions and initial velocities):
=====================================================================
 Subroutine PRICEL returns:
 Original cell was already a primitive cell.
 

 Routine SETGRP: Setting up the symmetry group for a 
 simple monoclinic supercell.


 Subroutine GETGRP returns: Found  4 space group operations
 (whereof  2 operations were pure point group operations)
 out of a pool of  4 trial point group operations.


The dynamic configuration has the point symmetry C_1h.
 The point group associated with its full space group is C_2h.


 Subroutine INISYM returns: Found  4 space group operations
 (whereof  2 operations are pure point group operations),
 and found     1 'primitive' translations

 
 
 KPOINTS: K-Mesh Generated with KP-Resolved Value 

Automatic generation of k-mesh.
Space group operators:
 irot       det(A)        alpha          n_x          n_y          n_z        tau_x        tau_y        tau_z
    1     1.000000     0.000000     1.000000     0.000000     0.000000     0.000000     0.000000     0.000000
    2    -1.000000   180.000000     0.000000     0.000000     1.000000     0.000000     0.000000     0.000000
    3    -1.000000     0.000000     1.000000     0.000000     0.000000    -0.333330    -0.666670     0.000000
    4     1.000000   180.000000     0.000000     0.000000     1.000000    -0.333330    -0.666670     0.000000
 
 Subroutine IBZKPT returns following result:
 ===========================================
 
 Found     72 irreducible k-points:
 
 Following reciprocal coordinates:
            Coordinates               Weight
  0.041667  0.041667  0.000000      2.000000
  0.125000  0.041667  0.000000      2.000000
  0.208333  0.041667  0.000000      2.000000
  0.291667  0.041667  0.000000      2.000000
  0.375000  0.041667  0.000000      2.000000
  0.458333  0.041667  0.000000      2.000000
 -0.458333  0.041667  0.000000      2.000000
 -0.375000  0.041667  0.000000      2.000000
 -0.291667  0.041667  0.000000      2.000000
 -0.208333  0.041667  0.000000      2.000000
 -0.125000  0.041667  0.000000      2.000000
 -0.041667  0.041667  0.000000      2.000000
  0.041667  0.125000  0.000000      2.000000
  0.125000  0.125000  0.000000      2.000000
  0.208333  0.125000  0.000000      2.000000
  0.291667  0.125000  0.000000      2.000000
  0.375000  0.125000  0.000000      2.000000
  0.458333  0.125000  0.000000      2.000000
 -0.458333  0.125000  0.000000      2.000000
 -0.375000  0.125000  0.000000      2.000000
 -0.291667  0.125000  0.000000      2.000000
 -0.208333  0.125000  0.000000      2.000000
 -0.125000  0.125000  0.000000      2.000000
 -0.041667  0.125000  0.000000      2.000000
  0.041667  0.208333  0.000000      2.000000
  0.125000  0.208333  0.000000      2.000000
  0.208333  0.208333  0.000000      2.000000
  0.291667  0.208333  0.000000      2.000000
  0.375000  0.208333  0.000000      2.000000
  0.458333  0.208333  0.000000      2.000000
 -0.458333  0.208333  0.000000      2.000000
 -0.375000  0.208333  0.000000      2.000000
 -0.291667  0.208333  0.000000      2.000000
 -0.208333  0.208333  0.000000      2.000000
 -0.125000  0.208333  0.000000      2.000000
 -0.041667  0.208333  0.000000      2.000000
  0.041667  0.291667  0.000000      2.000000
  0.125000  0.291667  0.000000      2.000000
  0.208333  0.291667  0.000000      2.000000
  0.291667  0.291667  0.000000      2.000000
  0.375000  0.291667  0.000000      2.000000
  0.458333  0.291667  0.000000      2.000000
 -0.458333  0.291667  0.000000      2.000000
 -0.375000  0.291667  0.000000      2.000000
 -0.291667  0.291667  0.000000      2.000000
 -0.208333  0.291667  0.000000      2.000000
 -0.125000  0.291667  0.000000      2.000000
 -0.041667  0.291667  0.000000      2.000000
  0.041667  0.375000  0.000000      2.000000
  0.125000  0.375000  0.000000      2.000000
  0.208333  0.375000  0.000000      2.000000
  0.291667  0.375000  0.000000      2.000000
  0.375000  0.375000  0.000000      2.000000
  0.458333  0.375000  0.000000      2.000000
 -0.458333  0.375000  0.000000      2.000000
 -0.375000  0.375000  0.000000      2.000000
 -0.291667  0.375000  0.000000      2.000000
 -0.208333  0.375000  0.000000      2.000000
 -0.125000  0.375000  0.000000      2.000000
 -0.041667  0.375000  0.000000      2.000000
  0.041667  0.458333  0.000000      2.000000
  0.125000  0.458333  0.000000      2.000000
  0.208333  0.458333  0.000000      2.000000
  0.291667  0.458333  0.000000      2.000000
  0.375000  0.458333  0.000000      2.000000
  0.458333  0.458333  0.000000      2.000000
 -0.458333  0.458333  0.000000      2.000000
 -0.375000  0.458333  0.000000      2.000000
 -0.291667  0.458333  0.000000      2.000000
 -0.208333  0.458333  0.000000      2.000000
 -0.125000  0.458333  0.000000      2.000000
 -0.041667  0.458333  0.000000      2.000000
 
 Following cartesian coordinates:
            Coordinates               Weight
  0.083051  0.000415  0.000000      2.000000
  0.165863 -0.047119  0.000000      2.000000
  0.248675 -0.094653  0.000000      2.000000
  0.331486 -0.142188  0.000000      2.000000
  0.414298 -0.189722  0.000000      2.000000
  0.497109 -0.237256  0.000000      2.000000
 -0.413818  0.285621  0.000000      2.000000
 -0.331007  0.238087  0.000000      2.000000
 -0.248195  0.190553  0.000000      2.000000
 -0.165383  0.143018  0.000000      2.000000
 -0.082572  0.095484  0.000000      2.000000
  0.000240  0.047950  0.000000      2.000000
  0.166342  0.048780  0.000000      2.000000
  0.249154  0.001246  0.000000      2.000000
  0.331966 -0.046289  0.000000      2.000000
  0.414777 -0.093823  0.000000      2.000000
  0.497589 -0.141357  0.000000      2.000000
  0.580401 -0.188892  0.000000      2.000000
 -0.330527  0.333986  0.000000      2.000000
 -0.247716  0.286452  0.000000      2.000000
 -0.164904  0.238918  0.000000      2.000000
 -0.082092  0.191383  0.000000      2.000000
  0.000719  0.143849  0.000000      2.000000
  0.083531  0.096314  0.000000      2.000000
  0.249634  0.097145  0.000000      2.000000
  0.332445  0.049611  0.000000      2.000000
  0.415257  0.002076  0.000000      2.000000
  0.498068 -0.045458  0.000000      2.000000
  0.580880 -0.092992  0.000000      2.000000
  0.663692 -0.140527  0.000000      2.000000
 -0.247236  0.382351  0.000000      2.000000
 -0.164424  0.334817  0.000000      2.000000
 -0.081613  0.287282  0.000000      2.000000
  0.001199  0.239748  0.000000      2.000000
  0.084010  0.192214  0.000000      2.000000
  0.166822  0.144679  0.000000      2.000000
  0.332925  0.145510  0.000000      2.000000
  0.415736  0.097975  0.000000      2.000000
  0.498548  0.050441  0.000000      2.000000
  0.581360  0.002907  0.000000      2.000000
  0.664171 -0.044628  0.000000      2.000000
  0.746983 -0.092162  0.000000      2.000000
 -0.163945  0.430716  0.000000      2.000000
 -0.081133  0.383182  0.000000      2.000000
  0.001678  0.335647  0.000000      2.000000
  0.084490  0.288113  0.000000      2.000000
  0.167301  0.240579  0.000000      2.000000
  0.250113  0.193044  0.000000      2.000000
  0.416216  0.193875  0.000000      2.000000
  0.499027  0.146340  0.000000      2.000000
  0.581839  0.098806  0.000000      2.000000
  0.664651  0.051272  0.000000      2.000000
  0.747462  0.003737  0.000000      2.000000
  0.830274 -0.043797  0.000000      2.000000
 -0.080654  0.479081  0.000000      2.000000
  0.002158  0.431546  0.000000      2.000000
  0.084969  0.384012  0.000000      2.000000
  0.167781  0.336478  0.000000      2.000000
  0.250593  0.288943  0.000000      2.000000
  0.333404  0.241409  0.000000      2.000000
  0.499507  0.242240  0.000000      2.000000
  0.582319  0.194705  0.000000      2.000000
  0.665130  0.147171  0.000000      2.000000
  0.747942  0.099637  0.000000      2.000000
  0.830753  0.052102  0.000000      2.000000
  0.913565  0.004568  0.000000      2.000000
  0.002637  0.527446  0.000000      2.000000
  0.085449  0.479911  0.000000      2.000000
  0.168260  0.432377  0.000000      2.000000
  0.251072  0.384843  0.000000      2.000000
  0.333884  0.337308  0.000000      2.000000
  0.416695  0.289774  0.000000      2.000000
 


--------------------------------------------------------------------------------------------------------




 Dimension of arrays:
   k-points           NKPTS =     72   k-points in BZ     NKDIM =     72   number of bands    NBANDS=     24
   number of dos      NEDOS =    301   number of ions     NIONS =      2
   non local maximal  LDIM  =      4   non local SUM 2l+1 LMDIM =      8
   total plane-waves  NPLWV = 169344
   max r-space proj   IRMAX =      1   max aug-charges    IRDMAX=   2710
   dimension x,y,z NGX =    24 NGY =   24 NGZ =  294
   dimension x,y,z NGXF=    36 NGYF=   32 NGZF=  420
   support grid    NGXF=    36 NGYF=   32 NGZF=  420
   ions per type =               2
   NGX,Y,Z   is equivalent  to a cutoff of  16.09, 16.23, 16.14 a.u.
   NGXF,Y,Z  is equivalent  to a cutoff of  24.14, 21.65, 23.06 a.u.

 SYSTEM =  unknown system                          
 POSCAR =  graphene                                

 Startparameter for this run:
   NWRITE =      2    write-flag & timer
   PREC   = high      normal or accurate (medium, high low for compatibility)
   ISTART =      0    job   : 0-new  1-cont  2-samecut
   ICHARG =      2    charge: 1-file 2-atom 10-const
   ISPIN  =      1    spin polarized calculation?
   LNONCOLLINEAR =      F non collinear calculations
   LSORBIT =      F    spin-orbit coupling
   INIWAV =      1    electr: 0-lowe 1-rand  2-diag
   LASPH  =      F    aspherical Exc in radial PAW
   METAGGA=      F    non-selfconsistent MetaGGA calc.

 Electronic Relaxation 1
   ENCUT  =  875.0 eV  64.31 Ry    8.02 a.u.   5.98  5.93 73.04*2*pi/ulx,y,z
   ENINI  =  875.0     initial cutoff
   ENAUG  =  946.8 eV  augmentation charge cutoff
   NELM   =     40;   NELMIN=  2; NELMDL=  0     # of ELM steps 
   EDIFF  = 0.1E-06   stopping-criterion for ELM
   LREAL  =      F    real-space projection
   NLSPLINE    = F    spline interpolate recip. space projectors
   LCOMPAT=      F    compatible to vasp.4.4
   GGA_COMPAT  = T    GGA compatible to vasp.4.4-vasp.4.6
   LMAXPAW     = -100 max onsite density
   LMAXMIX     =    2 max onsite mixed and CHGCAR
   VOSKOWN=      0    Vosko Wilk Nusair interpolation
   ROPT   =    0.00000
 Ionic relaxation
   EDIFFG = -.1E-01   stopping-criterion for IOM
   NSW    =    100    number of steps for IOM
   NBLOCK =      1;   KBLOCK =    100    inner block; outer block 
   IBRION =      2    ionic relax: 0-MD 1-quasi-New 2-CG
   NFREE  =      1    steps in history (QN), initial steepest desc. (CG)
   ISIF   =      2    stress and relaxation
   IWAVPR =     11    prediction:  0-non 1-charg 2-wave 3-comb
   ISYM   =      2    0-nonsym 1-usesym 2-fastsym
   LCORR  =      T    Harris-Foulkes like correction to forces

   POTIM  = 0.5000    time-step for ionic-motion
   TEIN   =    0.0    initial temperature
   TEBEG  =    0.0;   TEEND  =   0.0 temperature during run
   SMASS  =  -3.00    Nose mass-parameter (am)
   estimated Nose-frequenzy (Omega)   =  0.10E-29 period in steps =****** mass=  -0.140E-27a.u.
   SCALEE = 1.0000    scale energy and forces
   NPACO  =    256;   APACO  = 16.0  distance and # of slots for P.C.
   PSTRESS=    0.0 pullay stress

  Mass of Ions in am
   POMASS =  12.01
  Ionic Valenz
   ZVAL   =   4.00
  Atomic Wigner-Seitz radii
   RWIGS  =  -1.00
  virtual crystal weights 
   VCA    =   1.00
   NELECT =       8.0000    total number of electrons
   NUPDOWN=      -1.0000    fix difference up-down

 DOS related values:
   EMIN   =  10.00;   EMAX   =-10.00  energy-range for DOS
   EFERMI =   0.00
   ISMEAR =     0;   SIGMA  =   0.05  broadening in eV -4-tet -1-fermi 0-gaus

 Electronic relaxation 2 (details)
   IALGO  =     48    algorithm
   LDIAG  =      T    sub-space diagonalisation (order eigenvalues)
   LSUBROT=      F    optimize rotation matrix (better conditioning)
   TURBO    =      0    0=normal 1=particle mesh
   IRESTART =      0    0=no restart 2=restart with 2 vectors
   NREBOOT  =      0    no. of reboots
   NMIN     =      0    reboot dimension
   EREF     =   0.00    reference energy to select bands
   IMIX   =      4    mixing-type and parameters
     AMIX     =   0.40;   BMIX     =  1.00
     AMIX_MAG =   1.60;   BMIX_MAG =  1.00
     AMIN     =   0.10
     WC   =   100.;   INIMIX=   1;  MIXPRE=   1;  MAXMIX= -45

 Intra band minimization:
   WEIMIN = 0.0010     energy-eigenvalue tresh-hold
   EBREAK =  0.10E-08  absolut break condition
   DEPER  =   0.30     relativ break condition  

   TIME   =   0.40     timestep for ELM

  volume/ion in A,a.u.               =      79.89       539.15
  Fermi-wavevector in a.u.,A,eV,Ry     =   0.603378  1.140218  4.953398  0.364064
  Thomas-Fermi vector in A             =   1.656336
 
 Write flags
   LWAVE        =      F    write WAVECAR
   LDOWNSAMPLE  =      F    k-point downsampling of WAVECAR
   LCHARG       =      F    write CHGCAR
   LVTOT        =      F    write LOCPOT, total local potential
   LVHAR        =      F    write LOCPOT, Hartree potential only
   LELF         =      F    write electronic localiz. function (ELF)
   LORBIT       =      0    0 simple, 1 ext, 2 COOP (PROOUT), +10 PAW based schemes


 Dipole corrections
   LMONO  =      F    monopole corrections only (constant potential shift)
   LDIPOL =      F    correct potential (dipole corrections)
   IDIPOL =      0    1-x, 2-y, 3-z, 4-all directions 
   EPSILON=  1.0000000 bulk dielectric constant

 Exchange correlation treatment:
   GGA     =    --    GGA type
   LEXCH   =     8    internal setting for exchange type
   VOSKOWN=      0    Vosko Wilk Nusair interpolation
   LHFCALC =     F    Hartree Fock is set to
   LHFONE  =     F    Hartree Fock one center treatment
   AEXX    =    0.0000 exact exchange contribution

 Linear response parameters
   LEPSILON=     F    determine dielectric tensor
   LRPA    =     F    only Hartree local field effects (RPA)
   LNABLA  =     F    use nabla operator in PAW spheres
   LVEL    =     F    velocity operator in full k-point grid
   LINTERFAST=   F  fast interpolation
   KINTER  =     0    interpolate to denser k-point grid
   CSHIFT  =0.1000    complex shift for real part using Kramers Kronig
   OMEGAMAX=  -1.0    maximum frequency
   DEG_THRESHOLD= 0.2000000E-02 threshold for treating states as degnerate
   RTIME   =   -0.100 relaxation time in fs
  (WPLASMAI=    0.000 imaginary part of plasma frequency in eV, 0.658/RTIME)
   DFIELD  = 0.0000000 0.0000000 0.0000000 field for delta impulse in time
 
 Orbital magnetization related:
   ORBITALMAG=     F  switch on orbital magnetization
   LCHIMAG   =     F  perturbation theory with respect to B field
   DQ        =  0.001000  dq finite difference perturbation B field
   LLRAUG    =     F  two centre corrections for induced B field



--------------------------------------------------------------------------------------------------------


 conjugate gradient relaxation of ions
 charge density and potential will be updated during run
 non-spin polarized calculation
 RMM-DIIS sequential band-by-band
 perform sub-space diagonalisation
    before iterative eigenvector-optimisation
 modified Broyden-mixing scheme, WC =      100.0
 initial mixing is a Kerker type mixing with AMIX =  0.4000 and BMIX =      1.0000
 Hartree-type preconditioning will be used
 using additional bands           20
 reciprocal scheme for non local part
 use partial core corrections
 calculate Harris-corrections to forces 
   (improved forces if not selfconsistent)
 use gradient corrections 
 use of overlap-Matrix (Vanderbilt PP)
 Gauss-broadening in eV      SIGMA  =   0.05


--------------------------------------------------------------------------------------------------------


  energy-cutoff  :      875.00
  volume of cell :      159.79
      direct lattice vectors                 reciprocal lattice vectors
     1.244895484 -2.143885492  0.000000000     0.403959083 -0.231874866  0.000000000
     1.223518339  2.131543422  0.000000000     0.406298088  0.235926152  0.000000000
     0.000000000  0.000000000 30.282393743     0.000000000  0.000000000  0.033022489

  length of vectors
     2.479114714  2.457737677 30.282393743     0.465777731  0.469828996  0.033022489


 
 k-points in units of 2pi/SCALE and weight: K-Mesh Generated with KP-Resolved Value 
   0.08305136  0.00041526  0.00000000       0.014
   0.16586297 -0.04711909  0.00000000       0.014
   0.24867458 -0.09465344  0.00000000       0.014
   0.33148620 -0.14218779  0.00000000       0.014
   0.41429781 -0.18972213  0.00000000       0.014
   0.49710942 -0.23725648  0.00000000       0.014
  -0.41381831  0.28562134  0.00000000       0.014
  -0.33100670  0.23808699  0.00000000       0.014
  -0.24819509  0.19055265  0.00000000       0.014
  -0.16538348  0.14301830  0.00000000       0.014
  -0.08257186  0.09548395  0.00000000       0.014
   0.00023975  0.04794960  0.00000000       0.014
   0.16634247  0.04878012  0.00000000       0.014
   0.24915408  0.00124577  0.00000000       0.014
   0.33196569 -0.04628858  0.00000000       0.014
   0.41477730 -0.09382292  0.00000000       0.014
   0.49758892 -0.14135727  0.00000000       0.014
   0.58040053 -0.18889162  0.00000000       0.014
  -0.33052720  0.33398620  0.00000000       0.014
  -0.24771559  0.28645186  0.00000000       0.014
  -0.16490398  0.23891751  0.00000000       0.014
  -0.08209237  0.19138316  0.00000000       0.014
   0.00071924  0.14384881  0.00000000       0.014
   0.08353086  0.09631447  0.00000000       0.014
   0.24963358  0.09714498  0.00000000       0.014
   0.33244519  0.04961063  0.00000000       0.014
   0.41525680  0.00207628  0.00000000       0.014
   0.49806841 -0.04545806  0.00000000       0.014
   0.58088002 -0.09299241  0.00000000       0.014
   0.66369164 -0.14052676  0.00000000       0.014
  -0.24723610  0.38235106  0.00000000       0.014
  -0.16442448  0.33481672  0.00000000       0.014
  -0.08161287  0.28728237  0.00000000       0.014
   0.00119874  0.23974802  0.00000000       0.014
   0.08401035  0.19221367  0.00000000       0.014
   0.16682196  0.14467933  0.00000000       0.014
   0.33292468  0.14550984  0.00000000       0.014
   0.41573630  0.09797549  0.00000000       0.014
   0.49854791  0.05044115  0.00000000       0.014
   0.58135952  0.00290680  0.00000000       0.014
   0.66417113 -0.04462755  0.00000000       0.014
   0.74698274 -0.09216190  0.00000000       0.014
  -0.16394499  0.43071593  0.00000000       0.014
  -0.08113338  0.38318158  0.00000000       0.014
   0.00167824  0.33564723  0.00000000       0.014
   0.08448985  0.28811288  0.00000000       0.014
   0.16730146  0.24057854  0.00000000       0.014
   0.25011307  0.19304419  0.00000000       0.014
   0.41621579  0.19387470  0.00000000       0.014
   0.49902740  0.14634035  0.00000000       0.014
   0.58183902  0.09880601  0.00000000       0.014
   0.66465063  0.05127166  0.00000000       0.014
   0.74746224  0.00373731  0.00000000       0.014
   0.83027385 -0.04379704  0.00000000       0.014
  -0.08065388  0.47908079  0.00000000       0.014
   0.00215773  0.43154644  0.00000000       0.014
   0.08496934  0.38401209  0.00000000       0.014
   0.16778096  0.33647774  0.00000000       0.014
   0.25059257  0.28894340  0.00000000       0.014
   0.33340418  0.24140905  0.00000000       0.014
   0.49950690  0.24223956  0.00000000       0.014
   0.58231851  0.19470522  0.00000000       0.014
   0.66513012  0.14717087  0.00000000       0.014
   0.74794174  0.09963652  0.00000000       0.014
   0.83075335  0.05210217  0.00000000       0.014
   0.91356496  0.00456782  0.00000000       0.014
   0.00263723  0.52744565  0.00000000       0.014
   0.08544884  0.47991130  0.00000000       0.014
   0.16826045  0.43237695  0.00000000       0.014
   0.25107206  0.38484261  0.00000000       0.014
   0.33388368  0.33730826  0.00000000       0.014
   0.41669529  0.28977391  0.00000000       0.014
 
 k-points in reciprocal lattice and weights: K-Mesh Generated with KP-Resolved Value 
   0.04166667  0.04166667  0.00000000       0.014
   0.12500000  0.04166667  0.00000000       0.014
   0.20833333  0.04166667  0.00000000       0.014
   0.29166667  0.04166667  0.00000000       0.014
   0.37500000  0.04166667  0.00000000       0.014
   0.45833333  0.04166667  0.00000000       0.014
  -0.45833333  0.04166667  0.00000000       0.014
  -0.37500000  0.04166667  0.00000000       0.014
  -0.29166667  0.04166667  0.00000000       0.014
  -0.20833333  0.04166667  0.00000000       0.014
  -0.12500000  0.04166667  0.00000000       0.014
  -0.04166667  0.04166667  0.00000000       0.014
   0.04166667  0.12500000  0.00000000       0.014
   0.12500000  0.12500000  0.00000000       0.014
   0.20833333  0.12500000  0.00000000       0.014
   0.29166667  0.12500000  0.00000000       0.014
   0.37500000  0.12500000  0.00000000       0.014
   0.45833333  0.12500000  0.00000000       0.014
  -0.45833333  0.12500000  0.00000000       0.014
  -0.37500000  0.12500000  0.00000000       0.014
  -0.29166667  0.12500000  0.00000000       0.014
  -0.20833333  0.12500000  0.00000000       0.014
  -0.12500000  0.12500000  0.00000000       0.014
  -0.04166667  0.12500000  0.00000000       0.014
   0.04166667  0.20833333  0.00000000       0.014
   0.12500000  0.20833333  0.00000000       0.014
   0.20833333  0.20833333  0.00000000       0.014
   0.29166667  0.20833333  0.00000000       0.014
   0.37500000  0.20833333  0.00000000       0.014
   0.45833333  0.20833333  0.00000000       0.014
  -0.45833333  0.20833333  0.00000000       0.014
  -0.37500000  0.20833333  0.00000000       0.014
  -0.29166667  0.20833333  0.00000000       0.014
  -0.20833333  0.20833333  0.00000000       0.014
  -0.12500000  0.20833333  0.00000000       0.014
  -0.04166667  0.20833333  0.00000000       0.014
   0.04166667  0.29166667  0.00000000       0.014
   0.12500000  0.29166667  0.00000000       0.014
   0.20833333  0.29166667  0.00000000       0.014
   0.29166667  0.29166667  0.00000000       0.014
   0.37500000  0.29166667  0.00000000       0.014
   0.45833333  0.29166667  0.00000000       0.014
  -0.45833333  0.29166667  0.00000000       0.014
  -0.37500000  0.29166667  0.00000000       0.014
  -0.29166667  0.29166667  0.00000000       0.014
  -0.20833333  0.29166667  0.00000000       0.014
  -0.12500000  0.29166667  0.00000000       0.014
  -0.04166667  0.29166667  0.00000000       0.014
   0.04166667  0.37500000  0.00000000       0.014
   0.12500000  0.37500000  0.00000000       0.014
   0.20833333  0.37500000  0.00000000       0.014
   0.29166667  0.37500000  0.00000000       0.014
   0.37500000  0.37500000  0.00000000       0.014
   0.45833333  0.37500000  0.00000000       0.014
  -0.45833333  0.37500000  0.00000000       0.014
  -0.37500000  0.37500000  0.00000000       0.014
  -0.29166667  0.37500000  0.00000000       0.014
  -0.20833333  0.37500000  0.00000000       0.014
  -0.12500000  0.37500000  0.00000000       0.014
  -0.04166667  0.37500000  0.00000000       0.014
   0.04166667  0.45833333  0.00000000       0.014
   0.12500000  0.45833333  0.00000000       0.014
   0.20833333  0.45833333  0.00000000       0.014
   0.29166667  0.45833333  0.00000000       0.014
   0.37500000  0.45833333  0.00000000       0.014
   0.45833333  0.45833333  0.00000000       0.014
  -0.45833333  0.45833333  0.00000000       0.014
  -0.37500000  0.45833333  0.00000000       0.014
  -0.29166667  0.45833333  0.00000000       0.014
  -0.20833333  0.45833333  0.00000000       0.014
  -0.12500000  0.45833333  0.00000000       0.014
  -0.04166667  0.45833333  0.00000000       0.014
 
 position of ions in fractional coordinates (direct lattice) 
   0.00000262  0.99999738  0.50000000
   0.66666738  0.33333262  0.50000000
 
 position of ions in cartesian coordinates  (Angst):
   1.22351840  2.13153221 15.14119687
   1.23776978 -0.71874556 15.14119687
 


--------------------------------------------------------------------------------------------------------


 k-point  1 :   0.0417 0.0417 0.0000  plane waves:    9289
 k-point  2 :   0.1250 0.0417 0.0000  plane waves:    9313
 k-point  3 :   0.2083 0.0417 0.0000  plane waves:    9349
 k-point  4 :   0.2917 0.0417 0.0000  plane waves:    9391
 k-point  5 :   0.3750 0.0417 0.0000  plane waves:    9389
 k-point  6 :   0.4583 0.0417 0.0000  plane waves:    9422
 k-point  7 :  -0.4583 0.0417 0.0000  plane waves:    9414
 k-point  8 :  -0.3750 0.0417 0.0000  plane waves:    9386
 k-point  9 :  -0.2917 0.0417 0.0000  plane waves:    9363
 k-point 10 :  -0.2083 0.0417 0.0000  plane waves:    9333
 k-point 11 :  -0.1250 0.0417 0.0000  plane waves:    9288
 k-point 12 :  -0.0417 0.0417 0.0000  plane waves:    9280
 k-point 13 :   0.0417 0.1250 0.0000  plane waves:    9307
 k-point 14 :   0.1250 0.1250 0.0000  plane waves:    9355
 k-point 15 :   0.2083 0.1250 0.0000  plane waves:    9380
 k-point 16 :   0.2917 0.1250 0.0000  plane waves:    9415
 k-point 17 :   0.3750 0.1250 0.0000  plane waves:    9435
 k-point 18 :   0.4583 0.1250 0.0000  plane waves:    9430
 k-point 19 :  -0.4583 0.1250 0.0000  plane waves:    9416
 k-point 20 :  -0.3750 0.1250 0.0000  plane waves:    9393
 k-point 21 :  -0.2917 0.1250 0.0000  plane waves:    9361
 k-point 22 :  -0.2083 0.1250 0.0000  plane waves:    9337
 k-point 23 :  -0.1250 0.1250 0.0000  plane waves:    9279
 k-point 24 :  -0.0417 0.1250 0.0000  plane waves:    9288
 k-point 25 :   0.0417 0.2083 0.0000  plane waves:    9340
 k-point 26 :   0.1250 0.2083 0.0000  plane waves:    9390
 k-point 27 :   0.2083 0.2083 0.0000  plane waves:    9412
 k-point 28 :   0.2917 0.2083 0.0000  plane waves:    9444
 k-point 29 :   0.3750 0.2083 0.0000  plane waves:    9458
 k-point 30 :   0.4583 0.2083 0.0000  plane waves:    9456
 k-point 31 :  -0.4583 0.2083 0.0000  plane waves:    9408
 k-point 32 :  -0.3750 0.2083 0.0000  plane waves:    9404
 k-point 33 :  -0.2917 0.2083 0.0000  plane waves:    9349
 k-point 34 :  -0.2083 0.2083 0.0000  plane waves:    9335
 k-point 35 :  -0.1250 0.2083 0.0000  plane waves:    9319
 k-point 36 :  -0.0417 0.2083 0.0000  plane waves:    9326
 k-point 37 :   0.0417 0.2917 0.0000  plane waves:    9372
 k-point 38 :   0.1250 0.2917 0.0000  plane waves:    9421
 k-point 39 :   0.2083 0.2917 0.0000  plane waves:    9423
 k-point 40 :   0.2917 0.2917 0.0000  plane waves:    9451
 k-point 41 :   0.3750 0.2917 0.0000  plane waves:    9468
 k-point 42 :   0.4583 0.2917 0.0000  plane waves:    9446
 k-point 43 :  -0.4583 0.2917 0.0000  plane waves:    9417
 k-point 44 :  -0.3750 0.2917 0.0000  plane waves:    9384
 k-point 45 :  -0.2917 0.2917 0.0000  plane waves:    9363
 k-point 46 :  -0.2083 0.2917 0.0000  plane waves:    9368
 k-point 47 :  -0.1250 0.2917 0.0000  plane waves:    9376
 k-point 48 :  -0.0417 0.2917 0.0000  plane waves:    9364
 k-point 49 :   0.0417 0.3750 0.0000  plane waves:    9369
 k-point 50 :   0.1250 0.3750 0.0000  plane waves:    9426
 k-point 51 :   0.2083 0.3750 0.0000  plane waves:    9458
 k-point 52 :   0.2917 0.3750 0.0000  plane waves:    9460
 k-point 53 :   0.3750 0.3750 0.0000  plane waves:    9476
 k-point 54 :   0.4583 0.3750 0.0000  plane waves:    9444
 k-point 55 :  -0.4583 0.3750 0.0000  plane waves:    9399
 k-point 56 :  -0.3750 0.3750 0.0000  plane waves:    9364
 k-point 57 :  -0.2917 0.3750 0.0000  plane waves:    9398
 k-point 58 :  -0.2083 0.3750 0.0000  plane waves:    9407
 k-point 59 :  -0.1250 0.3750 0.0000  plane waves:    9415
 k-point 60 :  -0.0417 0.3750 0.0000  plane waves:    9382
 k-point 61 :   0.0417 0.4583 0.0000  plane waves:    9386
 k-point 62 :   0.1250 0.4583 0.0000  plane waves:    9435
 k-point 63 :   0.2083 0.4583 0.0000  plane waves:    9444
 k-point 64 :   0.2917 0.4583 0.0000  plane waves:    9442
 k-point 65 :   0.3750 0.4583 0.0000  plane waves:    9459
 k-point 66 :   0.4583 0.4583 0.0000  plane waves:    9416
 k-point 67 :  -0.4583 0.4583 0.0000  plane waves:    9400
 k-point 68 :  -0.3750 0.4583 0.0000  plane waves:    9407
 k-point 69 :  -0.2917 0.4583 0.0000  plane waves:    9425
 k-point 70 :  -0.2083 0.4583 0.0000  plane waves:    9417
 k-point 71 :  -0.1250 0.4583 0.0000  plane waves:    9431
 k-point 72 :  -0.0417 0.4583 0.0000  plane waves:    9372

 maximum and minimum number of plane-waves per node :      9476     9279

 maximum number of plane-waves:      9476
 maximum index in each direction: 
   IXMAX=    6   IYMAX=    5   IZMAX=   73
   IXMIN=   -6   IYMIN=   -6   IZMIN=  -73


 serial   3D FFT for wavefunctions
 parallel 3D FFT for charge:
    minimum data exchange during FFTs selected (reduces bandwidth)


 total amount of memory used by VASP MPI-rank0    94597. kBytes
=======================================================================

   base      :      30000. kBytes
   nonl-proj :      43987. kBytes
   fftplans  :       1579. kBytes
   grid      :       8077. kBytes
   one-center:          6. kBytes
   wavefun   :      10948. kBytes
 
     INWAV:  cpu time    0.0000: real time    0.0000
 Broyden mixing: mesh for mixing (old mesh)
   NGX = 11   NGY = 11   NGZ =147
  (NGX  = 36   NGY  = 32   NGZ  =420)
  gives a total of  17787 points

 initial charge density was supplied:
 charge density of overlapping atoms calculated
 number of electron       8.0000000 magnetization 
 keeping initial charge density in first step


--------------------------------------------------------------------------------------------------------


 Maximum index for augmentation-charges          185 (set IRDMAX)


--------------------------------------------------------------------------------------------------------


 First call to EWALD:  gamma=   0.327
 Maximum number of real-space cells 6x 6x 1
 Maximum number of reciprocal cells 2x 2x13

    FEWALD:  cpu time    0.0020: real time    0.0051


--------------------------------------- Iteration      1(   1)  ---------------------------------------


    POTLOK:  cpu time    0.0340: real time    0.0625
    SETDIJ:  cpu time    0.0130: real time    0.0236
    EDDIAG:  cpu time    1.0818: real time    1.1695
  RMM-DIIS:  cpu time    2.0637: real time    2.0906
    ORTHCH:  cpu time    0.0520: real time    0.0521
       DOS:  cpu time    0.0030: real time    0.0159
    --------------------------------------------
      LOOP:  cpu time    3.2485: real time    3.4157

 eigenvalue-minimisations  :  1728
 total energy-change (2. order) : 0.1001083E+03  (-0.1519446E+03)
 number of electron       8.0000000 magnetization 
 augmentation part        8.0000000 magnetization 

 Free energy of the ion-electron system (eV)
  ---------------------------------------------------
  alpha Z        PSCENC =         1.37232795
  Ewald energy   TEWEN  =      2232.06528869
  -Hartree energ DENC   =     -2438.28345917
  -exchange      EXHF   =         0.00000000
  -V(xc)+E(xc)   XCENC  =        14.48597431
  PAW double counting   =       228.69403340     -218.18290438
  entropy T*S    EENTRO =        -0.00059141
  eigenvalues    EBANDS =       -14.34558969
  atomic energy  EATOM  =       294.30319316
  Solvation  Ediel_sol  =         0.00000000
  ---------------------------------------------------
  free energy    TOTEN  =       100.10827287 eV

  energy without entropy =      100.10886428  energy(sigma->0) =      100.10856857


--------------------------------------------------------------------------------------------------------




--------------------------------------- Iteration      1(   2)  ---------------------------------------


    EDDIAG:  cpu time    1.0628: real time    1.0802
  RMM-DIIS:  cpu time    2.0627: real time    2.0679
    ORTHCH:  cpu time    0.0520: real time    0.0523
       DOS:  cpu time    0.0010: real time    0.0008
    --------------------------------------------
      LOOP:  cpu time    3.1775: real time    3.1998

 eigenvalue-minimisations  :  1728
 total energy-change (2. order) :-0.5094044E+02  (-0.2929281E+02)
 number of electron       8.0000000 magnetization 
 augmentation part        8.0000000 magnetization 

 Free energy of the ion-electron system (eV)
  ---------------------------------------------------
  alpha Z        PSCENC =         1.37232795
  Ewald energy   TEWEN  =      2232.06528869
  -Hartree energ DENC   =     -2438.28345917
  -exchange      EXHF   =         0.00000000
  -V(xc)+E(xc)   XCENC  =        14.48597431
  PAW double counting   =       228.69403340     -218.18290438
  entropy T*S    EENTRO =        -0.00207211
  eigenvalues    EBANDS =       -65.28454570
  atomic energy  EATOM  =       294.30319316
  Solvation  Ediel_sol  =         0.00000000
  ---------------------------------------------------
  free energy    TOTEN  =        49.16783615 eV

  energy without entropy =       49.16990826  energy(sigma->0) =       49.16887221


--------------------------------------------------------------------------------------------------------




--------------------------------------- Iteration      1(   3)  ---------------------------------------


    EDDIAG:  cpu time    1.0598: real time    1.0749
  RMM-DIIS:  cpu time    2.0337: real time    2.0387
    ORTHCH:  cpu time    0.0520: real time    0.0521
       DOS:  cpu time    0.0000: real time    0.0008
    --------------------------------------------
      LOOP:  cpu time    3.1465: real time    3.1665

 eigenvalue-minimisations  :  1728
 total energy-change (2. order) :-0.3981808E+02  (-0.2091687E+02)
 number of electron       8.0000000 magnetization 
 augmentation part        8.0000000 magnetization 

 Free energy of the ion-electron system (eV)
  ---------------------------------------------------
  alpha Z        PSCENC =         1.37232795
  Ewald energy   TEWEN  =      2232.06528869
  -Hartree energ DENC   =     -2438.28345917
  -exchange      EXHF   =         0.00000000
  -V(xc)+E(xc)   XCENC  =        14.48597431
  PAW double counting   =       228.69403340     -218.18290438
  entropy T*S    EENTRO =        -0.00114038
  eigenvalues    EBANDS =      -105.10355658
  atomic energy  EATOM  =       294.30319316
  Solvation  Ediel_sol  =         0.00000000
  ---------------------------------------------------
  free energy    TOTEN  =         9.34975700 eV

  energy without entropy =        9.35089738  energy(sigma->0) =        9.35032719


--------------------------------------------------------------------------------------------------------




--------------------------------------- Iteration      1(   4)  ---------------------------------------


    EDDIAG:  cpu time    1.0568: real time    1.0695
  RMM-DIIS:  cpu time    2.0567: real time    2.0616
    ORTHCH:  cpu time    0.0520: real time    0.0521
       DOS:  cpu time    0.0000: real time    0.0008
    --------------------------------------------
      LOOP:  cpu time    3.1655: real time    3.1840

 eigenvalue-minimisations  :  1728
 total energy-change (2. order) :-0.2319530E+02  (-0.1309398E+02)
 number of electron       8.0000000 magnetization 
 augmentation part        8.0000000 magnetization 

 Free energy of the ion-electron system (eV)
  ---------------------------------------------------
  alpha Z        PSCENC =         1.37232795
  Ewald energy   TEWEN  =      2232.06528869
  -Hartree energ DENC   =     -2438.28345917
  -exchange      EXHF   =         0.00000000
  -V(xc)+E(xc)   XCENC  =        14.48597431
  PAW double counting   =       228.69403340     -218.18290438
  entropy T*S    EENTRO =        -0.00013201
  eigenvalues    EBANDS =      -128.29986042
  atomic energy  EATOM  =       294.30319316
  Solvation  Ediel_sol  =         0.00000000
  ---------------------------------------------------
  free energy    TOTEN  =       -13.84553847 eV

  energy without entropy =      -13.84540646  energy(sigma->0) =      -13.84547247


--------------------------------------------------------------------------------------------------------




--------------------------------------- Iteration      1(   5)  ---------------------------------------


    EDDIAG:  cpu time    1.0588: real time    1.0743
  RMM-DIIS:  cpu time    2.0617: real time    2.0670
    ORTHCH:  cpu time    0.0520: real time    0.0521
       DOS:  cpu time    0.0000: real time    0.0006
    --------------------------------------------
      LOOP:  cpu time    3.1715: real time    3.1939

 eigenvalue-minimisations  :  1728
 total energy-change (2. order) :-0.4605908E+01  (-0.3519515E+01)
 number of electron       8.0000000 magnetization 
 augmentation part        8.0000000 magnetization 

 Free energy of the ion-electron system (eV)
  ---------------------------------------------------
  alpha Z        PSCENC =         1.37232795
  Ewald energy   TEWEN  =      2232.06528869
  -Hartree energ DENC   =     -2438.28345917
  -exchange      EXHF   =         0.00000000
  -V(xc)+E(xc)   XCENC  =        14.48597431
  PAW double counting   =       228.69403340     -218.18290438
  entropy T*S    EENTRO =        -0.00000000
  eigenvalues    EBANDS =      -132.90590027
  atomic energy  EATOM  =       294.30319316
  Solvation  Ediel_sol  =         0.00000000
  ---------------------------------------------------
  free energy    TOTEN  =       -18.45144631 eV

  energy without entropy =      -18.45144631  energy(sigma->0) =      -18.45144631


--------------------------------------------------------------------------------------------------------




--------------------------------------- Iteration      1(   6)  ---------------------------------------


    EDDIAG:  cpu time    1.0618: real time    1.0803
  RMM-DIIS:  cpu time    2.0677: real time    2.0729
    ORTHCH:  cpu time    0.0520: real time    0.0522
       DOS:  cpu time    0.0000: real time    0.0006
    --------------------------------------------
      LOOP:  cpu time    3.1815: real time    3.2060

 eigenvalue-minimisations  :  1728
 total energy-change (2. order) :-0.9658067E+00  (-0.8024362E+00)
 number of electron       8.0000000 magnetization 
 augmentation part        8.0000000 magnetization 

 Free energy of the ion-electron system (eV)
  ---------------------------------------------------
  alpha Z        PSCENC =         1.37232795
  Ewald energy   TEWEN  =      2232.06528869
  -Hartree energ DENC   =     -2438.28345917
  -exchange      EXHF   =         0.00000000
  -V(xc)+E(xc)   XCENC  =        14.48597431
  PAW double counting   =       228.69403340     -218.18290438
  entropy T*S    EENTRO =        -0.00000000
  eigenvalues    EBANDS =      -133.87170695
  atomic energy  EATOM  =       294.30319316
  Solvation  Ediel_sol  =         0.00000000
  ---------------------------------------------------
  free energy    TOTEN  =       -19.41725299 eV

  energy without entropy =      -19.41725299  energy(sigma->0) =      -19.41725299


--------------------------------------------------------------------------------------------------------




--------------------------------------- Iteration      1(   7)  ---------------------------------------


    EDDIAG:  cpu time    1.0598: real time    1.0742
  RMM-DIIS:  cpu time    2.0527: real time    2.0584
    ORTHCH:  cpu time    0.0520: real time    0.0525
       DOS:  cpu time    0.0010: real time    0.0006
    --------------------------------------------
      LOOP:  cpu time    3.1655: real time    3.1857

 eigenvalue-minimisations  :  1728
 total energy-change (2. order) :-0.2222470E+00  (-0.1861819E+00)
 number of electron       8.0000000 magnetization 
 augmentation part        8.0000000 magnetization 

 Free energy of the ion-electron system (eV)
  ---------------------------------------------------
  alpha Z        PSCENC =         1.37232795
  Ewald energy   TEWEN  =      2232.06528869
  -Hartree energ DENC   =     -2438.28345917
  -exchange      EXHF   =         0.00000000
  -V(xc)+E(xc)   XCENC  =        14.48597431
  PAW double counting   =       228.69403340     -218.18290438
  entropy T*S    EENTRO =        -0.00000000
  eigenvalues    EBANDS =      -134.09395393
  atomic energy  EATOM  =       294.30319316
  Solvation  Ediel_sol  =         0.00000000
  ---------------------------------------------------
  free energy    TOTEN  =       -19.63949997 eV

  energy without entropy =      -19.63949997  energy(sigma->0) =      -19.63949997


--------------------------------------------------------------------------------------------------------




--------------------------------------- Iteration      1(   8)  ---------------------------------------


    EDDIAG:  cpu time    1.0568: real time    1.0703
  RMM-DIIS:  cpu time    2.0567: real time    2.0621
    ORTHCH:  cpu time    0.0520: real time    0.0521
       DOS:  cpu time    0.0010: real time    0.0006
    --------------------------------------------
      LOOP:  cpu time    3.1665: real time    3.1851

 eigenvalue-minimisations  :  1728
 total energy-change (2. order) :-0.5926381E-01  (-0.4908061E-01)
 number of electron       8.0000000 magnetization 
 augmentation part        8.0000000 magnetization 

 Free energy of the ion-electron system (eV)
  ---------------------------------------------------
  alpha Z        PSCENC =         1.37232795
  Ewald energy   TEWEN  =      2232.06528869
  -Hartree energ DENC   =     -2438.28345917
  -exchange      EXHF   =         0.00000000
  -V(xc)+E(xc)   XCENC  =        14.48597431
  PAW double counting   =       228.69403340     -218.18290438
  entropy T*S    EENTRO =        -0.00000000
  eigenvalues    EBANDS =      -134.15321774
  atomic energy  EATOM  =       294.30319316
  Solvation  Ediel_sol  =         0.00000000
  ---------------------------------------------------
  free energy    TOTEN  =       -19.69876378 eV

  energy without entropy =      -19.69876378  energy(sigma->0) =      -19.69876378


--------------------------------------------------------------------------------------------------------




--------------------------------------- Iteration      1(   9)  ---------------------------------------


    EDDIAG:  cpu time    1.0578: real time    1.0734
  RMM-DIIS:  cpu time    3.9764: real time    4.0691
    ORTHCH:  cpu time    0.0520: real time    0.0521
       DOS:  cpu time    0.0000: real time    0.0006
    --------------------------------------------
      LOOP:  cpu time    5.0862: real time    5.1952

 eigenvalue-minimisations  :  3475
 total energy-change (2. order) :-0.2259441E-01  (-0.1972289E-01)
 number of electron       8.0000000 magnetization 
 augmentation part        8.0000000 magnetization 

 Free energy of the ion-electron system (eV)
  ---------------------------------------------------
  alpha Z        PSCENC =         1.37232795
  Ewald energy   TEWEN  =      2232.06528869
  -Hartree energ DENC   =     -2438.28345917
  -exchange      EXHF   =         0.00000000
  -V(xc)+E(xc)   XCENC  =        14.48597431
  PAW double counting   =       228.69403340     -218.18290438
  entropy T*S    EENTRO =        -0.00000000
  eigenvalues    EBANDS =      -134.17581215
  atomic energy  EATOM  =       294.30319316
  Solvation  Ediel_sol  =         0.00000000
  ---------------------------------------------------
  free energy    TOTEN  =       -19.72135819 eV

  energy without entropy =      -19.72135819  energy(sigma->0) =      -19.72135819


--------------------------------------------------------------------------------------------------------




--------------------------------------- Iteration      1(  10)  ---------------------------------------


    EDDIAG:  cpu time    1.0588: real time    1.0731
  RMM-DIIS:  cpu time    4.4413: real time    4.4519
    ORTHCH:  cpu time    0.0510: real time    0.0521
       DOS:  cpu time    0.0010: real time    0.0006
    --------------------------------------------
      LOOP:  cpu time    5.5522: real time    5.5776

 eigenvalue-minimisations  :  3549
 total energy-change (2. order) :-0.3975078E-02  (-0.3378757E-02)
 number of electron       8.0000000 magnetization 
 augmentation part        8.0000000 magnetization 

 Free energy of the ion-electron system (eV)
  ---------------------------------------------------
  alpha Z        PSCENC =         1.37232795
  Ewald energy   TEWEN  =      2232.06528869
  -Hartree energ DENC   =     -2438.28345917
  -exchange      EXHF   =         0.00000000
  -V(xc)+E(xc)   XCENC  =        14.48597431
  PAW double counting   =       228.69403340     -218.18290438
  entropy T*S    EENTRO =        -0.00000000
  eigenvalues    EBANDS =      -134.17978723
  atomic energy  EATOM  =       294.30319316
  Solvation  Ediel_sol  =         0.00000000
  ---------------------------------------------------
  free energy    TOTEN  =       -19.72533327 eV

  energy without entropy =      -19.72533327  energy(sigma->0) =      -19.72533327


--------------------------------------------------------------------------------------------------------




--------------------------------------- Iteration      1(  11)  ---------------------------------------


    EDDIAG:  cpu time    1.0598: real time    1.0740
  RMM-DIIS:  cpu time    3.8724: real time    3.8837
    ORTHCH:  cpu time    0.0520: real time    0.0522
       DOS:  cpu time    0.0000: real time    0.0006
    --------------------------------------------
      LOOP:  cpu time    4.9842: real time    5.0105

 eigenvalue-minimisations  :  3481
 total energy-change (2. order) :-0.1551594E-03  (-0.1191574E-03)
 number of electron       8.0000000 magnetization 
 augmentation part        8.0000000 magnetization 

 Free energy of the ion-electron system (eV)
  ---------------------------------------------------
  alpha Z        PSCENC =         1.37232795
  Ewald energy   TEWEN  =      2232.06528869
  -Hartree energ DENC   =     -2438.28345917
  -exchange      EXHF   =         0.00000000
  -V(xc)+E(xc)   XCENC  =        14.48597431
  PAW double counting   =       228.69403340     -218.18290438
  entropy T*S    EENTRO =        -0.00000000
  eigenvalues    EBANDS =      -134.17994239
  atomic energy  EATOM  =       294.30319316
  Solvation  Ediel_sol  =         0.00000000
  ---------------------------------------------------
  free energy    TOTEN  =       -19.72548843 eV

  energy without entropy =      -19.72548843  energy(sigma->0) =      -19.72548843


--------------------------------------------------------------------------------------------------------




--------------------------------------- Iteration      1(  12)  ---------------------------------------


    EDDIAG:  cpu time    1.0578: real time    1.0725
  RMM-DIIS:  cpu time    4.3453: real time    4.3553
    ORTHCH:  cpu time    0.0510: real time    0.0520
       DOS:  cpu time    0.0010: real time    0.0006
    CHARGE:  cpu time    0.2650: real time    0.2977
    MIXING:  cpu time    0.0030: real time    0.0127
    --------------------------------------------
      LOOP:  cpu time    5.7231: real time    5.7909

 eigenvalue-minimisations  :  3520
 total energy-change (2. order) :-0.2614801E-04  (-0.2113905E-04)
 number of electron       8.0000000 magnetization 
 augmentation part       -0.0156749 magnetization 

 Broyden mixing:
  rms(total) = 0.91124E+00    rms(broyden)= 0.91117E+00
  rms(prec ) = 0.92471E+00
  weight for this iteration     100.00

 Free energy of the ion-electron system (eV)
  ---------------------------------------------------
  alpha Z        PSCENC =         1.37232795
  Ewald energy   TEWEN  =      2232.06528869
  -Hartree energ DENC   =     -2438.28345917
  -exchange      EXHF   =         0.00000000
  -V(xc)+E(xc)   XCENC  =        14.48597431
  PAW double counting   =       228.69403340     -218.18290438
  entropy T*S    EENTRO =        -0.00000000
  eigenvalues    EBANDS =      -134.17996853
  atomic energy  EATOM  =       294.30319316
  Solvation  Ediel_sol  =         0.00000000
  ---------------------------------------------------
  free energy    TOTEN  =       -19.72551457 eV

  energy without entropy =      -19.72551457  energy(sigma->0) =      -19.72551457


--------------------------------------------------------------------------------------------------------




--------------------------------------- Iteration      1(  13)  ---------------------------------------


    POTLOK:  cpu time    0.0210: real time    0.0295
    SETDIJ:  cpu time    0.0010: real time    0.0017
    EDDIAG:  cpu time    1.0448: real time    1.0470
  RMM-DIIS:  cpu time    3.7974: real time    3.8063
    ORTHCH:  cpu time    0.0520: real time    0.0525
       DOS:  cpu time    0.0010: real time    0.0006
    CHARGE:  cpu time    0.2340: real time    0.2348
    MIXING:  cpu time    0.0030: real time    0.0199
    --------------------------------------------
      LOOP:  cpu time    5.1542: real time    5.1923

 eigenvalue-minimisations  :  3456
 total energy-change (2. order) : 0.8856712E+00  (-0.4381161E-01)
 number of electron       8.0000000 magnetization 
 augmentation part       -0.0180869 magnetization 

 Broyden mixing:
  rms(total) = 0.59395E+00    rms(broyden)= 0.59395E+00
  rms(prec ) = 0.60024E+00
  weight for this iteration     100.00

 eigenvalues of (default mixing * dielectric matrix)
  average eigenvalue GAMMA=   2.6437
  2.6437

 Free energy of the ion-electron system (eV)
  ---------------------------------------------------
  alpha Z        PSCENC =         1.37232795
  Ewald energy   TEWEN  =      2232.06528869
  -Hartree energ DENC   =     -2449.58364255
  -exchange      EXHF   =         0.00000000
  -V(xc)+E(xc)   XCENC  =        14.93184822
  PAW double counting   =       998.08411069     -987.69671546
  entropy T*S    EENTRO =        -0.00000000
  eigenvalues    EBANDS =      -122.31625405
  atomic energy  EATOM  =       294.30319316
  Solvation  Ediel_sol  =         0.00000000
  ---------------------------------------------------
  free energy    TOTEN  =       -18.83984334 eV

  energy without entropy =      -18.83984334  energy(sigma->0) =      -18.83984334


--------------------------------------------------------------------------------------------------------




--------------------------------------- Iteration      1(  14)  ---------------------------------------


    POTLOK:  cpu time    0.0200: real time    0.0300
    SETDIJ:  cpu time    0.0020: real time    0.0017
    EDDIAG:  cpu time    1.0438: real time    1.0467
  RMM-DIIS:  cpu time    3.7844: real time    3.7932
    ORTHCH:  cpu time    0.0510: real time    0.0522
       DOS:  cpu time    0.0010: real time    0.0007
    CHARGE:  cpu time    0.2350: real time    0.2349
    MIXING:  cpu time    0.0020: real time    0.0101
    --------------------------------------------
      LOOP:  cpu time    5.1392: real time    5.1693

 eigenvalue-minimisations  :  3456
 total energy-change (2. order) : 0.3331712E+00  (-0.9246431E-01)
 number of electron       8.0000000 magnetization 
 augmentation part       -0.0211342 magnetization 

 Broyden mixing:
  rms(total) = 0.11697E+00    rms(broyden)= 0.11696E+00
  rms(prec ) = 0.11952E+00
  weight for this iteration     100.00

 eigenvalues of (default mixing * dielectric matrix)
  average eigenvalue GAMMA=   2.2345
  2.2345  2.2345

 Free energy of the ion-electron system (eV)
  ---------------------------------------------------
  alpha Z        PSCENC =         1.37232795
  Ewald energy   TEWEN  =      2232.06528869
  -Hartree energ DENC   =     -2468.14003009
  -exchange      EXHF   =         0.00000000
  -V(xc)+E(xc)   XCENC  =        15.67829988
  PAW double counting   =      3854.10536008    -3843.82802698
  entropy T*S    EENTRO =        -0.00000000
  eigenvalues    EBANDS =      -104.06308486
  atomic energy  EATOM  =       294.30319316
  Solvation  Ediel_sol  =         0.00000000
  ---------------------------------------------------
  free energy    TOTEN  =       -18.50667216 eV

  energy without entropy =      -18.50667216  energy(sigma->0) =      -18.50667216


--------------------------------------------------------------------------------------------------------




--------------------------------------- Iteration      1(  15)  ---------------------------------------


    POTLOK:  cpu time    0.0190: real time    0.0312
    SETDIJ:  cpu time    0.0020: real time    0.0017
    EDDIAG:  cpu time    1.0438: real time    1.0469
  RMM-DIIS:  cpu time    3.8454: real time    3.9108
    ORTHCH:  cpu time    0.0560: real time    0.0570
       DOS:  cpu time    0.0000: real time    0.0006
    CHARGE:  cpu time    0.2500: real time    0.2765
    MIXING:  cpu time    0.0010: real time    0.0046
    --------------------------------------------
      LOOP:  cpu time    5.2172: real time    5.3294

 eigenvalue-minimisations  :  3469
 total energy-change (2. order) : 0.2062236E-01  (-0.2513532E-02)
 number of electron       8.0000000 magnetization 
 augmentation part       -0.0205812 magnetization 

 Broyden mixing:
  rms(total) = 0.12454E-01    rms(broyden)= 0.12453E-01
  rms(prec ) = 0.15984E-01
  weight for this iteration     100.00

 eigenvalues of (default mixing * dielectric matrix)
  average eigenvalue GAMMA=   2.0029
  1.3515  2.3286  2.3286

 Free energy of the ion-electron system (eV)
  ---------------------------------------------------
  alpha Z        PSCENC =         1.37232795
  Ewald energy   TEWEN  =      2232.06528869
  -Hartree energ DENC   =     -2467.24585671
  -exchange      EXHF   =         0.00000000
  -V(xc)+E(xc)   XCENC  =        15.56479134
  PAW double counting   =      4087.83885817    -4077.50133244
  entropy T*S    EENTRO =        -0.00000000
  eigenvalues    EBANDS =      -104.88331996
  atomic energy  EATOM  =       294.30319316
  Solvation  Ediel_sol  =         0.00000000
  ---------------------------------------------------
  free energy    TOTEN  =       -18.48604980 eV

  energy without entropy =      -18.48604980  energy(sigma->0) =      -18.48604980


--------------------------------------------------------------------------------------------------------




--------------------------------------- Iteration      1(  16)  ---------------------------------------


    POTLOK:  cpu time    0.0190: real time    0.0441
    SETDIJ:  cpu time    0.0020: real time    0.0027
    EDDIAG:  cpu time    1.0948: real time    1.1101
  RMM-DIIS:  cpu time    3.9264: real time    3.9461
    ORTHCH:  cpu time    0.0530: real time    0.0523
       DOS:  cpu time    0.0000: real time    0.0006
    CHARGE:  cpu time    0.2350: real time    0.2348
    MIXING:  cpu time    0.0010: real time    0.0008
    --------------------------------------------
      LOOP:  cpu time    5.3312: real time    5.3916

 eigenvalue-minimisations  :  3471
 total energy-change (2. order) : 0.1564311E-02  (-0.4202160E-04)
 number of electron       8.0000000 magnetization 
 augmentation part       -0.0205255 magnetization 

 Broyden mixing:
  rms(total) = 0.82523E-02    rms(broyden)= 0.82521E-02
  rms(prec ) = 0.11462E-01
  weight for this iteration     100.00

 eigenvalues of (default mixing * dielectric matrix)
  average eigenvalue GAMMA=   2.0828
  0.9929  2.5254  2.5254  2.2875

 Free energy of the ion-electron system (eV)
  ---------------------------------------------------
  alpha Z        PSCENC =         1.37232795
  Ewald energy   TEWEN  =      2232.06528869
  -Hartree energ DENC   =     -2468.44498730
  -exchange      EXHF   =         0.00000000
  -V(xc)+E(xc)   XCENC  =        15.57968565
  PAW double counting   =      4140.59897735    -4130.25883543
  entropy T*S    EENTRO =        -0.00000000
  eigenvalues    EBANDS =      -103.70013557
  atomic energy  EATOM  =       294.30319316
  Solvation  Ediel_sol  =         0.00000000
  ---------------------------------------------------
  free energy    TOTEN  =       -18.48448548 eV

  energy without entropy =      -18.48448548  energy(sigma->0) =      -18.48448548


--------------------------------------------------------------------------------------------------------




--------------------------------------- Iteration      1(  17)  ---------------------------------------


    POTLOK:  cpu time    0.0200: real time    0.0330
    SETDIJ:  cpu time    0.0010: real time    0.0017
    EDDIAG:  cpu time    1.0448: real time    1.0474
  RMM-DIIS:  cpu time    3.8414: real time    3.8510
    ORTHCH:  cpu time    0.0520: real time    0.0523
       DOS:  cpu time    0.0010: real time    0.0006
    CHARGE:  cpu time    0.2340: real time    0.2348
    MIXING:  cpu time    0.0010: real time    0.0009
    --------------------------------------------
      LOOP:  cpu time    5.1952: real time    5.2215

 eigenvalue-minimisations  :  3456
 total energy-change (2. order) : 0.1313290E-02  (-0.5567814E-04)
 number of electron       8.0000000 magnetization 
 augmentation part       -0.0205753 magnetization 

 Broyden mixing:
  rms(total) = 0.60196E-02    rms(broyden)= 0.60195E-02
  rms(prec ) = 0.74813E-02
  weight for this iteration     100.00

 eigenvalues of (default mixing * dielectric matrix)
  average eigenvalue GAMMA=   2.1141
  3.7657  2.3623  1.0345  1.8497  1.5584

 Free energy of the ion-electron system (eV)
  ---------------------------------------------------
  alpha Z        PSCENC =         1.37232795
  Ewald energy   TEWEN  =      2232.06528869
  -Hartree energ DENC   =     -2470.75243298
  -exchange      EXHF   =         0.00000000
  -V(xc)+E(xc)   XCENC  =        15.60639207
  PAW double counting   =      4083.62632475    -4073.28781944
  entropy T*S    EENTRO =        -0.00000000
  eigenvalues    EBANDS =      -101.41644639
  atomic energy  EATOM  =       294.30319316
  Solvation  Ediel_sol  =         0.00000000
  ---------------------------------------------------
  free energy    TOTEN  =       -18.48317219 eV

  energy without entropy =      -18.48317219  energy(sigma->0) =      -18.48317219


--------------------------------------------------------------------------------------------------------




--------------------------------------- Iteration      1(  18)  ---------------------------------------


    POTLOK:  cpu time    0.0200: real time    0.0293
    SETDIJ:  cpu time    0.0010: real time    0.0017
    EDDIAG:  cpu time    1.0438: real time    1.0471
  RMM-DIIS:  cpu time    3.8574: real time    3.8654
    ORTHCH:  cpu time    0.0510: real time    0.0523
       DOS:  cpu time    0.0010: real time    0.0006
    CHARGE:  cpu time    0.2570: real time    0.2573
    MIXING:  cpu time    0.0020: real time    0.0023
    --------------------------------------------
      LOOP:  cpu time    5.2332: real time    5.2561

 eigenvalue-minimisations  :  3456
 total energy-change (2. order) : 0.6074402E-04  (-0.1680580E-04)
 number of electron       8.0000000 magnetization 
 augmentation part       -0.0205603 magnetization 

 Broyden mixing:
  rms(total) = 0.57563E-02    rms(broyden)= 0.57563E-02
  rms(prec ) = 0.63256E-02
  weight for this iteration     100.00

 eigenvalues of (default mixing * dielectric matrix)
  average eigenvalue GAMMA=   2.5697
  5.9392  2.9164  2.3882  2.1985  0.9880  0.9880

 Free energy of the ion-electron system (eV)
  ---------------------------------------------------
  alpha Z        PSCENC =         1.37232795
  Ewald energy   TEWEN  =      2232.06528869
  -Hartree energ DENC   =     -2472.01791175
  -exchange      EXHF   =         0.00000000
  -V(xc)+E(xc)   XCENC  =        15.61185301
  PAW double counting   =      4124.94370257    -4114.60064207
  entropy T*S    EENTRO =        -0.00000000
  eigenvalues    EBANDS =      -100.16092301
  atomic energy  EATOM  =       294.30319316
  Solvation  Ediel_sol  =         0.00000000
  ---------------------------------------------------
  free energy    TOTEN  =       -18.48311145 eV

  energy without entropy =      -18.48311145  energy(sigma->0) =      -18.48311145


--------------------------------------------------------------------------------------------------------




--------------------------------------- Iteration      1(  19)  ---------------------------------------


    POTLOK:  cpu time    0.0290: real time    0.0304
    SETDIJ:  cpu time    0.0020: real time    0.0017
    EDDIAG:  cpu time    1.0438: real time    1.0461
  RMM-DIIS:  cpu time    3.8334: real time    3.8436
    ORTHCH:  cpu time    0.0520: real time    0.0521
       DOS:  cpu time    0.0010: real time    0.0006
    CHARGE:  cpu time    0.2570: real time    0.2572
    MIXING:  cpu time    0.0010: real time    0.0010
    --------------------------------------------
      LOOP:  cpu time    5.2192: real time    5.2327

 eigenvalue-minimisations  :  3456
 total energy-change (2. order) :-0.4698898E-03  (-0.1470550E-04)
 number of electron       8.0000000 magnetization 
 augmentation part       -0.0205994 magnetization 

 Broyden mixing:
  rms(total) = 0.15861E-02    rms(broyden)= 0.15860E-02
  rms(prec ) = 0.18581E-02
  weight for this iteration     100.00

 eigenvalues of (default mixing * dielectric matrix)
  average eigenvalue GAMMA=   2.3929
  6.0805  2.9615  2.3054  2.1360  1.4077  0.9975  0.8620

 Free energy of the ion-electron system (eV)
  ---------------------------------------------------
  alpha Z        PSCENC =         1.37232795
  Ewald energy   TEWEN  =      2232.06528869
  -Hartree energ DENC   =     -2473.26792375
  -exchange      EXHF   =         0.00000000
  -V(xc)+E(xc)   XCENC  =        15.61927201
  PAW double counting   =      4095.75689563    -4085.41612400
  entropy T*S    EENTRO =        -0.00000000
  eigenvalues    EBANDS =       -98.91651104
  atomic energy  EATOM  =       294.30319316
  Solvation  Ediel_sol  =         0.00000000
  ---------------------------------------------------
  free energy    TOTEN  =       -18.48358134 eV

  energy without entropy =      -18.48358134  energy(sigma->0) =      -18.48358134


--------------------------------------------------------------------------------------------------------




--------------------------------------- Iteration      1(  20)  ---------------------------------------


    POTLOK:  cpu time    0.0180: real time    0.0272
    SETDIJ:  cpu time    0.0020: real time    0.0017
    EDDIAG:  cpu time    1.0428: real time    1.0464
  RMM-DIIS:  cpu time    3.8784: real time    3.8949
    ORTHCH:  cpu time    0.0530: real time    0.0521
       DOS:  cpu time    0.0000: real time    0.0006
    CHARGE:  cpu time    0.2570: real time    0.2573
    MIXING:  cpu time    0.0010: real time    0.0010
    --------------------------------------------
      LOOP:  cpu time    5.2532: real time    5.2813

 eigenvalue-minimisations  :  3462
 total energy-change (2. order) :-0.2903675E-03  (-0.6010861E-06)
 number of electron       8.0000000 magnetization 
 augmentation part       -0.0205997 magnetization 

 Broyden mixing:
  rms(total) = 0.19925E-02    rms(broyden)= 0.19925E-02
  rms(prec ) = 0.21218E-02
  weight for this iteration     100.00

 eigenvalues of (default mixing * dielectric matrix)
  average eigenvalue GAMMA=   2.7507
  7.6437  4.1280  2.6958  2.2981  2.2981  0.9905  0.9905  0.9611

 Free energy of the ion-electron system (eV)
  ---------------------------------------------------
  alpha Z        PSCENC =         1.37232795
  Ewald energy   TEWEN  =      2232.06528869
  -Hartree energ DENC   =     -2473.38457398
  -exchange      EXHF   =         0.00000000
  -V(xc)+E(xc)   XCENC  =        15.61885143
  PAW double counting   =      4090.79960081    -4080.45890491
  entropy T*S    EENTRO =        -0.00000000
  eigenvalues    EBANDS =       -98.79965486
  atomic energy  EATOM  =       294.30319316
  Solvation  Ediel_sol  =         0.00000000
  ---------------------------------------------------
  free energy    TOTEN  =       -18.48387171 eV

  energy without entropy =      -18.48387171  energy(sigma->0) =      -18.48387171


--------------------------------------------------------------------------------------------------------




--------------------------------------- Iteration      1(  21)  ---------------------------------------


    POTLOK:  cpu time    0.0190: real time    0.0252
    SETDIJ:  cpu time    0.0010: real time    0.0017
    EDDIAG:  cpu time    1.0438: real time    1.0456
  RMM-DIIS:  cpu time    3.8504: real time    3.8629
    ORTHCH:  cpu time    0.0520: real time    0.0523
       DOS:  cpu time    0.0010: real time    0.0006
    CHARGE:  cpu time    0.2560: real time    0.2576
    MIXING:  cpu time    0.0010: real time    0.0011
    --------------------------------------------
      LOOP:  cpu time    5.2232: real time    5.2469

 eigenvalue-minimisations  :  3456
 total energy-change (2. order) :-0.5560979E-03  (-0.4394604E-05)
 number of electron       8.0000000 magnetization 
 augmentation part       -0.0205922 magnetization 

 Broyden mixing:
  rms(total) = 0.62598E-03    rms(broyden)= 0.62596E-03
  rms(prec ) = 0.66319E-03
  weight for this iteration     100.00

 eigenvalues of (default mixing * dielectric matrix)
  average eigenvalue GAMMA=   2.9290
  8.2583  4.9560  3.1440  2.5955  2.2313  2.2313  1.0018  0.9713  0.9713

 Free energy of the ion-electron system (eV)
  ---------------------------------------------------
  alpha Z        PSCENC =         1.37232795
  Ewald energy   TEWEN  =      2232.06528869
  -Hartree energ DENC   =     -2473.57275608
  -exchange      EXHF   =         0.00000000
  -V(xc)+E(xc)   XCENC  =        15.61701969
  PAW double counting   =      4103.78345311    -4093.44210459
  entropy T*S    EENTRO =        -0.00000000
  eigenvalues    EBANDS =       -98.61084974
  atomic energy  EATOM  =       294.30319316
  Solvation  Ediel_sol  =         0.00000000
  ---------------------------------------------------
  free energy    TOTEN  =       -18.48442781 eV

  energy without entropy =      -18.48442781  energy(sigma->0) =      -18.48442781


--------------------------------------------------------------------------------------------------------




--------------------------------------- Iteration      1(  22)  ---------------------------------------


    POTLOK:  cpu time    0.0190: real time    0.0317
    SETDIJ:  cpu time    0.0020: real time    0.0017
    EDDIAG:  cpu time    1.0448: real time    1.0469
  RMM-DIIS:  cpu time    3.7174: real time    3.7277
    ORTHCH:  cpu time    0.0520: real time    0.0521
       DOS:  cpu time    0.0010: real time    0.0006
    CHARGE:  cpu time    0.2570: real time    0.2574
    MIXING:  cpu time    0.0020: real time    0.0011
    --------------------------------------------
      LOOP:  cpu time    5.0952: real time    5.1192

 eigenvalue-minimisations  :  3389
 total energy-change (2. order) :-0.9474277E-04  (-0.2765881E-06)
 number of electron       8.0000000 magnetization 
 augmentation part       -0.0205913 magnetization 

 Broyden mixing:
  rms(total) = 0.26105E-03    rms(broyden)= 0.26104E-03
  rms(prec ) = 0.28434E-03
  weight for this iteration     100.00

 eigenvalues of (default mixing * dielectric matrix)
  average eigenvalue GAMMA=   2.7782
  8.3780  5.1697  3.1037  2.5957  2.3036  2.3036  0.9842  0.9842  1.0017  0.9581

 Free energy of the ion-electron system (eV)
  ---------------------------------------------------
  alpha Z        PSCENC =         1.37232795
  Ewald energy   TEWEN  =      2232.06528869
  -Hartree energ DENC   =     -2473.60313709
  -exchange      EXHF   =         0.00000000
  -V(xc)+E(xc)   XCENC  =        15.61688268
  PAW double counting   =      4100.69653777    -4090.35519100
  entropy T*S    EENTRO =        -0.00000000
  eigenvalues    EBANDS =       -98.58042471
  atomic energy  EATOM  =       294.30319316
  Solvation  Ediel_sol  =         0.00000000
  ---------------------------------------------------
  free energy    TOTEN  =       -18.48452255 eV

  energy without entropy =      -18.48452255  energy(sigma->0) =      -18.48452255


--------------------------------------------------------------------------------------------------------




--------------------------------------- Iteration      1(  23)  ---------------------------------------


    POTLOK:  cpu time    0.0180: real time    0.0341
    SETDIJ:  cpu time    0.0010: real time    0.0017
    EDDIAG:  cpu time    1.0478: real time    1.0495
  RMM-DIIS:  cpu time    3.8604: real time    3.8698
    ORTHCH:  cpu time    0.0520: real time    0.0521
       DOS:  cpu time    0.0000: real time    0.0006
    CHARGE:  cpu time    0.2580: real time    0.2579
    MIXING:  cpu time    0.0040: real time    0.0113
    --------------------------------------------
      LOOP:  cpu time    5.2412: real time    5.2770

 eigenvalue-minimisations  :  3456
 total energy-change (2. order) :-0.2002751E-04  (-0.4278629E-07)
 number of electron       8.0000000 magnetization 
 augmentation part       -0.0205928 magnetization 

 Broyden mixing:
  rms(total) = 0.67437E-04    rms(broyden)= 0.67432E-04
  rms(prec ) = 0.92378E-04
  weight for this iteration     100.00

 eigenvalues of (default mixing * dielectric matrix)
  average eigenvalue GAMMA=   2.9279
  8.7226  5.7846  3.9352  2.8040  2.4685  2.2720  2.2720  0.9985  0.9870  0.9812
  0.9812

 Free energy of the ion-electron system (eV)
  ---------------------------------------------------
  alpha Z        PSCENC =         1.37232795
  Ewald energy   TEWEN  =      2232.06528869
  -Hartree energ DENC   =     -2473.63380272
  -exchange      EXHF   =         0.00000000
  -V(xc)+E(xc)   XCENC  =        15.61724383
  PAW double counting   =      4099.79757510    -4089.45633760
  entropy T*S    EENTRO =        -0.00000000
  eigenvalues    EBANDS =       -98.55003098
  atomic energy  EATOM  =       294.30319316
  Solvation  Ediel_sol  =         0.00000000
  ---------------------------------------------------
  free energy    TOTEN  =       -18.48454258 eV

  energy without entropy =      -18.48454258  energy(sigma->0) =      -18.48454258


--------------------------------------------------------------------------------------------------------




--------------------------------------- Iteration      1(  24)  ---------------------------------------


    POTLOK:  cpu time    0.0170: real time    0.0308
    SETDIJ:  cpu time    0.0020: real time    0.0017
    EDDIAG:  cpu time    1.0478: real time    1.0496
  RMM-DIIS:  cpu time    3.7114: real time    3.7203
    ORTHCH:  cpu time    0.0510: real time    0.0520
       DOS:  cpu time    0.0010: real time    0.0006
    CHARGE:  cpu time    0.2570: real time    0.2579
    MIXING:  cpu time    0.0020: real time    0.0012
    --------------------------------------------
      LOOP:  cpu time    5.0892: real time    5.1141

 eigenvalue-minimisations  :  3240
 total energy-change (2. order) :-0.1528376E-04  (-0.1684946E-07)
 number of electron       8.0000000 magnetization 
 augmentation part       -0.0205931 magnetization 

 Broyden mixing:
  rms(total) = 0.54258E-04    rms(broyden)= 0.54257E-04
  rms(prec ) = 0.61327E-04
  weight for this iteration     100.00

 eigenvalues of (default mixing * dielectric matrix)
  average eigenvalue GAMMA=   2.9214
  8.7746  5.9038  3.7805  2.7967  2.7967  2.6350  2.2147  2.2147  0.9756  0.9756
  0.9944  0.9944

 Free energy of the ion-electron system (eV)
  ---------------------------------------------------
  alpha Z        PSCENC =         1.37232795
  Ewald energy   TEWEN  =      2232.06528869
  -Hartree energ DENC   =     -2473.65105475
  -exchange      EXHF   =         0.00000000
  -V(xc)+E(xc)   XCENC  =        15.61730082
  PAW double counting   =      4099.85704249    -4089.51582778
  entropy T*S    EENTRO =        -0.00000000
  eigenvalues    EBANDS =       -98.53282845
  atomic energy  EATOM  =       294.30319316
  Solvation  Ediel_sol  =         0.00000000
  ---------------------------------------------------
  free energy    TOTEN  =       -18.48455786 eV

  energy without entropy =      -18.48455786  energy(sigma->0) =      -18.48455786


--------------------------------------------------------------------------------------------------------




--------------------------------------- Iteration      1(  25)  ---------------------------------------


    POTLOK:  cpu time    0.0190: real time    0.0311
    SETDIJ:  cpu time    0.0010: real time    0.0017
[...]
     12       5.8598      0.00000
     13       6.1720      0.00000
     14       7.0693      0.00000
     15       7.4555      0.00000
     16       8.6179      0.00000
     17       9.1023      0.00000
     18       9.9811      0.00000
     19      10.4553      0.00000
     20      11.1135      0.00000
     21      12.3667      0.00000
     22      13.4579      0.00000
     23      13.7981      0.00000
     24      14.7857      0.00000

 k-point    60 :      -0.0417    0.3750    0.0000
  band No.  band energies     occupation 
      1     -19.7155      2.00000
      2     -13.2876      2.00000
      3      -9.3367      2.00000
      4      -7.3628      2.00000
      5       1.1703      0.00000
      6       4.1358      0.00000
      7       4.4490      0.00000
      8       5.0090      0.00000
      9       5.2949      0.00000
     10       5.5915      0.00000
     11       5.8057      0.00000
     12       6.4324      0.00000
     13       6.7297      0.00000
     14       7.6463      0.00000
     15       8.0210      0.00000
     16       9.1962      0.00000
     17       9.6688      0.00000
     18      11.0392      0.00000
     19      11.6637      0.00000
     20      12.1208      0.00000
     21      12.9115      0.00000
     22      13.8413      0.00000
     23      13.9371      0.00000
     24      14.0141      0.00000

 k-point    61 :       0.0417    0.4583    0.0000
  band No.  band energies     occupation 
      1     -17.5232      2.00000
      2     -16.1838      2.00000
      3      -9.8301      2.00000
      4      -5.4950      2.00000
      5      -1.4091      0.00000
      6       4.1420      0.00000
      7       7.4711      0.00000
      8       8.3036      0.00000
      9       8.7387      0.00000
     10       8.7739      0.00000
     11       8.9971      0.00000
     12       9.2333      0.00000
     13       9.5669      0.00000
     14       9.8511      0.00000
     15      10.1312      0.00000
     16      10.1360      0.00000
     17      10.3780      0.00000
     18      10.6153      0.00000
     19      10.9246      0.00000
     20      11.2078      0.00000
     21      11.3967      0.00000
     22      11.4997      0.00000
     23      12.1326      0.00000
     24      12.7174      0.00000

 k-point    62 :       0.1250    0.4583    0.0000
  band No.  band energies     occupation 
      1     -17.2997      2.00000
      2     -16.0030      2.00000
      3     -10.7826      2.00000
      4      -5.1978      2.00000
      5      -1.5203      0.00000
      6       5.4734      0.00000
      7       7.7973      0.00000
      8       8.4098      0.00000
      9       9.0149      0.00000
     10       9.1032      0.00000
     11       9.2792      0.00000
     12       9.5912      0.00000
     13       9.6453      0.00000
     14      10.1965      0.00000
     15      10.4475      0.00000
     16      10.4843      0.00000
     17      10.6450      0.00000
     18      10.9187      0.00000
     19      11.0751      0.00000
     20      11.5231      0.00000
     21      11.7312      0.00000
     22      11.7889      0.00000
     23      12.1305      0.00000
     24      12.9273      0.00000

 k-point    63 :       0.2083    0.4583    0.0000
  band No.  band energies     occupation 
      1     -17.5816      2.00000
      2     -14.8858      2.00000
      3     -12.1025      2.00000
      4      -5.1312      2.00000
      5      -1.2805      0.00000
      6       7.2268      0.00000
      7       7.6269      0.00000
      8       7.6669      0.00000
      9       8.5236      0.00000
     10       8.6897      0.00000
     11       9.0143      0.00000
     12       9.2278      0.00000
     13       9.9054      0.00000
     14       9.9750      0.00000
     15      10.3342      0.00000
     16      11.0783      0.00000
     17      11.1789      0.00000
     18      12.3546      0.00000
     19      12.5610      0.00000
     20      12.7165      0.00000
     21      12.7411      0.00000
     22      12.8580      0.00000
     23      13.0644      0.00000
     24      13.3680      0.00000

 k-point    64 :       0.2917    0.4583    0.0000
  band No.  band energies     occupation 
      1     -17.6606      2.00000
      2     -14.4432      2.00000
      3     -12.5744      2.00000
      4      -5.1459      2.00000
      5      -1.1913      0.00000
      6       7.1199      0.00000
      7       7.4347      0.00000
      8       8.3969      0.00000
      9       8.5548      0.00000
     10       8.8761      0.00000
     11       9.0548      0.00000
     12       9.0834      0.00000
     13       9.7324      0.00000
     14       9.8503      0.00000
     15       9.8745      0.00000
     16      10.9845      0.00000
     17      11.0610      0.00000
     18      12.4776      0.00000
     19      12.6591      0.00000
     20      13.2136      0.00000
     21      13.5641      0.00000
     22      13.7570      0.00000
     23      14.1593      0.00000
     24      14.3128      0.00000

 k-point    65 :       0.3750    0.4583    0.0000
  band No.  band energies     occupation 
      1     -17.4893      2.00000
      2     -15.5048      2.00000
      3     -11.3549      2.00000
      4      -5.1875      2.00000
      5      -1.4188      0.00000
      6       6.7176      0.00000
      7       7.4461      0.00000
      8       7.9699      0.00000
      9       8.7241      0.00000
     10       8.9109      0.00000
     11       9.2124      0.00000
     12       9.4632      0.00000
     13       9.6959      0.00000
     14      10.1152      0.00000
     15      10.1209      0.00000
     16      11.0518      0.00000
     17      11.3583      0.00000
     18      11.3732      0.00000
     19      11.5105      0.00000
     20      11.7932      0.00000
     21      11.8900      0.00000
     22      12.5474      0.00000
     23      12.5517      0.00000
     24      12.9669      0.00000

 k-point    66 :       0.4583    0.4583    0.0000
  band No.  band energies     occupation 
      1     -17.3479      2.00000
      2     -16.2991      2.00000
      3     -10.1249      2.00000
      4      -5.3779      2.00000
      5      -1.5334      0.00000
      6       4.8818      0.00000
      7       8.0684      0.00000
      8       8.2400      0.00000
      9       8.7563      0.00000
     10       9.1328      0.00000
     11       9.4540      0.00000
     12       9.5060      0.00000
     13       9.6946      0.00000
     14       9.7666      0.00000
     15       9.9368      0.00000
     16       9.9938      0.00000
     17      10.4097      0.00000
     18      10.5999      0.00000
     19      10.8225      0.00000
     20      10.8866      0.00000
     21      11.4236      0.00000
     22      11.8208      0.00000
     23      12.0647      0.00000
     24      12.1420      0.00000

 k-point    67 :      -0.4583    0.4583    0.0000
  band No.  band energies     occupation 
      1     -17.9534      2.00000
      2     -15.8412      2.00000
      3      -9.5595      2.00000
      4      -5.7782      2.00000
      5      -1.1787      0.00000
      6       4.1852      0.00000
      7       6.7720      0.00000
      8       7.6254      0.00000
      9       7.9959      0.00000
     10       8.2713      0.00000
     11       8.4925      0.00000
     12       9.0849      0.00000
     13       9.3078      0.00000
     14       9.4079      0.00000
     15      10.0968      0.00000
     16      10.3612      0.00000
     17      10.6731      0.00000
     18      10.7357      0.00000
     19      10.9796      0.00000
     20      11.2100      0.00000
     21      11.6383      0.00000
     22      11.8927      0.00000
     23      12.0831      0.00000
     24      12.4777      0.00000

 k-point    68 :      -0.3750    0.4583    0.0000
  band No.  band energies     occupation 
      1     -18.5797      2.00000
      2     -14.8400      2.00000
      3      -9.9487      2.00000
      4      -6.2169      2.00000
      5      -0.4606      0.00000
      6       4.9476      0.00000
      7       5.8209      0.00000
      8       6.6347      0.00000
      9       6.9880      0.00000
     10       7.2670      0.00000
     11       7.4905      0.00000
     12       8.0878      0.00000
     13       8.4042      0.00000
     14       9.2599      0.00000
     15       9.6839      0.00000
     16      10.6425      0.00000
     17      10.6465      0.00000
     18      11.3231      0.00000
     19      11.5005      0.00000
     20      12.4141      0.00000
     21      12.4901      0.00000
     22      12.7522      0.00000
     23      12.8214      0.00000
     24      13.3603      0.00000

 k-point    69 :      -0.2917    0.4583    0.0000
  band No.  band energies     occupation 
      1     -18.9457      2.00000
      2     -13.6760      2.00000
      3     -10.9650      2.00000
      4      -6.5080      2.00000
      5       0.2446      0.00000
      6       5.2697      0.00000
      7       6.0498      0.00000
      8       6.4322      0.00000
      9       6.7041      0.00000
     10       6.8582      0.00000
     11       6.9582      0.00000
     12       7.5151      0.00000
     13       7.8571      0.00000
     14       8.6652      0.00000
     15       9.1377      0.00000
     16      10.0107      0.00000
     17      10.3215      0.00000
     18      10.7940      0.00000
     19      11.2300      0.00000
     20      12.6639      0.00000
     21      12.7695      0.00000
     22      13.8278      0.00000
     23      14.3574      0.00000
     24      14.7415      0.00000

 k-point    70 :      -0.2083    0.4583    0.0000
  band No.  band energies     occupation 
      1     -19.0131      2.00000
      2     -13.1770      2.00000
      3     -11.4662      2.00000
      4      -6.5608      2.00000
      5       0.4401      0.00000
      6       5.1734      0.00000
      7       5.9310      0.00000
      8       6.3302      0.00000
      9       6.5979      0.00000
     10       6.8330      0.00000
     11       7.4039      0.00000
     12       7.7135      0.00000
     13       7.8707      0.00000
     14       8.5422      0.00000
     15       9.0364      0.00000
     16       9.4571      0.00000
     17       9.8553      0.00000
     18      10.6860      0.00000
     19      11.0768      0.00000
     20      12.5934      0.00000
     21      12.6713      0.00000
     22      14.6578      0.00000
     23      14.8894      0.00000
     24      15.0191      0.00000

 k-point    71 :      -0.1250    0.4583    0.0000
  band No.  band energies     occupation 
      1     -18.7764      2.00000
      2     -14.2031      2.00000
      3     -10.5135      2.00000
      4      -6.3597      2.00000
      5      -0.0512      0.00000
      6       5.4523      0.00000
      7       5.6657      0.00000
      8       6.3101      0.00000
      9       6.6811      0.00000
     10       6.9554      0.00000
     11       7.1852      0.00000
     12       7.7704      0.00000
     13       8.1008      0.00000
     14       8.9296      0.00000
     15       9.3826      0.00000
     16      10.2986      0.00000
     17      10.9845      0.00000
     18      11.1242      0.00000
     19      11.4717      0.00000
     20      12.7501      0.00000
     21      12.9988      0.00000
     22      13.4353      0.00000
     23      13.6253      0.00000
     24      13.7147      0.00000

 k-point    72 :      -0.0417    0.4583    0.0000
  band No.  band energies     occupation 
      1     -18.2505      2.00000
      2     -15.3376      2.00000
      3      -9.7444      2.00000
      4      -5.9563      2.00000
      5      -0.8246      0.00000
      6       4.1825      0.00000
      7       6.2892      0.00000
      8       7.1242      0.00000
      9       7.4844      0.00000
     10       7.7621      0.00000
     11       7.9844      0.00000
     12       8.5809      0.00000
     13       8.8950      0.00000
     14       9.7453      0.00000
     15      10.0782      0.00000
     16      10.1818      0.00000
     17      10.8255      0.00000
     18      11.3701      0.00000
     19      11.6168      0.00000
     20      11.8049      0.00000
     21      11.8526      0.00000
     22      12.0770      0.00000
     23      12.5256      0.00000
     24      12.9973      0.00000


--------------------------------------------------------------------------------------------------------


 soft charge-density along one line, spin component           1
         0         1         2         3         4         5         6         7         8         9
 total charge-density along one line
 
 pseudopotential strength for first ion, spin component:           1
 12.715  21.397   0.000  -0.000   0.000   0.000  -0.000   0.000
 21.397  36.006   0.000  -0.000   0.000   0.000  -0.000   0.001
  0.000   0.000  -3.175  -0.000   0.000  -5.691  -0.000   0.000
 -0.000  -0.000  -0.000  -3.176  -0.000  -0.000  -5.693  -0.000
  0.000   0.000   0.000  -0.000  -3.175   0.000  -0.000  -5.691
  0.000   0.000  -5.691  -0.000   0.000 -10.179  -0.000   0.000
 -0.000  -0.000  -0.000  -5.693  -0.000  -0.000 -10.182  -0.000
  0.000   0.001   0.000  -0.000  -5.691   0.000  -0.000 -10.179
 total augmentation occupancy for first ion, spin component:           1
  7.801  -2.729  -0.002   0.000  -0.063   0.001   0.000   0.027
 -2.729   0.992   0.001   0.000   0.027  -0.000   0.000  -0.011
 -0.002   0.001   7.373   0.000   0.007  -2.513   0.000  -0.000
  0.000   0.000   0.000   3.307   0.000   0.000  -0.893   0.000
 -0.063   0.027   0.007   0.000   7.376  -0.000   0.000  -2.514
  0.001  -0.000  -2.513   0.000  -0.000   0.870   0.000  -0.001
  0.000   0.000   0.000  -0.893   0.000   0.000   0.247   0.000
  0.027  -0.011  -0.000   0.000  -2.514  -0.001   0.000   0.871


------------------------ aborting loop because EDIFF is reached ----------------------------------------


    CHARGE:  cpu time    0.2350: real time    0.2355
    FORLOC:  cpu time    0.0000: real time    0.0006
    FORNL :  cpu time    0.1450: real time    0.1444
    STRESS:  cpu time    2.0067: real time    2.0107
    FORCOR:  cpu time    0.0140: real time    0.0137
    FORHAR:  cpu time    0.0030: real time    0.0033
    MIXING:  cpu time    0.0010: real time    0.0007
    OFIELD:  cpu time    0.0000: real time    0.0001

  Number of pair interactions contributing to vdW energy:   10138
  Edisp (eV):   -0.10828
    FORVDW:  cpu time    0.0010: real time    0.0014

  FORCE on cell =-STRESS in cart. coord.  units (eV):
  Direction    XX          YY          ZZ          XY          YZ          ZX
  --------------------------------------------------------------------------------------
  Alpha Z     1.37233     1.37233     1.37233
  Ewald    2500.71805  2500.63024 -2769.28758     0.17608     0.00000     0.00000
  Hartree  2462.34668  2462.33493 -2451.02442     0.07692    -0.00000    -0.00000
  E(xc)     -32.39929   -32.39950   -33.35851    -0.00748    -0.00000     0.00000
  Local   -5078.61732 -5078.52818  5090.61815    -0.25777     0.00000    -0.00000
  n-local     8.25966     8.25700     6.82967    -0.06891    -0.00000    -0.00000
  augment     0.14274     0.14272     0.11790     0.00093     0.00000     0.00000
  Kinetic   137.99788   138.04375   154.68573     0.56518     0.00000     0.00000
  Fock        0.00000     0.00000     0.00000     0.00000     0.00000     0.00000
  vdW        -0.00421    -0.00391    -0.00007    -0.00246     0.00000     0.00000
  -------------------------------------------------------------------------------------
  Total      -0.18348    -0.15064    -0.04680     0.48249     0.00000     0.00000
  in kB      -1.83976    -1.51042    -0.46925     4.83789     0.00000     0.00000
  external pressure =       -1.27 kB  Pullay stress =        0.00 kB


 VOLUME and BASIS-vectors are now :
 -----------------------------------------------------------------------------
  energy-cutoff  :      875.00
  volume of cell :      159.79
      direct lattice vectors                 reciprocal lattice vectors
     1.244895484 -2.143885492  0.000000000     0.403959083 -0.231874866  0.000000000
     1.223518339  2.131543422  0.000000000     0.406298088  0.235926152  0.000000000
     0.000000000  0.000000000 30.282393743     0.000000000  0.000000000  0.033022489

  length of vectors
     2.479114714  2.457737677 30.282393743     0.465777731  0.469828996  0.033022489


 FORCES acting on ions
    electron-ion (+dipol)            ewald-force                    non-local-force                 convergence-correction
 -----------------------------------------------------------------------------------------------
   -.198E+01 -.420E-01 -.972E-07   0.179E+01 0.332E-01 0.000E+00   0.193E+00 0.707E-02 0.000E+00   0.392E-03 -.544E-04 -.172E-12
   0.198E+01 0.420E-01 0.237E-06   -.179E+01 -.332E-01 0.000E+00   -.193E+00 -.707E-02 0.000E+00   -.392E-03 0.544E-04 -.172E-12
 -----------------------------------------------------------------------------------------------
   -.115E-05 0.164E-04 0.140E-06   0.187E-13 0.144E-14 0.000E+00   0.000E+00 0.000E+00 0.000E+00   0.355E-09 0.106E-09 -.345E-12
 
 
 POSITION                                       TOTAL-FORCE (eV/Angst)
 -----------------------------------------------------------------------------------
      0.00113     -0.00010     15.14120        -0.000097     -0.001725      0.000000
      1.23664     -0.71866     15.14120         0.000097      0.001725      0.000000
 -----------------------------------------------------------------------------------
    total drift:                               -0.000001      0.000016      0.000000


--------------------------------------------------------------------------------------------------------



  FREE ENERGIE OF THE ION-ELECTRON SYSTEM (eV)
  ---------------------------------------------------
  free  energy   TOTEN  =       -18.59299225 eV

  energy  without entropy=      -18.59299225  energy(sigma->0) =      -18.59299225
 
 d Force = 0.2595543E-02[-0.304E-06, 0.519E-02]  d Energy = 0.2593913E-02 0.163E-05
 d Force =-0.8895330E-02[-0.173E-01,-0.479E-03]  d Ewald  =-0.8905394E-02 0.101E-04


--------------------------------------------------------------------------------------------------------


    POTLOK:  cpu time    0.0220: real time    0.0218


--------------------------------------------------------------------------------------------------------


 stress matrix after NEB project (eV)
     -0.18348      0.48249      0.00000
      0.48249     -0.15064      0.00000
      0.00000      0.00000     -0.04680
  FORCES: max atom, RMS     0.001728    0.001728
  FORCE total and by dimension    0.002444    0.001725
  Stress total and by dimension    0.723982    0.482494


--------------------------------------------------------------------------------------------------------


  
 reached required accuracy - stopping structural energy minimisation
     LOOP+:  cpu time   28.4587: real time   28.6095
    4ORBIT:  cpu time    0.0000: real time    0.0000

 total amount of memory used by VASP MPI-rank0    94597. kBytes
=======================================================================

   base      :      30000. kBytes
   nonl-proj :      43987. kBytes
   fftplans  :       1579. kBytes
   grid      :       8077. kBytes
   one-center:          6. kBytes
   wavefun   :      10948. kBytes
 
  
  
 General timing and accounting informations for this job:
 ========================================================
  
                  Total CPU time used (sec):      191.757
                            User time (sec):      190.281
                          System time (sec):        1.476
                         Elapsed time (sec):      194.040
  
                   Maximum memory used (kb):      209040.
                   Average memory used (kb):           0.
  
                          Minor page faults:       156226
                          Major page faults:          290
                 Voluntary context switches:         9058
