unknown system                          
           1
     1.244895   -2.143885    0.000000
     1.223518    2.131543    0.000000
     0.000000    0.000000   30.282394
   C 
   2
Direct configuration=     1
   0.00000262  0.99999738  0.50000000
   0.66666738  0.33333262  0.50000000
Direct configuration=     2
   0.00252125  0.00232126  0.50000000
   0.66414875  0.33100874  0.50000000
Direct configuration=     3
   0.00047920  0.00043711  0.50000000
   0.66619080  0.33289289  0.50000000
