   4   4   0   0
  0.1757913E+02  0.4182563E-09  0.4182562E-09  0.4182563E-09  0.2000000E-15
  1.000000000000000E-004
  CAR 
 unknown system                          
     20.54203926     -1.74288197  301      8.95435801      1.00000000
     -1.743  0.0000E+00  0.0000E+00
     -1.669  0.0000E+00  0.0000E+00
     -1.594  0.0000E+00  0.0000E+00
     -1.520  0.0000E+00  0.0000E+00
     -1.446  0.0000E+00  0.0000E+00
     -1.371  0.0000E+00  0.0000E+00
     -1.297  0.3986E-19  0.2961E-20
     -1.223  0.1278E-15  0.9498E-17
     -1.149  0.1340E-12  0.9963E-14
     -1.074  0.4937E-10  0.3677E-11
     -1.000  0.6661E-08  0.4985E-09
     -0.926  0.3506E-06  0.2654E-07
     -0.851  0.7734E-05  0.6011E-06
     -0.777  0.7515E-04  0.6184E-05
     -0.703  0.3341E-03  0.3100E-04
     -0.629  0.7736E-03  0.8846E-04
     -0.554  0.1242E-02  0.1807E-03
     -0.480  0.1629E-02  0.3017E-03
     -0.406  0.1862E-02  0.4400E-03
     -0.332  0.2125E-02  0.5979E-03
     -0.257  0.2498E-02  0.7834E-03
     -0.183  0.2758E-02  0.9883E-03
     -0.109  0.2793E-02  0.1196E-02
     -0.034  0.2961E-02  0.1416E-02
      0.040  0.3544E-02  0.1679E-02
      0.114  0.3913E-02  0.1970E-02
      0.188  0.3810E-02  0.2253E-02
      0.263  0.3876E-02  0.2541E-02
      0.337  0.4245E-02  0.2856E-02
      0.411  0.5020E-02  0.3229E-02
      0.486  0.5654E-02  0.3649E-02
      0.560  0.5304E-02  0.4043E-02
      0.634  0.5413E-02  0.4445E-02
      0.708  0.6548E-02  0.4931E-02
      0.783  0.7742E-02  0.5506E-02
      0.857  0.8401E-02  0.6130E-02
      0.931  0.8734E-02  0.6779E-02
      1.006  0.8546E-02  0.7414E-02
      1.080  0.8507E-02  0.8046E-02
      1.154  0.9262E-02  0.8734E-02
      1.228  0.1004E-01  0.9480E-02
      1.303  0.1045E-01  0.1026E-01
      1.377  0.1035E-01  0.1102E-01
      1.451  0.1020E-01  0.1178E-01
      1.526  0.1367E-01  0.1280E-01
      1.600  0.2409E-01  0.1459E-01
      1.674  0.3927E-01  0.1750E-01
      1.748  0.5285E-01  0.2143E-01
      1.823  0.5789E-01  0.2573E-01
      1.897  0.5603E-01  0.2989E-01
      1.971  0.5349E-01  0.3387E-01
      2.046  0.5161E-01  0.3770E-01
      2.120  0.4910E-01  0.4135E-01
      2.194  0.4671E-01  0.4482E-01
      2.268  0.4266E-01  0.4799E-01
      2.343  0.3770E-01  0.5079E-01
      2.417  0.3496E-01  0.5338E-01
      2.491  0.3328E-01  0.5586E-01
      2.566  0.3184E-01  0.5822E-01
      2.640  0.3310E-01  0.6068E-01
      2.714  0.3710E-01  0.6344E-01
      2.788  0.4151E-01  0.6652E-01
      2.863  0.4403E-01  0.6979E-01
      2.937  0.4593E-01  0.7320E-01
      3.011  0.5119E-01  0.7701E-01
      3.086  0.5892E-01  0.8138E-01
      3.160  0.6557E-01  0.8625E-01
      3.234  0.7034E-01  0.9148E-01
      3.308  0.7921E-01  0.9736E-01
      3.383  0.9500E-01  0.1044E+00
      3.457  0.1115E+00  0.1127E+00
      3.531  0.1196E+00  0.1216E+00
      3.605  0.1174E+00  0.1303E+00
      3.680  0.1101E+00  0.1385E+00
      3.754  0.9934E-01  0.1459E+00
      3.828  0.8668E-01  0.1523E+00
      3.903  0.8068E-01  0.1583E+00
      3.977  0.7751E-01  0.1641E+00
      4.051  0.7246E-01  0.1694E+00
      4.125  0.6849E-01  0.1745E+00
      4.200  0.6558E-01  0.1794E+00
      4.274  0.6467E-01  0.1842E+00
      4.348  0.6638E-01  0.1891E+00
      4.423  0.6774E-01  0.1942E+00
      4.497  0.6518E-01  0.1990E+00
      4.571  0.6123E-01  0.2035E+00
      4.645  0.6215E-01  0.2082E+00
      4.720  0.6394E-01  0.2129E+00
      4.794  0.6089E-01  0.2174E+00
      4.868  0.6094E-01  0.2220E+00
      4.943  0.6396E-01  0.2267E+00
      5.017  0.6350E-01  0.2314E+00
      5.091  0.6456E-01  0.2362E+00
      5.165  0.6870E-01  0.2413E+00
      5.240  0.7101E-01  0.2466E+00
      5.314  0.7053E-01  0.2518E+00
      5.388  0.7309E-01  0.2573E+00
      5.463  0.8488E-01  0.2636E+00
      5.537  0.9201E-01  0.2704E+00
      5.611  0.8867E-01  0.2770E+00
      5.685  0.8830E-01  0.2836E+00
      5.760  0.9294E-01  0.2905E+00
      5.834  0.9695E-01  0.2977E+00
      5.908  0.9390E-01  0.3046E+00
      5.983  0.9184E-01  0.3115E+00
      6.057  0.9472E-01  0.3185E+00
      6.131  0.9718E-01  0.3257E+00
      6.205  0.9734E-01  0.3330E+00
      6.280  0.9845E-01  0.3403E+00
      6.354  0.1015E+00  0.3478E+00
      6.428  0.1024E+00  0.3554E+00
      6.503  0.1006E+00  0.3629E+00
      6.577  0.9703E-01  0.3701E+00
      6.651  0.9371E-01  0.3770E+00
      6.725  0.9113E-01  0.3838E+00
      6.800  0.8598E-01  0.3902E+00
      6.874  0.7464E-01  0.3957E+00
      6.948  0.5932E-01  0.4002E+00
      7.023  0.4726E-01  0.4037E+00
      7.097  0.4535E-01  0.4070E+00
      7.171  0.4441E-01  0.4103E+00
      7.245  0.3736E-01  0.4131E+00
      7.320  0.3137E-01  0.4154E+00
      7.394  0.2980E-01  0.4177E+00
      7.468  0.2730E-01  0.4197E+00
      7.543  0.2261E-01  0.4214E+00
      7.617  0.2074E-01  0.4229E+00
      7.691  0.2080E-01  0.4244E+00
      7.765  0.1978E-01  0.4259E+00
      7.840  0.1811E-01  0.4273E+00
      7.914  0.1637E-01  0.4285E+00
      7.988  0.1435E-01  0.4295E+00
      8.062  0.1165E-01  0.4304E+00
      8.137  0.9935E-02  0.4311E+00
      8.211  0.9203E-02  0.4318E+00
      8.285  0.8973E-02  0.4325E+00
      8.360  0.1009E-01  0.4332E+00
      8.434  0.1162E-01  0.4341E+00
      8.508  0.1222E-01  0.4350E+00
      8.582  0.1233E-01  0.4359E+00
      8.657  0.1231E-01  0.4368E+00
      8.731  0.1228E-01  0.4378E+00
      8.805  0.1137E-01  0.4386E+00
      8.880  0.9511E-02  0.4393E+00
      8.954  0.9260E-02  0.4400E+00
      9.028  0.1070E-01  0.4408E+00
      9.102  0.1239E-01  0.4417E+00
      9.177  0.1401E-01  0.4428E+00
      9.251  0.1577E-01  0.4439E+00
      9.325  0.1637E-01  0.4451E+00
      9.400  0.1388E-01  0.4462E+00
      9.474  0.1138E-01  0.4470E+00
      9.548  0.1039E-01  0.4478E+00
      9.622  0.9944E-02  0.4485E+00
      9.697  0.1041E-01  0.4493E+00
      9.771  0.1059E-01  0.4501E+00
      9.845  0.1021E-01  0.4508E+00
      9.920  0.1176E-01  0.4517E+00
      9.994  0.1324E-01  0.4527E+00
     10.068  0.1296E-01  0.4537E+00
     10.142  0.1250E-01  0.4546E+00
     10.217  0.1164E-01  0.4555E+00
     10.291  0.1090E-01  0.4563E+00
     10.365  0.9680E-02  0.4570E+00
     10.440  0.9117E-02  0.4577E+00
     10.514  0.1004E-01  0.4584E+00
     10.588  0.1134E-01  0.4593E+00
     10.662  0.1226E-01  0.4602E+00
     10.737  0.1119E-01  0.4610E+00
     10.811  0.1029E-01  0.4618E+00
     10.885  0.1112E-01  0.4626E+00
     10.960  0.1160E-01  0.4634E+00
     11.034  0.1080E-01  0.4642E+00
     11.108  0.9443E-02  0.4649E+00
     11.182  0.9272E-02  0.4656E+00
     11.257  0.1056E-01  0.4664E+00
     11.331  0.1217E-01  0.4673E+00
     11.405  0.1218E-01  0.4682E+00
     11.480  0.1036E-01  0.4690E+00
     11.554  0.9617E-02  0.4697E+00
     11.628  0.8691E-02  0.4704E+00
     11.702  0.7687E-02  0.4709E+00
     11.777  0.8056E-02  0.4715E+00
     11.851  0.8906E-02  0.4722E+00
     11.925  0.9997E-02  0.4729E+00
     11.999  0.1119E-01  0.4738E+00
     12.074  0.1152E-01  0.4746E+00
     12.148  0.1000E-01  0.4754E+00
     12.222  0.8343E-02  0.4760E+00
     12.297  0.7439E-02  0.4765E+00
     12.371  0.7120E-02  0.4771E+00
     12.445  0.7303E-02  0.4776E+00
     12.519  0.7560E-02  0.4782E+00
     12.594  0.8044E-02  0.4788E+00
     12.668  0.8226E-02  0.4794E+00
     12.742  0.8294E-02  0.4800E+00
     12.817  0.8754E-02  0.4806E+00
     12.891  0.9194E-02  0.4813E+00
     12.965  0.8729E-02  0.4820E+00
     13.039  0.8094E-02  0.4826E+00
     13.114  0.7685E-02  0.4831E+00
     13.188  0.8483E-02  0.4838E+00
     13.262  0.1067E-01  0.4846E+00
     13.337  0.1267E-01  0.4855E+00
     13.411  0.1346E-01  0.4865E+00
     13.485  0.1364E-01  0.4875E+00
     13.559  0.1462E-01  0.4886E+00
     13.634  0.1618E-01  0.4898E+00
     13.708  0.1558E-01  0.4910E+00
     13.782  0.1443E-01  0.4920E+00
     13.857  0.1347E-01  0.4930E+00
     13.931  0.1343E-01  0.4940E+00
     14.005  0.1381E-01  0.4951E+00
     14.079  0.1356E-01  0.4961E+00
     14.154  0.1341E-01  0.4971E+00
     14.228  0.1368E-01  0.4981E+00
     14.302  0.1330E-01  0.4991E+00
     14.377  0.1203E-01  0.5000E+00
     14.451  0.1150E-01  0.5008E+00
     14.525  0.1295E-01  0.5018E+00
     14.599  0.1447E-01  0.5029E+00
     14.674  0.1515E-01  0.5040E+00
     14.748  0.1547E-01  0.5051E+00
     14.822  0.1577E-01  0.5063E+00
     14.897  0.1528E-01  0.5074E+00
     14.971  0.1440E-01  0.5085E+00
     15.045  0.1514E-01  0.5096E+00
     15.119  0.1622E-01  0.5108E+00
     15.194  0.1532E-01  0.5120E+00
     15.268  0.1313E-01  0.5130E+00
     15.342  0.1277E-01  0.5139E+00
     15.417  0.1384E-01  0.5149E+00
     15.491  0.1393E-01  0.5160E+00
     15.565  0.1354E-01  0.5170E+00
     15.639  0.1300E-01  0.5179E+00
     15.714  0.1291E-01  0.5189E+00
     15.788  0.1248E-01  0.5198E+00
     15.862  0.1062E-01  0.5206E+00
     15.936  0.9210E-02  0.5213E+00
     16.011  0.8784E-02  0.5219E+00
     16.085  0.1112E-01  0.5228E+00
     16.159  0.1507E-01  0.5239E+00
     16.234  0.1573E-01  0.5251E+00
     16.308  0.1238E-01  0.5260E+00
     16.382  0.1037E-01  0.5268E+00
     16.456  0.1131E-01  0.5276E+00
     16.531  0.1200E-01  0.5285E+00
     16.605  0.1145E-01  0.5293E+00
     16.679  0.1079E-01  0.5301E+00
     16.754  0.1007E-01  0.5309E+00
     16.828  0.8998E-02  0.5316E+00
     16.902  0.8144E-02  0.5322E+00
     16.976  0.8184E-02  0.5328E+00
     17.051  0.7570E-02  0.5333E+00
     17.125  0.5800E-02  0.5338E+00
     17.199  0.5345E-02  0.5342E+00
     17.274  0.6481E-02  0.5346E+00
     17.348  0.6968E-02  0.5352E+00
     17.422  0.6780E-02  0.5357E+00
     17.496  0.6059E-02  0.5361E+00
     17.571  0.5000E-02  0.5365E+00
     17.645  0.3828E-02  0.5368E+00
     17.719  0.2918E-02  0.5370E+00
     17.794  0.2870E-02  0.5372E+00
     17.868  0.3552E-02  0.5375E+00
     17.942  0.3935E-02  0.5377E+00
     18.016  0.3428E-02  0.5380E+00
     18.091  0.2799E-02  0.5382E+00
     18.165  0.2915E-02  0.5384E+00
     18.239  0.3463E-02  0.5387E+00
     18.314  0.3355E-02  0.5389E+00
     18.388  0.2402E-02  0.5391E+00
     18.462  0.1486E-02  0.5392E+00
     18.536  0.1146E-02  0.5393E+00
     18.611  0.1058E-02  0.5394E+00
     18.685  0.9548E-03  0.5395E+00
     18.759  0.9433E-03  0.5395E+00
     18.834  0.1148E-02  0.5396E+00
     18.908  0.1230E-02  0.5397E+00
     18.982  0.1087E-02  0.5398E+00
     19.056  0.9217E-03  0.5399E+00
     19.131  0.6740E-03  0.5399E+00
     19.205  0.2777E-03  0.5399E+00
     19.279  0.4866E-04  0.5399E+00
     19.354  0.1106E-04  0.5399E+00
     19.428  0.7862E-04  0.5399E+00
     19.502  0.2833E-03  0.5400E+00
     19.576  0.3733E-03  0.5400E+00
     19.651  0.1803E-03  0.5400E+00
     19.725  0.3167E-04  0.5400E+00
     19.799  0.1996E-05  0.5400E+00
     19.873  0.4442E-07  0.5400E+00
     19.948  0.3442E-09  0.5400E+00
     20.022  0.9180E-12  0.5400E+00
     20.096  0.8362E-15  0.5400E+00
     20.171  0.2480E-18  0.5400E+00
     20.245  0.0000E+00  0.5400E+00
     20.319  0.0000E+00  0.5400E+00
     20.393  0.0000E+00  0.5400E+00
     20.468  0.0000E+00  0.5400E+00
     20.542  0.0000E+00  0.5400E+00
