       N       E                     dE             d eps       ncg     rms          rms(c)
DAV:   1     0.278153597372E+03    0.27815E+03   -0.22707E+04 92052   0.152E+03
DAV:   2    -0.815058372808E+01   -0.28630E+03   -0.27858E+03104868   0.331E+02
DAV:   3    -0.132612389370E+02   -0.51107E+01   -0.50822E+01103590   0.466E+01
DAV:   4    -0.132908821145E+02   -0.29643E-01   -0.29635E-01105138   0.367E+00
DAV:   5    -0.132911841299E+02   -0.30202E-03   -0.30200E-03107820   0.383E-01    0.194E+01
RMM:   6    -0.122226570509E+02    0.10685E+01   -0.26442E+00 91152   0.107E+01    0.124E+01
RMM:   7    -0.121476933973E+02    0.74964E-01   -0.33739E-01 91187   0.364E+00    0.523E+00
RMM:   8    -0.121361555218E+02    0.11538E-01   -0.19054E-02 91194   0.925E-01    0.511E-01
RMM:   9    -0.121360666406E+02    0.88881E-04   -0.20258E-04 91167   0.751E-02    0.612E-02
RMM:  10    -0.121360732186E+02   -0.65780E-05   -0.32571E-05 91158   0.388E-02    0.498E-02
RMM:  11    -0.121360752038E+02   -0.19852E-05   -0.15578E-06 52601   0.742E-03    0.649E-03
RMM:  12    -0.121360752411E+02   -0.37266E-07   -0.27749E-07 49004   0.357E-03
   1 F= -.12136075E+02 E0= -.12133608E+02  d E =-.121361E+02
