   4   4   0   0
  0.1633426E+02  0.3811646E-09  0.4168496E-09  0.4168496E-09  0.2000000E-15
  1.000000000000000E-004
  CAR 
 unknown system                          
     22.08518557     -1.18680896  301     10.22121176      1.00000000
     -1.187  0.0000E+00  0.0000E+00
     -1.109  0.0000E+00  0.0000E+00
     -1.032  0.0000E+00  0.0000E+00
     -0.954  0.0000E+00  0.0000E+00
     -0.877  0.0000E+00  0.0000E+00
     -0.799  0.0000E+00  0.0000E+00
     -0.721  0.0000E+00  0.0000E+00
     -0.644  0.1290E-16  0.1000E-17
     -0.566  0.2478E-13  0.1923E-14
     -0.489  0.1503E-10  0.1168E-11
     -0.411  0.2982E-08  0.2325E-09
     -0.334  0.2059E-06  0.1621E-07
     -0.256  0.5399E-05  0.4351E-06
     -0.178  0.5898E-04  0.5011E-05
     -0.101  0.2897E-03  0.2748E-04
     -0.023  0.6999E-03  0.8178E-04
      0.054  0.1059E-02  0.1639E-03
      0.132  0.1461E-02  0.2772E-03
      0.210  0.1738E-02  0.4120E-03
      0.287  0.1746E-02  0.5475E-03
      0.365  0.2087E-02  0.7093E-03
      0.442  0.2540E-02  0.9064E-03
      0.520  0.2521E-02  0.1102E-02
      0.597  0.2557E-02  0.1300E-02
      0.675  0.2849E-02  0.1521E-02
      0.753  0.3055E-02  0.1758E-02
      0.830  0.3411E-02  0.2023E-02
      0.908  0.3815E-02  0.2319E-02
      0.985  0.3450E-02  0.2586E-02
      1.063  0.3413E-02  0.2851E-02
      1.140  0.4211E-02  0.3178E-02
      1.218  0.4675E-02  0.3541E-02
      1.296  0.4630E-02  0.3900E-02
      1.373  0.4453E-02  0.4245E-02
      1.451  0.4967E-02  0.4630E-02
      1.528  0.5617E-02  0.5066E-02
      1.606  0.5393E-02  0.5485E-02
      1.683  0.5545E-02  0.5915E-02
      1.761  0.6680E-02  0.6433E-02
      1.839  0.7220E-02  0.6993E-02
      1.916  0.7077E-02  0.7542E-02
      1.994  0.7498E-02  0.8124E-02
      2.071  0.8788E-02  0.8805E-02
      2.149  0.1019E-01  0.9596E-02
      2.226  0.1228E-01  0.1055E-01
      2.304  0.1516E-01  0.1172E-01
      2.382  0.1597E-01  0.1296E-01
      2.459  0.1530E-01  0.1415E-01
      2.537  0.1662E-01  0.1544E-01
      2.614  0.2134E-01  0.1710E-01
      2.692  0.2918E-01  0.1936E-01
      2.769  0.3683E-01  0.2222E-01
      2.847  0.4325E-01  0.2557E-01
      2.925  0.4874E-01  0.2935E-01
      3.002  0.5256E-01  0.3343E-01
      3.080  0.5506E-01  0.3770E-01
      3.157  0.5818E-01  0.4221E-01
      3.235  0.6107E-01  0.4695E-01
      3.312  0.6083E-01  0.5167E-01
      3.390  0.5985E-01  0.5631E-01
      3.468  0.6031E-01  0.6099E-01
      3.545  0.5984E-01  0.6563E-01
      3.623  0.5928E-01  0.7023E-01
      3.700  0.6091E-01  0.7496E-01
      3.778  0.6227E-01  0.7979E-01
      3.855  0.6065E-01  0.8449E-01
      3.933  0.5882E-01  0.8906E-01
      4.011  0.5907E-01  0.9364E-01
      4.088  0.6156E-01  0.9841E-01
      4.166  0.6824E-01  0.1037E+00
      4.243  0.7529E-01  0.1095E+00
      4.321  0.8125E-01  0.1158E+00
      4.398  0.8692E-01  0.1226E+00
      4.476  0.8951E-01  0.1295E+00
      4.554  0.8630E-01  0.1362E+00
      4.631  0.7886E-01  0.1423E+00
      4.709  0.6986E-01  0.1478E+00
      4.786  0.6146E-01  0.1525E+00
      4.864  0.5945E-01  0.1571E+00
      4.941  0.6391E-01  0.1621E+00
      5.019  0.7361E-01  0.1678E+00
      5.097  0.8083E-01  0.1741E+00
      5.174  0.8233E-01  0.1805E+00
      5.252  0.8129E-01  0.1868E+00
      5.329  0.7474E-01  0.1926E+00
      5.407  0.6785E-01  0.1978E+00
      5.484  0.6288E-01  0.2027E+00
      5.562  0.5740E-01  0.2072E+00
      5.640  0.5580E-01  0.2115E+00
      5.717  0.5905E-01  0.2161E+00
      5.795  0.6519E-01  0.2211E+00
      5.872  0.7152E-01  0.2267E+00
      5.950  0.7299E-01  0.2323E+00
      6.028  0.7171E-01  0.2379E+00
      6.105  0.7028E-01  0.2434E+00
      6.183  0.7171E-01  0.2489E+00
      6.260  0.7408E-01  0.2547E+00
      6.338  0.7345E-01  0.2604E+00
      6.415  0.7396E-01  0.2661E+00
      6.493  0.7728E-01  0.2721E+00
      6.571  0.8086E-01  0.2784E+00
      6.648  0.8316E-01  0.2848E+00
      6.726  0.8438E-01  0.2914E+00
      6.803  0.8375E-01  0.2979E+00
      6.881  0.8170E-01  0.3042E+00
      6.958  0.7868E-01  0.3103E+00
      7.036  0.7496E-01  0.3161E+00
      7.114  0.7304E-01  0.3218E+00
      7.191  0.7412E-01  0.3275E+00
      7.269  0.7590E-01  0.3334E+00
      7.346  0.8106E-01  0.3397E+00
      7.424  0.8708E-01  0.3465E+00
      7.501  0.8699E-01  0.3532E+00
      7.579  0.8270E-01  0.3596E+00
      7.657  0.7541E-01  0.3655E+00
      7.734  0.6593E-01  0.3706E+00
      7.812  0.6065E-01  0.3753E+00
      7.889  0.5874E-01  0.3799E+00
      7.967  0.5666E-01  0.3843E+00
      8.044  0.5848E-01  0.3888E+00
      8.122  0.6606E-01  0.3939E+00
      8.200  0.7251E-01  0.3995E+00
      8.277  0.7016E-01  0.4050E+00
      8.355  0.6396E-01  0.4099E+00
      8.432  0.5694E-01  0.4144E+00
      8.510  0.4898E-01  0.4182E+00
      8.587  0.3826E-01  0.4211E+00
      8.665  0.2512E-01  0.4231E+00
      8.743  0.1444E-01  0.4242E+00
      8.820  0.9896E-02  0.4250E+00
      8.898  0.9581E-02  0.4257E+00
      8.975  0.1031E-01  0.4265E+00
      9.053  0.1206E-01  0.4274E+00
      9.130  0.1342E-01  0.4285E+00
      9.208  0.1134E-01  0.4294E+00
      9.286  0.8360E-02  0.4300E+00
      9.363  0.7273E-02  0.4306E+00
      9.441  0.8082E-02  0.4312E+00
      9.518  0.1070E-01  0.4320E+00
      9.596  0.1418E-01  0.4331E+00
      9.673  0.1483E-01  0.4343E+00
      9.751  0.1139E-01  0.4352E+00
      9.829  0.8408E-02  0.4358E+00
      9.906  0.8105E-02  0.4364E+00
      9.984  0.8865E-02  0.4371E+00
     10.061  0.9804E-02  0.4379E+00
     10.139  0.1232E-01  0.4389E+00
     10.216  0.1397E-01  0.4399E+00
     10.294  0.1258E-01  0.4409E+00
     10.372  0.9665E-02  0.4417E+00
     10.449  0.8331E-02  0.4423E+00
     10.527  0.8472E-02  0.4430E+00
     10.604  0.9520E-02  0.4437E+00
     10.682  0.1185E-01  0.4446E+00
     10.759  0.1317E-01  0.4456E+00
     10.837  0.1229E-01  0.4466E+00
     10.915  0.1116E-01  0.4475E+00
     10.992  0.1050E-01  0.4483E+00
     11.070  0.1028E-01  0.4491E+00
     11.147  0.9445E-02  0.4498E+00
     11.225  0.8489E-02  0.4505E+00
     11.302  0.1037E-01  0.4513E+00
     11.380  0.1217E-01  0.4522E+00
     11.458  0.1099E-01  0.4531E+00
     11.535  0.1049E-01  0.4539E+00
     11.613  0.1091E-01  0.4547E+00
     11.690  0.1121E-01  0.4556E+00
     11.768  0.1070E-01  0.4564E+00
     11.846  0.9466E-02  0.4572E+00
     11.923  0.9646E-02  0.4579E+00
     12.001  0.1055E-01  0.4587E+00
     12.078  0.1031E-01  0.4595E+00
     12.156  0.9530E-02  0.4603E+00
     12.233  0.9988E-02  0.4610E+00
     12.311  0.1049E-01  0.4619E+00
     12.389  0.1088E-01  0.4627E+00
     12.466  0.1137E-01  0.4636E+00
     12.544  0.1072E-01  0.4644E+00
     12.621  0.1075E-01  0.4652E+00
     12.699  0.1212E-01  0.4662E+00
     12.776  0.1397E-01  0.4673E+00
     12.854  0.1506E-01  0.4684E+00
     12.932  0.1463E-01  0.4696E+00
     13.009  0.1325E-01  0.4706E+00
     13.087  0.1155E-01  0.4715E+00
     13.164  0.1108E-01  0.4724E+00
     13.242  0.1074E-01  0.4732E+00
     13.319  0.1009E-01  0.4740E+00
     13.397  0.1022E-01  0.4748E+00
     13.475  0.1032E-01  0.4756E+00
     13.552  0.1047E-01  0.4764E+00
     13.630  0.1119E-01  0.4772E+00
     13.707  0.1086E-01  0.4781E+00
     13.785  0.9026E-02  0.4788E+00
     13.862  0.8204E-02  0.4794E+00
     13.940  0.9426E-02  0.4802E+00
     14.018  0.1054E-01  0.4810E+00
     14.095  0.1036E-01  0.4818E+00
     14.173  0.8690E-02  0.4825E+00
     14.250  0.6868E-02  0.4830E+00
     14.328  0.6691E-02  0.4835E+00
     14.405  0.7975E-02  0.4841E+00
     14.483  0.9661E-02  0.4849E+00
     14.561  0.1014E-01  0.4857E+00
     14.638  0.1148E-01  0.4866E+00
     14.716  0.1415E-01  0.4876E+00
     14.793  0.1344E-01  0.4887E+00
     14.871  0.1067E-01  0.4895E+00
     14.948  0.1092E-01  0.4904E+00
     15.026  0.1254E-01  0.4913E+00
     15.104  0.1320E-01  0.4924E+00
     15.181  0.1295E-01  0.4934E+00
     15.259  0.1209E-01  0.4943E+00
     15.336  0.1095E-01  0.4952E+00
     15.414  0.1058E-01  0.4960E+00
     15.491  0.1182E-01  0.4969E+00
     15.569  0.1315E-01  0.4979E+00
     15.647  0.1350E-01  0.4990E+00
     15.724  0.1341E-01  0.5000E+00
     15.802  0.1389E-01  0.5011E+00
     15.879  0.1567E-01  0.5023E+00
     15.957  0.1650E-01  0.5036E+00
     16.034  0.1564E-01  0.5048E+00
     16.112  0.1489E-01  0.5059E+00
     16.190  0.1303E-01  0.5070E+00
     16.267  0.1154E-01  0.5078E+00
     16.345  0.1243E-01  0.5088E+00
     16.422  0.1367E-01  0.5099E+00
     16.500  0.1401E-01  0.5110E+00
     16.577  0.1329E-01  0.5120E+00
     16.655  0.1277E-01  0.5130E+00
     16.733  0.1263E-01  0.5140E+00
     16.810  0.1225E-01  0.5149E+00
     16.888  0.1174E-01  0.5158E+00
     16.965  0.1105E-01  0.5167E+00
     17.043  0.1052E-01  0.5175E+00
     17.120  0.1089E-01  0.5183E+00
     17.198  0.1071E-01  0.5192E+00
     17.276  0.1097E-01  0.5200E+00
     17.353  0.1203E-01  0.5210E+00
     17.431  0.1252E-01  0.5219E+00
     17.508  0.1241E-01  0.5229E+00
     17.586  0.1183E-01  0.5238E+00
     17.664  0.1082E-01  0.5246E+00
     17.741  0.8988E-02  0.5253E+00
     17.819  0.9269E-02  0.5261E+00
     17.896  0.1108E-01  0.5269E+00
     17.974  0.1100E-01  0.5278E+00
     18.051  0.8800E-02  0.5285E+00
     18.129  0.7855E-02  0.5291E+00
     18.207  0.9137E-02  0.5298E+00
     18.284  0.1073E-01  0.5306E+00
     18.362  0.1156E-01  0.5315E+00
     18.439  0.1108E-01  0.5324E+00
     18.517  0.9525E-02  0.5331E+00
     18.594  0.7758E-02  0.5337E+00
     18.672  0.6740E-02  0.5342E+00
     18.750  0.6707E-02  0.5347E+00
     18.827  0.7077E-02  0.5353E+00
     18.905  0.6283E-02  0.5358E+00
     18.982  0.4893E-02  0.5362E+00
     19.060  0.4361E-02  0.5365E+00
     19.137  0.4556E-02  0.5369E+00
     19.215  0.4563E-02  0.5372E+00
     19.293  0.4396E-02  0.5376E+00
     19.370  0.4309E-02  0.5379E+00
     19.448  0.3650E-02  0.5382E+00
     19.525  0.2842E-02  0.5384E+00
     19.603  0.2294E-02  0.5386E+00
     19.680  0.2342E-02  0.5387E+00
     19.758  0.2719E-02  0.5390E+00
     19.836  0.2696E-02  0.5392E+00
     19.913  0.2152E-02  0.5393E+00
     19.991  0.1526E-02  0.5395E+00
     20.068  0.1391E-02  0.5396E+00
     20.146  0.1201E-02  0.5397E+00
     20.223  0.1039E-02  0.5397E+00
     20.301  0.1044E-02  0.5398E+00
     20.379  0.6370E-03  0.5399E+00
     20.456  0.2026E-03  0.5399E+00
     20.534  0.1520E-03  0.5399E+00
     20.611  0.2801E-03  0.5399E+00
     20.689  0.3168E-03  0.5399E+00
     20.766  0.2946E-03  0.5400E+00
     20.844  0.1562E-03  0.5400E+00
     20.922  0.5024E-04  0.5400E+00
     20.999  0.8853E-04  0.5400E+00
     21.077  0.1256E-03  0.5400E+00
     21.154  0.6135E-04  0.5400E+00
     21.232  0.1000E-04  0.5400E+00
     21.309  0.5341E-06  0.5400E+00
     21.387  0.9155E-08  0.5400E+00
     21.465  0.4951E-10  0.5400E+00
     21.542  0.8335E-13  0.5400E+00
     21.620  0.4329E-16  0.5400E+00
     21.697  0.0000E+00  0.5400E+00
     21.775  0.0000E+00  0.5400E+00
     21.852  0.0000E+00  0.5400E+00
     21.930  0.0000E+00  0.5400E+00
     22.008  0.0000E+00  0.5400E+00
     22.085  0.0000E+00  0.5400E+00
