    4    4  100    1
  0.1633426E+02  0.3811646E-09  0.4168496E-09  0.4168496E-09  0.2000000E-15
  1.000000000000000E-004
  CAR 
 unknown system                          
     44   1688     27
 
  0.0000000E+00  0.0000000E+00  0.0000000E+00  0.2962963E-03
    1       -0.128991   1.000000
    2        2.557150   1.000000
    3        2.667446   1.000000
    4        2.667446   1.000000
    5        3.044471   1.000000
    6        3.085670   1.000000
    7        3.085670   1.000000
    8        4.354230   1.000000
    9        5.153118   1.000000
   10        5.892216   1.000000
   11        6.635125   1.000000
   12        7.499988   1.000000
   13        7.553451   1.000000
   14        7.553452   1.000000
   15        8.228596   1.000000
   16        8.495759   1.000000
   17        8.585641   1.000000
   18        8.585641   1.000000
   19        8.671213   1.000000
   20        8.690017   1.000000
   21        8.690018   1.000000
   22       10.768000   0.000000
   23       10.768000   0.000000
   24       12.158317   0.000000
   25       16.027312   0.000000
   26       16.027315   0.000000
   27       16.681737   0.000000
 
  0.6666667E-01 -0.2584939E-25  0.6203855E-24  0.5925926E-03
    1       -0.069730   1.000000
    2        2.574382   1.000000
    3        2.708854   1.000000
    4        2.708855   1.000000
    5        3.075998   1.000000
    6        3.112060   1.000000
    7        3.112061   1.000000
    8        4.382067   1.000000
    9        5.127763   1.000000
   10        5.911438   1.000000
   11        6.650705   1.000000
   12        7.461890   1.000000
   13        7.544848   1.000000
   14        7.544849   1.000000
   15        8.209030   1.000000
   16        8.319551   1.000000
   17        8.319551   1.000000
   18        8.451899   1.000000
   19        8.574158   1.000000
   20        8.661664   1.000000
   21        8.661665   1.000000
   22       11.079676   0.000000
   23       11.079676   0.000000
   24       11.738126   0.000000
   25       15.981432   0.000000
   26       15.981433   0.000000
   27       16.841230   0.000000
 
  0.1333333E+00  0.5169879E-25  0.8271806E-24  0.5925926E-03
    1        0.106453   1.000000
    2        2.623454   1.000000
    3        2.830197   1.000000
    4        2.830197   1.000000
    5        3.168761   1.000000
    6        3.191168   1.000000
    7        3.191169   1.000000
    8        4.465508   1.000000
    9        5.053462   1.000000
   10        5.969030   1.000000
   11        6.696997   1.000000
   12        7.350576   1.000000
   13        7.515534   1.000000
   14        7.515535   1.000000
   15        7.760725   1.000000
   16        7.760726   1.000000
   17        8.151468   1.000000
   18        8.306013   1.000000
   19        8.325692   1.000000
   20        8.580900   1.000000
   21        8.580901   1.000000
   22       10.779334   0.000000
   23       11.774124   0.000000
   24       11.774124   0.000000
   25       15.852133   0.000000
   26       15.852134   0.000000
   27       17.295491   0.000000
 
  0.2000000E+00  0.5686867E-24  0.1240771E-23  0.5925926E-03
    1        0.394145   1.000000
    2        2.696005   1.000000
    3        3.022283   1.000000
    4        3.022283   1.000000
    5        3.316103   1.000000
    6        3.322670   1.000000
    7        3.322670   1.000000
    8        4.604553   1.000000
    9        4.935762   1.000000
   10        6.064836   1.000000
   11        6.772584   1.000000
   12        7.140421   1.000000
   13        7.140421   1.000000
   14        7.175215   1.000000
   15        7.454618   1.000000
   16        7.454619   1.000000
   17        7.919577   1.000000
   18        8.059292   1.000000
   19        8.131579   1.000000
   20        8.462657   1.000000
   21        8.462658   1.000000
   22        9.660515   1.000000
   23       12.616497   0.000000
   24       12.616497   0.000000
   25       15.663673   0.000000
   26       15.663673   0.000000
   27       17.987806   0.000000
 
  0.2666667E+00  0.9305782E-24  0.8271806E-24  0.5925926E-03
    1        0.782558   1.000000
    2        2.776257   1.000000
    3        3.267577   1.000000
    4        3.267578   1.000000
    5        3.504666   1.000000
    6        3.505463   1.000000
    7        3.505464   1.000000
    8        4.783608   1.000000
    9        4.798760   1.000000
   10        6.198116   1.000000
   11        6.536273   1.000000
   12        6.536274   1.000000
   13        6.874952   1.000000
   14        6.952290   1.000000
   15        7.346308   1.000000
   16        7.346309   1.000000
   17        7.469688   1.000000
   18        7.889271   1.000000
   19        7.938020   1.000000
   20        8.334897   1.000000
   21        8.334899   1.000000
   22        8.566343   1.000000
   23       13.522995   0.000000
   24       13.522995   0.000000
   25       15.452003   0.000000
   26       15.452004   0.000000
   27       18.856423   0.000000
 
  0.3333333E+00  0.1033976E-23  0.1654361E-23  0.5925926E-03
    1        1.251932   1.000000
    2        2.833971   1.000000
    3        3.536246   1.000000
    4        3.536247   1.000000
    5        3.712046   1.000000
    6        3.735725   1.000000
    7        3.735725   1.000000
    8        4.609086   1.000000
    9        5.047460   1.000000
   10        5.978317   1.000000
   11        5.978318   1.000000
   12        6.367599   1.000000
   13        6.708324   1.000000
   14        6.998724   1.000000
   15        7.000658   1.000000
   16        7.185568   1.000000
   17        7.185569   1.000000
   18        7.602448   1.000000
   19        7.618838   1.000000
   20        7.794218   1.000000
   21        8.229810   1.000000
   22        8.229811   1.000000
   23       14.453890   0.000000
   24       14.453890   0.000000
   25       15.256047   0.000000
   26       15.256048   0.000000
   27       19.088632   0.000000
 
  0.4000000E+00  0.1137373E-23  0.2481542E-23  0.5925926E-03
    1        1.765906   1.000000
    2        2.812344   1.000000
    3        3.780281   1.000000
    4        3.780282   1.000000
    5        3.910384   1.000000
    6        4.000336   1.000000
    7        4.000336   1.000000
    8        4.426728   1.000000
    9        5.349185   1.000000
   10        5.490985   1.000000
   11        5.490985   1.000000
   12        6.487050   1.000000
   13        6.535694   1.000000
   14        6.571150   1.000000
   15        6.867838   1.000000
   16        7.005900   1.000000
   17        7.005901   1.000000
   18        7.145384   1.000000
   19        7.338703   1.000000
   20        7.635431   1.000000
   21        8.163594   1.000000
   22        8.163595   1.000000
   23       15.108255   0.000000
   24       15.108256   0.000000
   25       15.368933   0.000000
   26       15.368934   0.000000
   27       18.363736   0.000000
 
  0.4666667E+00  0.9305782E-24  0.3308722E-23  0.5925926E-03
    1        2.258409   1.000000
    2        2.631043   1.000000
    3        3.932285   1.000000
    4        3.932286   1.000000
    5        4.084595   1.000000
    6        4.239256   1.000000
    7        4.239257   1.000000
    8        4.250652   1.000000
    9        5.139507   1.000000
   10        5.139508   1.000000
   11        5.701284   1.000000
   12        6.099260   1.000000
   13        6.363343   1.000000
   14        6.454039   1.000000
   15        6.805023   1.000000
   16        6.881311   1.000000
   17        6.881312   1.000000
   18        7.063621   1.000000
   19        7.303714   1.000000
   20        7.469395   1.000000
   21        8.133522   1.000000
   22        8.133524   1.000000
   23       15.029523   0.000000
   24       15.029524   0.000000
   25       16.147827   0.000000
   26       16.147831   0.000000
   27       17.677117   0.000000
 
  0.5169879E-25  0.6666667E-01  0.1734723E-17  0.5925926E-03
    1       -0.076161   1.000000
    2        2.595715   1.000000
    3        2.684450   1.000000
    4        2.703266   1.000000
    5        3.071953   1.000000
    6        3.104905   1.000000
    7        3.119066   1.000000
    8        4.365270   1.000000
    9        5.177405   1.000000
   10        5.880003   1.000000
   11        6.614682   1.000000
   12        7.475136   1.000000
   13        7.492427   1.000000
   14        7.547036   1.000000
   15        8.171820   1.000000
   16        8.361935   1.000000
   17        8.504293   1.000000
   18        8.526195   1.000000
   19        8.585721   1.000000
   20        8.627332   1.000000
   21        8.640018   1.000000
   22       10.412695   0.003385
   23       10.993721   0.000000
   24       12.368226   0.000000
   25       16.012395   0.000000
   26       16.453876   0.000000
   27       16.456575   0.000000
 
  0.6666667E-01  0.6666667E-01  0.3469447E-17  0.5925926E-03
    1       -0.017261   1.000000
    2        2.613023   1.000000
    3        2.725859   1.000000
    4        2.741967   1.000000
    5        3.103286   1.000000
    6        3.131391   1.000000
    7        3.147061   1.000000
    8        4.392172   1.000000
    9        5.150823   1.000000
   10        5.900102   1.000000
   11        6.632043   1.000000
   12        7.455061   1.000000
   13        7.463065   1.000000
   14        7.538531   1.000000
   15        8.123699   1.000000
   16        8.232613   1.000000
   17        8.240749   1.000000
   18        8.328675   1.000000
   19        8.545501   1.000000
   20        8.597974   1.000000
   21        8.625436   1.000000
   22       10.731366   0.000000
   23       11.266184   0.000000
   24       11.946604   0.000000
   25       15.965529   0.000000
   26       16.413784   0.000000
   27       16.650962   0.000000
 
  0.1333333E+00  0.6666667E-01  0.0000000E+00  0.5925926E-03
    1        0.157645   1.000000
    2        2.662283   1.000000
    3        2.847080   1.000000
    4        2.854693   1.000000
    5        3.195424   1.000000
    6        3.210842   1.000000
    7        3.231532   1.000000
    8        4.472639   1.000000
    9        5.074252   1.000000
   10        5.959388   1.000000
   11        6.683503   1.000000
   12        7.345844   1.000000
   13        7.404276   1.000000
   14        7.506057   1.000000
   15        7.665148   1.000000
   16        7.751209   1.000000
   17        7.959765   1.000000
   18        8.240505   1.000000
   19        8.334803   1.000000
   20        8.532097   1.000000
   21        8.549894   1.000000
   22       10.998330   0.000000
   23       11.409898   0.000000
   24       11.906000   0.000000
   25       15.833944   0.000000
   26       16.295609   0.000000
   27       17.139822   0.000000
 
  0.2000000E+00  0.6666667E-01  0.2602085E-17  0.5925926E-03
    1        0.443221   1.000000
    2        2.735152   1.000000
    3        3.031248   1.000000
    4        3.038570   1.000000
    5        3.341775   1.000000
    6        3.343383   1.000000
    7        3.373059   1.000000
    8        4.604970   1.000000
    9        4.956461   1.000000
   10        6.055969   1.000000
   11        6.767122   1.000000
   12        7.037652   1.000000
   13        7.058195   1.000000
   14        7.173877   1.000000
   15        7.449593   1.000000
   16        7.456579   1.000000
   17        7.653753   1.000000
   18        8.049246   1.000000
   19        8.131216   1.000000
   20        8.420206   1.000000
   21        8.434326   1.000000
   22        9.914160   0.999993
   23       12.197738   0.000000
   24       12.703661   0.000000
   25       15.645501   0.000000
   26       16.134147   0.000000
   27       17.837348   0.000000
 
  0.2666667E+00  0.6666667E-01  0.0000000E+00  0.5925926E-03
    1        0.828729   1.000000
    2        2.815737   1.000000
    3        3.255260   1.000000
    4        3.282273   1.000000
    5        3.528334   1.000000
    6        3.528605   1.000000
    7        3.569114   1.000000
    8        4.748041   1.000000
    9        4.847833   1.000000
   10        6.188269   1.000000
   11        6.442539   1.000000
   12        6.498784   1.000000
   13        6.876422   1.000000
   14        6.959304   1.000000
   15        7.235186   1.000000
   16        7.323250   1.000000
   17        7.351603   1.000000
   18        7.744026   1.000000
   19        7.971655   1.000000
   20        8.295549   1.000000
   21        8.307266   1.000000
   22        8.898519   1.000000
   23       12.995747   0.000000
   24       13.555329   0.000000
   25       15.450898   0.000000
   26       15.986938   0.000000
   27       18.695070   0.000000
 
  0.3333333E+00  0.6666667E-01  0.1734723E-17  0.5925926E-03
    1        1.294551   1.000000
    2        2.873766   1.000000
    3        3.506726   1.000000
    4        3.549175   1.000000
    5        3.733063   1.000000
    6        3.760626   1.000000
    7        3.805652   1.000000
    8        4.613340   1.000000
    9        5.047173   1.000000
   10        5.897203   1.000000
   11        5.960467   1.000000
   12        6.352703   1.000000
   13        6.716708   1.000000
   14        6.766683   1.000000
   15        7.022413   1.000000
   16        7.165612   1.000000
   17        7.194766   1.000000
   18        7.364122   1.000000
   19        7.745278   1.000000
   20        8.133632   1.000000
   21        8.191649   1.000000
   22        8.200875   1.000000
   23       13.716733   0.000000
   24       14.339200   0.000000
   25       15.367475   0.000000
   26       15.945152   0.000000
   27       18.468376   0.000000
 
  0.4000000E+00  0.6666667E-01  0.8673617E-18  0.5925926E-03
    1        1.805015   1.000000
    2        2.851787   1.000000
    3        3.757081   1.000000
    4        3.796057   1.000000
    5        3.926738   1.000000
    6        4.019972   1.000000
    7        4.049194   1.000000
    8        4.433502   1.000000
    9        5.330611   1.000000
   10        5.428626   1.000000
   11        5.485667   1.000000
   12        6.318190   1.000000
   13        6.457702   1.000000
   14        6.600411   1.000000
   15        6.891492   1.000000
   16        6.992761   1.000000
   17        7.015326   1.000000
   18        7.182356   1.000000
   19        7.405694   1.000000
   20        7.767768   1.000000
   21        8.126341   1.000000
   22        8.132400   1.000000
   23       14.238979   0.000000
   24       14.680221   0.000000
   25       15.762673   0.000000
   26       16.130574   0.000000
   27       17.934326   0.000000
 
  0.4666667E+00  0.6666667E-01  0.0000000E+00  0.5925926E-03
    1        2.295519   1.000000
    2        2.668884   1.000000
    3        3.938378   1.000000
    4        3.952633   1.000000
    5        4.095866   1.000000
    6        4.241452   1.000000
    7        4.244497   1.000000
    8        4.258893   1.000000
    9        5.109104   1.000000
   10        5.137806   1.000000
   11        5.645258   1.000000
   12        5.959468   1.000000
   13        6.372504   1.000000
   14        6.502773   1.000000
   15        6.815790   1.000000
   16        6.876540   1.000000
   17        6.885336   1.000000
   18        7.088165   1.000000
   19        7.359576   1.000000
   20        7.550994   1.000000
   21        8.097857   1.000000
   22        8.099985   1.000000
   23       14.510720   0.000000
   24       14.640964   0.000000
   25       16.492349   0.000000
   26       16.543830   0.000000
   27       17.418698   0.000000
 
 -0.4666667E+00  0.6666667E-01  0.1734723E-17  0.5925926E-03
    1        2.295519   1.000000
    2        2.668884   1.000000
    3        3.938378   1.000000
    4        3.952633   1.000000
    5        4.095866   1.000000
    6        4.241452   1.000000
    7        4.244497   1.000000
    8        4.258893   1.000000
    9        5.109104   1.000000
   10        5.137806   1.000000
   11        5.645258   1.000000
   12        5.959468   1.000000
   13        6.372504   1.000000
   14        6.502773   1.000000
   15        6.815790   1.000000
   16        6.876540   1.000000
   17        6.885336   1.000000
   18        7.088165   1.000000
   19        7.359576   1.000000
   20        7.550994   1.000000
   21        8.097857   1.000000
   22        8.099985   1.000000
   23       14.510721   0.000000
   24       14.640964   0.000000
   25       16.492348   0.000000
   26       16.543838   0.000000
   27       17.418682   0.000000
 
 -0.4000000E+00  0.6666667E-01  0.8673617E-18  0.5925926E-03
    1        1.805015   1.000000
    2        2.851787   1.000000
    3        3.757081   1.000000
    4        3.796057   1.000000
    5        3.926738   1.000000
    6        4.019972   1.000000
    7        4.049194   1.000000
    8        4.433502   1.000000
    9        5.330611   1.000000
   10        5.428626   1.000000
   11        5.485667   1.000000
   12        6.318190   1.000000
   13        6.457702   1.000000
   14        6.600412   1.000000
   15        6.891492   1.000000
   16        6.992761   1.000000
   17        7.015326   1.000000
   18        7.182356   1.000000
   19        7.405694   1.000000
   20        7.767768   1.000000
   21        8.126341   1.000000
   22        8.132401   1.000000
   23       14.238979   0.000000
   24       14.680221   0.000000
   25       15.762672   0.000000
   26       16.130574   0.000000
   27       17.934481   0.000000
 
 -0.3333333E+00  0.6666667E-01  0.8673617E-18  0.5925926E-03
    1        1.294551   1.000000
    2        2.873766   1.000000
    3        3.506726   1.000000
    4        3.549175   1.000000
    5        3.733063   1.000000
    6        3.760626   1.000000
    7        3.805652   1.000000
    8        4.613339   1.000000
    9        5.047173   1.000000
   10        5.897203   1.000000
   11        5.960467   1.000000
   12        6.352703   1.000000
   13        6.716708   1.000000
   14        6.766683   1.000000
   15        7.022413   1.000000
   16        7.165612   1.000000
   17        7.194766   1.000000
   18        7.364122   1.000000
   19        7.745278   1.000000
   20        8.133632   1.000000
   21        8.191649   1.000000
   22        8.200875   1.000000
   23       13.716733   0.000000
   24       14.339201   0.000000
   25       15.367474   0.000000
   26       15.945152   0.000000
   27       18.468371   0.000000
 
 -0.2666667E+00  0.6666667E-01  0.2602085E-17  0.5925926E-03
    1        0.828729   1.000000
    2        2.815737   1.000000
    3        3.255260   1.000000
    4        3.282273   1.000000
    5        3.528334   1.000000
    6        3.528605   1.000000
    7        3.569114   1.000000
    8        4.748041   1.000000
    9        4.847833   1.000000
   10        6.188269   1.000000
   11        6.442539   1.000000
   12        6.498784   1.000000
   13        6.876422   1.000000
   14        6.959304   1.000000
   15        7.235186   1.000000
   16        7.323250   1.000000
   17        7.351603   1.000000
   18        7.744026   1.000000
   19        7.971655   1.000000
   20        8.295549   1.000000
   21        8.307266   1.000000
   22        8.898519   1.000000
   23       12.995747   0.000000
   24       13.555329   0.000000
   25       15.450898   0.000000
   26       15.986938   0.000000
   27       18.696432   0.000000
 
 -0.2000000E+00  0.6666667E-01  0.1734723E-17  0.5925926E-03
    1        0.443221   1.000000
    2        2.735152   1.000000
    3        3.031248   1.000000
    4        3.038570   1.000000
    5        3.341775   1.000000
    6        3.343383   1.000000
    7        3.373059   1.000000
    8        4.604970   1.000000
    9        4.956461   1.000000
   10        6.055969   1.000000
   11        6.767123   1.000000
   12        7.037652   1.000000
   13        7.058195   1.000000
   14        7.173877   1.000000
   15        7.449593   1.000000
   16        7.456579   1.000000
   17        7.653753   1.000000
   18        8.049246   1.000000
   19        8.131216   1.000000
   20        8.420206   1.000000
   21        8.434326   1.000000
   22        9.914160   0.999993
   23       12.197738   0.000000
   24       12.703661   0.000000
   25       15.645501   0.000000
   26       16.134147   0.000000
   27       17.837348   0.000000
 
 -0.1333333E+00  0.6666667E-01  0.1734723E-17  0.5925926E-03
    1        0.157645   1.000000
    2        2.662283   1.000000
    3        2.847080   1.000000
    4        2.854693   1.000000
    5        3.195424   1.000000
    6        3.210842   1.000000
    7        3.231532   1.000000
    8        4.472639   1.000000
    9        5.074252   1.000000
   10        5.959388   1.000000
   11        6.683503   1.000000
   12        7.345844   1.000000
   13        7.404276   1.000000
   14        7.506057   1.000000
   15        7.665148   1.000000
   16        7.751209   1.000000
   17        7.959765   1.000000
   18        8.240505   1.000000
   19        8.334803   1.000000
   20        8.532097   1.000000
   21        8.549894   1.000000
   22       10.998330   0.000000
   23       11.409898   0.000000
   24       11.906000   0.000000
   25       15.833944   0.000000
   26       16.295609   0.000000
   27       17.139822   0.000000
 
 -0.6666667E-01  0.6666667E-01  0.0000000E+00  0.5925926E-03
    1       -0.017261   1.000000
    2        2.613023   1.000000
    3        2.725859   1.000000
    4        2.741967   1.000000
    5        3.103286   1.000000
    6        3.131391   1.000000
    7        3.147061   1.000000
    8        4.392172   1.000000
    9        5.150823   1.000000
   10        5.900102   1.000000
   11        6.632043   1.000000
   12        7.455061   1.000000
   13        7.463065   1.000000
   14        7.538531   1.000000
   15        8.123699   1.000000
   16        8.232613   1.000000
   17        8.240750   1.000000
   18        8.328675   1.000000
   19        8.545502   1.000000
   20        8.597974   1.000000
   21        8.625436   1.000000
   22       10.731366   0.000000
   23       11.266184   0.000000
   24       11.946604   0.000000
   25       15.965529   0.000000
   26       16.413784   0.000000
   27       16.650962   0.000000
 
  0.2067952E-24  0.1333333E+00  0.3469447E-17  0.5925926E-03
    1        0.081168   1.000000
    2        2.710040   1.000000
    3        2.731916   1.000000
    4        2.808555   1.000000
    5        3.153418   1.000000
    6        3.161991   1.000000
    7        3.218944   1.000000
    8        4.392773   1.000000
    9        5.248392   1.000000
   10        5.850879   1.000000
   11        6.554000   1.000000
   12        7.238462   1.000000
   13        7.473950   1.000000
   14        7.527049   1.000000
   15        7.942668   1.000000
   16        8.006446   1.000000
   17        8.111021   1.000000
   18        8.355760   1.000000
   19        8.496505   1.000000
   20        8.585979   1.000000
   21        8.606145   1.000000
   22        9.586101   1.000000
   23       11.510233   0.000000
   24       12.904386   0.000000
   25       15.979226   0.000000
   26       16.037888   0.000000
   27       17.503398   0.000000
 
  0.6666667E-01  0.1333333E+00  0.8673617E-17  0.5925926E-03
    1        0.138800   1.000000
    2        2.727616   1.000000
    3        2.773375   1.000000
    4        2.839692   1.000000
    5        3.184128   1.000000
    6        3.188692   1.000000
    7        3.251237   1.000000
    8        4.416690   1.000000
    9        5.218837   1.000000
   10        5.872078   1.000000
   11        6.577574   1.000000
   12        7.218832   1.000000
   13        7.438816   1.000000
   14        7.519196   1.000000
   15        7.781487   1.000000
   16        7.977436   1.000000
   17        7.987238   1.000000
   18        8.073607   1.000000
   19        8.507544   1.000000
   20        8.537673   1.000000
   21        8.538640   1.000000
   22        9.947238   0.999947
   23       11.720521   0.000000
   24       12.466745   0.000000
   25       15.929658   0.000000
   26       16.267398   0.000000
   27       17.454535   0.000000
 
  0.1333333E+00  0.1333333E+00  0.3469447E-17  0.5925926E-03
    1        0.310045   1.000000
    2        2.777558   1.000000
    3        2.894441   1.000000
    4        2.929894   1.000000
    5        3.269122   1.000000
    6        3.274482   1.000000
    7        3.348282   1.000000
    8        4.487646   1.000000
    9        5.137195   1.000000
   10        5.932279   1.000000
   11        6.646435   1.000000
   12        7.127580   1.000000
   13        7.336305   1.000000
   14        7.375222   1.000000
   15        7.502727   1.000000
   16        7.502815   1.000000
   17        7.661144   1.000000
   18        8.070846   1.000000
   19        8.355108   1.000000
   20        8.440592   1.000000
   21        8.443045   1.000000
   22       10.623718   0.000000
   23       11.517270   0.000000
   24       12.249839   0.000000
   25       15.791730   0.000000
   26       16.783239   0.000000
   27       17.316461   0.000000
 
  0.2000000E+00  0.1333333E+00  0.6938894E-17  0.5925926E-03
    1        0.589291   1.000000
    2        2.851316   1.000000
    3        3.071419   1.000000
    4        3.084568   1.000000
    5        3.404639   1.000000
    6        3.417794   1.000000
    7        3.508106   1.000000
    8        4.599888   1.000000
    9        5.021076   1.000000
   10        6.026764   1.000000
   11        6.753909   1.000000
   12        6.767569   1.000000
   13        6.842218   1.000000
   14        7.143883   1.000000
   15        7.176900   1.000000
   16        7.402169   1.000000
   17        7.446246   1.000000
   18        7.942593   1.000000
   19        8.131811   1.000000
   20        8.319999   1.000000
   21        8.335606   1.000000
   22       10.461506   0.000339
   23       11.356367   0.000000
   24       12.932713   0.000000
   25       15.604877   0.000000
   26       17.116747   0.000000
   27       17.467745   0.000000
 
  0.2666667E+00  0.1333333E+00  0.3469447E-17  0.5925926E-03
    1        0.965983   1.000000
    2        2.932945   1.000000
    3        3.256071   1.000000
    4        3.324134   1.000000
    5        3.595831   1.000000
    6        3.599554   1.000000
    7        3.719544   1.000000
    8        4.704616   1.000000
    9        4.930019   1.000000
   10        6.153962   1.000000
   11        6.193398   1.000000
   12        6.384995   1.000000
   13        6.730858   1.000000
   14        6.858705   1.000000
   15        7.012084   1.000000
   16        7.253818   1.000000
   17        7.352118   1.000000
   18        7.654850   1.000000
   19        7.935475   1.000000
   20        8.192648   1.000000
   21        8.213211   1.000000
   22        9.486263   1.000000
   23       12.071741   0.000000
   24       13.619386   0.000000
   25       15.466692   0.000000
   26       16.908024   0.000000
   27       18.287091   0.000000
 
  0.3333333E+00  0.1333333E+00  0.5204170E-17  0.5925926E-03
    1        1.421056   1.000000
    2        2.991781   1.000000
    3        3.477006   1.000000
    4        3.586164   1.000000
    5        3.795040   1.000000
    6        3.834579   1.000000
    7        3.954052   1.000000
    8        4.619794   1.000000
    9        5.053712   1.000000
   10        5.679644   1.000000
   11        5.904966   1.000000
   12        6.307766   1.000000
   13        6.310645   1.000000
   14        6.715193   1.000000
   15        7.105488   1.000000
   16        7.112754   1.000000
   17        7.205727   1.000000
   18        7.286216   1.000000
   19        7.698216   1.000000
   20        8.086052   1.000000
   21        8.106895   1.000000
   22        8.704292   1.000000
   23       12.719971   0.000000
   24       14.069479   0.000000
   25       15.608634   0.000000
   26       16.759973   0.000000
   27       17.860630   0.000000
 
  0.4000000E+00  0.1333333E+00  0.5204170E-17  0.5925926E-03
    1        1.920627   1.000000
    2        2.968284   1.000000
    3        3.722569   1.000000
    4        3.839158   1.000000
    5        3.974309   1.000000
    6        4.081123   1.000000
    7        4.159210   1.000000
    8        4.451912   1.000000
    9        5.259400   1.000000
   10        5.285410   1.000000
   11        5.468730   1.000000
   12        5.946463   1.000000
   13        6.425207   1.000000
   14        6.605759   1.000000
   15        6.887945   1.000000
   16        6.951219   1.000000
   17        7.028802   1.000000
   18        7.313542   1.000000
   19        7.396746   1.000000
   20        8.019662   1.000000
   21        8.035465   1.000000
   22        8.170074   1.000000
   23       13.256419   0.000000
   24       14.111507   0.000000
   25       16.191487   0.000000
   26       16.735372   0.000000
   27       17.470271   0.000000
 
  0.4666667E+00  0.1333333E+00  0.3469447E-17  0.5925926E-03
    1        2.404571   1.000000
    2        2.780003   1.000000
    3        3.949817   1.000000
    4        4.011078   1.000000
    5        4.128407   1.000000
    6        4.244783   1.000000
    7        4.266162   1.000000
    8        4.282780   1.000000
    9        5.030972   1.000000
   10        5.134457   1.000000
   11        5.518247   1.000000
   12        5.707181   1.000000
   13        6.389970   1.000000
   14        6.543930   1.000000
   15        6.801010   1.000000
   16        6.856944   1.000000
   17        6.887385   1.000000
   18        7.081274   1.000000
   19        7.545956   1.000000
   20        7.817016   1.000000
   21        7.993084   1.000000
   22        7.998976   1.000000
   23       13.658398   0.000000
   24       13.939634   0.000000
   25       16.857795   0.000000
   26       16.940231   0.000000
   27       17.185103   0.000000
 
 -0.4666667E+00  0.1333333E+00  0.3469447E-17  0.5925926E-03
    1        2.404571   1.000000
    2        2.780003   1.000000
    3        3.949817   1.000000
    4        4.011078   1.000000
    5        4.128407   1.000000