   4   4   0   0
  0.1927176E+02  0.4497119E-09  0.4168496E-09  0.4168496E-09  0.2000000E-15
  1.000000000000000E-004
  CAR 
 unknown system                          
     19.11108561     -2.11041831  301      7.52439083      1.00000000
     -2.110  0.0000E+00  0.0000E+00
     -2.040  0.0000E+00  0.0000E+00
     -1.969  0.0000E+00  0.0000E+00
     -1.898  0.0000E+00  0.0000E+00
     -1.827  0.0000E+00  0.0000E+00
     -1.757  0.0000E+00  0.0000E+00
     -1.686  0.1860E-19  0.1316E-20
     -1.615  0.4099E-16  0.2901E-17
     -1.545  0.3764E-13  0.2665E-14
     -1.474  0.1338E-10  0.9490E-12
     -1.403  0.1895E-08  0.1350E-09
     -1.332  0.1116E-06  0.8027E-08
     -1.262  0.2878E-05  0.2116E-06
     -1.191  0.3434E-04  0.2641E-05
     -1.120  0.1984E-03  0.1667E-04
     -1.049  0.5908E-03  0.5847E-04
     -0.979  0.1069E-02  0.1341E-03
     -0.908  0.1539E-02  0.2430E-03
     -0.837  0.1905E-02  0.3777E-03
     -0.766  0.2104E-02  0.5265E-03
     -0.696  0.2376E-02  0.6946E-03
     -0.625  0.2756E-02  0.8896E-03
     -0.554  0.3057E-02  0.1106E-02
     -0.483  0.3141E-02  0.1328E-02
     -0.413  0.3141E-02  0.1550E-02
     -0.342  0.3583E-02  0.1804E-02
     -0.271  0.4185E-02  0.2100E-02
     -0.200  0.4283E-02  0.2403E-02
     -0.130  0.4288E-02  0.2706E-02
     -0.059  0.4324E-02  0.3012E-02
      0.012  0.4705E-02  0.3345E-02
      0.082  0.5197E-02  0.3712E-02
      0.153  0.5748E-02  0.4119E-02
      0.224  0.6142E-02  0.4553E-02
      0.295  0.6181E-02  0.4991E-02
      0.365  0.6204E-02  0.5429E-02
      0.436  0.6358E-02  0.5879E-02
      0.507  0.7225E-02  0.6390E-02
      0.578  0.8566E-02  0.6996E-02
      0.648  0.9461E-02  0.7665E-02
      0.719  0.1017E-01  0.8385E-02
      0.790  0.1143E-01  0.9194E-02
      0.861  0.1295E-01  0.1011E-01
      0.931  0.1553E-01  0.1121E-01
      1.002  0.1997E-01  0.1262E-01
      1.073  0.2491E-01  0.1438E-01
      1.144  0.2781E-01  0.1635E-01
      1.214  0.2848E-01  0.1836E-01
      1.285  0.2768E-01  0.2032E-01
      1.356  0.2796E-01  0.2230E-01
      1.426  0.3028E-01  0.2444E-01
      1.497  0.3311E-01  0.2678E-01
      1.568  0.3592E-01  0.2933E-01
      1.639  0.3974E-01  0.3214E-01
      1.709  0.4400E-01  0.3525E-01
      1.780  0.4980E-01  0.3877E-01
      1.851  0.6016E-01  0.4303E-01
      1.922  0.7079E-01  0.4803E-01
      1.992  0.7470E-01  0.5332E-01
      2.063  0.7400E-01  0.5855E-01
      2.134  0.7444E-01  0.6382E-01
      2.205  0.7625E-01  0.6921E-01
      2.275  0.7772E-01  0.7471E-01
      2.346  0.7945E-01  0.8033E-01
      2.417  0.8127E-01  0.8608E-01
      2.488  0.8280E-01  0.9194E-01
      2.558  0.8707E-01  0.9810E-01
      2.629  0.9687E-01  0.1049E+00
      2.700  0.1094E+00  0.1127E+00
      2.771  0.1178E+00  0.1210E+00
      2.841  0.1178E+00  0.1294E+00
      2.912  0.1101E+00  0.1371E+00
      2.983  0.9873E-01  0.1441E+00
      3.053  0.8876E-01  0.1504E+00
      3.124  0.8255E-01  0.1562E+00
      3.195  0.7933E-01  0.1619E+00
      3.266  0.7949E-01  0.1675E+00
      3.336  0.8229E-01  0.1733E+00
      3.407  0.8381E-01  0.1792E+00
      3.478  0.8690E-01  0.1854E+00
      3.549  0.8992E-01  0.1917E+00
      3.619  0.8669E-01  0.1979E+00
      3.690  0.8021E-01  0.2035E+00
      3.761  0.7697E-01  0.2090E+00
      3.832  0.7625E-01  0.2144E+00
      3.902  0.7566E-01  0.2197E+00
      3.973  0.7859E-01  0.2253E+00
      4.044  0.8497E-01  0.2313E+00
      4.115  0.8924E-01  0.2376E+00
      4.185  0.9061E-01  0.2440E+00
      4.256  0.9323E-01  0.2506E+00
      4.327  0.1005E+00  0.2577E+00
      4.398  0.1101E+00  0.2655E+00
      4.468  0.1165E+00  0.2738E+00
      4.539  0.1184E+00  0.2821E+00
      4.610  0.1164E+00  0.2904E+00
      4.680  0.1132E+00  0.2984E+00
      4.751  0.1086E+00  0.3061E+00
      4.822  0.1014E+00  0.3132E+00
      4.893  0.9557E-01  0.3200E+00
      4.963  0.9532E-01  0.3267E+00
      5.034  0.1001E+00  0.3338E+00
      5.105  0.1030E+00  0.3411E+00
      5.176  0.1017E+00  0.3483E+00
      5.246  0.1042E+00  0.3557E+00
      5.317  0.1122E+00  0.3636E+00
      5.388  0.1203E+00  0.3721E+00
      5.459  0.1219E+00  0.3807E+00
      5.529  0.1119E+00  0.3886E+00
      5.600  0.9523E-01  0.3954E+00
      5.671  0.8270E-01  0.4012E+00
      5.742  0.7509E-01  0.4065E+00
      5.812  0.6594E-01  0.4112E+00
      5.883  0.5401E-01  0.4150E+00
      5.954  0.4196E-01  0.4180E+00
      6.024  0.3117E-01  0.4202E+00
      6.095  0.2293E-01  0.4218E+00
      6.166  0.1878E-01  0.4232E+00
      6.237  0.1694E-01  0.4244E+00
      6.307  0.1472E-01  0.4254E+00
      6.378  0.1128E-01  0.4262E+00
      6.449  0.9496E-02  0.4269E+00
      6.520  0.1131E-01  0.4277E+00
      6.590  0.1430E-01  0.4287E+00
      6.661  0.1521E-01  0.4298E+00
      6.732  0.1326E-01  0.4307E+00
      6.803  0.1070E-01  0.4314E+00
      6.873  0.9635E-02  0.4321E+00
      6.944  0.1062E-01  0.4329E+00
      7.015  0.1238E-01  0.4338E+00
      7.086  0.1289E-01  0.4347E+00
      7.156  0.1222E-01  0.4355E+00
      7.227  0.1138E-01  0.4363E+00
      7.298  0.1080E-01  0.4371E+00
      7.369  0.1145E-01  0.4379E+00
      7.439  0.1303E-01  0.4388E+00
      7.510  0.1377E-01  0.4398E+00
      7.581  0.1305E-01  0.4407E+00
      7.651  0.1168E-01  0.4416E+00
      7.722  0.1077E-01  0.4423E+00
      7.793  0.1062E-01  0.4431E+00
      7.864  0.1078E-01  0.4438E+00
      7.934  0.1161E-01  0.4447E+00
      8.005  0.1277E-01  0.4456E+00
      8.076  0.1310E-01  0.4465E+00
      8.147  0.1278E-01  0.4474E+00
      8.217  0.1221E-01  0.4482E+00
      8.288  0.1210E-01  0.4491E+00
      8.359  0.1274E-01  0.4500E+00
      8.430  0.1306E-01  0.4509E+00
      8.500  0.1229E-01  0.4518E+00
      8.571  0.1150E-01  0.4526E+00
      8.642  0.1102E-01  0.4534E+00
      8.713  0.1106E-01  0.4542E+00
      8.783  0.1160E-01  0.4550E+00
      8.854  0.1222E-01  0.4559E+00
      8.925  0.1301E-01  0.4568E+00
      8.996  0.1368E-01  0.4577E+00
      9.066  0.1463E-01  0.4588E+00
      9.137  0.1583E-01  0.4599E+00
      9.208  0.1573E-01  0.4610E+00
      9.278  0.1428E-01  0.4620E+00
      9.349  0.1323E-01  0.4630E+00
      9.420  0.1368E-01  0.4639E+00
      9.491  0.1408E-01  0.4649E+00
      9.561  0.1420E-01  0.4659E+00
      9.632  0.1400E-01  0.4669E+00
      9.703  0.1272E-01  0.4678E+00
      9.774  0.1203E-01  0.4687E+00
      9.844  0.1198E-01  0.4695E+00
      9.915  0.1221E-01  0.4704E+00
      9.986  0.1271E-01  0.4713E+00
     10.057  0.1207E-01  0.4721E+00
     10.127  0.1045E-01  0.4729E+00
     10.198  0.9594E-02  0.4736E+00
     10.269  0.1053E-01  0.4743E+00
     10.340  0.1210E-01  0.4752E+00
     10.410  0.1218E-01  0.4760E+00
     10.481  0.1045E-01  0.4768E+00
     10.552  0.9187E-02  0.4774E+00
     10.622  0.9966E-02  0.4781E+00
     10.693  0.1160E-01  0.4789E+00
     10.764  0.1221E-01  0.4798E+00
     10.835  0.1154E-01  0.4806E+00
     10.905  0.9911E-02  0.4813E+00
     10.976  0.8615E-02  0.4819E+00
     11.047  0.9333E-02  0.4826E+00
     11.118  0.1053E-01  0.4833E+00
     11.188  0.1146E-01  0.4841E+00
     11.259  0.1262E-01  0.4850E+00
     11.330  0.1292E-01  0.4859E+00
     11.401  0.1341E-01  0.4869E+00
     11.471  0.1408E-01  0.4879E+00
     11.542  0.1285E-01  0.4888E+00
     11.613  0.1161E-01  0.4896E+00
     11.684  0.1203E-01  0.4905E+00
     11.754  0.1312E-01  0.4914E+00
     11.825  0.1338E-01  0.4923E+00
     11.896  0.1262E-01  0.4932E+00
     11.967  0.1131E-01  0.4940E+00
     12.037  0.1046E-01  0.4948E+00
     12.108  0.1094E-01  0.4956E+00
     12.179  0.1153E-01  0.4964E+00
     12.249  0.1109E-01  0.4972E+00
     12.320  0.1100E-01  0.4979E+00
     12.391  0.1196E-01  0.4988E+00
     12.462  0.1266E-01  0.4997E+00
     12.532  0.1291E-01  0.5006E+00
     12.603  0.1333E-01  0.5015E+00
     12.674  0.1438E-01  0.5025E+00
     12.745  0.1517E-01  0.5036E+00
     12.815  0.1490E-01  0.5047E+00
     12.886  0.1496E-01  0.5057E+00
     12.957  0.1522E-01  0.5068E+00
     13.028  0.1519E-01  0.5079E+00
     13.098  0.1528E-01  0.5090E+00
     13.169  0.1468E-01  0.5100E+00
     13.240  0.1476E-01  0.5110E+00
     13.311  0.1625E-01  0.5122E+00
     13.381  0.1659E-01  0.5134E+00
     13.452  0.1457E-01  0.5144E+00
     13.523  0.1270E-01  0.5153E+00
     13.593  0.1270E-01  0.5162E+00
     13.664  0.1365E-01  0.5172E+00
     13.735  0.1358E-01  0.5181E+00
     13.806  0.1215E-01  0.5190E+00
     13.876  0.1196E-01  0.5198E+00
     13.947  0.1291E-01  0.5207E+00
     14.018  0.1224E-01  0.5216E+00
     14.089  0.1102E-01  0.5224E+00
     14.159  0.1159E-01  0.5232E+00
     14.230  0.1234E-01  0.5241E+00
     14.301  0.1161E-01  0.5249E+00
     14.372  0.1038E-01  0.5256E+00
     14.442  0.9691E-02  0.5263E+00
     14.513  0.9398E-02  0.5270E+00
     14.584  0.9802E-02  0.5277E+00
     14.655  0.1088E-01  0.5284E+00
     14.725  0.1159E-01  0.5293E+00
     14.796  0.1095E-01  0.5300E+00
     14.867  0.9641E-02  0.5307E+00
     14.938  0.1070E-01  0.5315E+00
     15.008  0.1287E-01  0.5324E+00
     15.079  0.1284E-01  0.5333E+00
     15.150  0.1048E-01  0.5340E+00
     15.220  0.8719E-02  0.5347E+00
     15.291  0.8654E-02  0.5353E+00
     15.362  0.7934E-02  0.5358E+00
     15.433  0.6322E-02  0.5363E+00
     15.503  0.4941E-02  0.5366E+00
     15.574  0.4370E-02  0.5369E+00
     15.645  0.4969E-02  0.5373E+00
     15.716  0.5608E-02  0.5377E+00
     15.786  0.5180E-02  0.5381E+00
     15.857  0.3956E-02  0.5383E+00
     15.928  0.2774E-02  0.5385E+00
     15.999  0.1947E-02  0.5387E+00
     16.069  0.1461E-02  0.5388E+00
     16.140  0.1127E-02  0.5389E+00
     16.211  0.1166E-02  0.5389E+00
     16.282  0.1555E-02  0.5390E+00
     16.352  0.1701E-02  0.5392E+00
     16.423  0.1533E-02  0.5393E+00
     16.494  0.1198E-02  0.5394E+00
     16.565  0.6816E-03  0.5394E+00
     16.635  0.4009E-03  0.5394E+00
     16.706  0.3606E-03  0.5395E+00
     16.777  0.3527E-03  0.5395E+00
     16.847  0.3549E-03  0.5395E+00
     16.918  0.3839E-03  0.5395E+00
     16.989  0.5301E-03  0.5396E+00
     17.060  0.8831E-03  0.5396E+00
     17.130  0.1200E-02  0.5397E+00
     17.201  0.9657E-03  0.5398E+00
     17.272  0.4624E-03  0.5398E+00
     17.343  0.1495E-03  0.5398E+00
     17.413  0.3005E-04  0.5398E+00
     17.484  0.4199E-05  0.5398E+00
     17.555  0.1570E-04  0.5398E+00
     17.626  0.8187E-04  0.5398E+00
     17.696  0.1948E-03  0.5399E+00
     17.767  0.2478E-03  0.5399E+00
     17.838  0.2908E-03  0.5399E+00
     17.909  0.4347E-03  0.5399E+00
     17.979  0.4241E-03  0.5400E+00
     18.050  0.2766E-03  0.5400E+00
     18.121  0.2143E-03  0.5400E+00
     18.191  0.1255E-03  0.5400E+00
     18.262  0.3417E-04  0.5400E+00
     18.333  0.3915E-05  0.5400E+00
     18.404  0.1840E-06  0.5400E+00
     18.474  0.3477E-08  0.5400E+00
     18.545  0.2588E-10  0.5400E+00
     18.616  0.7455E-13  0.5400E+00
     18.687  0.8199E-16  0.5400E+00
     18.757  0.3720E-19  0.5400E+00
     18.828  0.0000E+00  0.5400E+00
     18.899  0.0000E+00  0.5400E+00
     18.970  0.0000E+00  0.5400E+00
     19.040  0.0000E+00  0.5400E+00
     19.111  0.0000E+00  0.5400E+00
