       N       E                     dE             d eps       ncg     rms          rms(c)
DAV:   1     0.268891159425E+03    0.26889E+03   -0.22366E+04 91953   0.150E+03
DAV:   2    -0.842513715128E+01   -0.27732E+03   -0.26893E+03105939   0.320E+02
DAV:   3    -0.134564767016E+02   -0.50313E+01   -0.49971E+01102294   0.450E+01
DAV:   4    -0.134872830747E+02   -0.30806E-01   -0.30794E-01103761   0.369E+00
DAV:   5    -0.134876083977E+02   -0.32532E-03   -0.32530E-03107730   0.390E-01    0.136E+01
RMM:   6    -0.125127174317E+02    0.97489E+00   -0.27093E+00 91152   0.106E+01    0.921E+00
RMM:   7    -0.124668794586E+02    0.45838E-01   -0.23734E-01 91220   0.296E+00    0.472E+00
RMM:   8    -0.124602562035E+02    0.66233E-02   -0.96342E-03 91188   0.640E-01    0.456E-01
RMM:   9    -0.124601471350E+02    0.10907E-03   -0.30907E-04 91261   0.986E-02    0.378E-02
RMM:  10    -0.124601671132E+02   -0.19978E-04   -0.27204E-05 91187   0.394E-02    0.212E-02
RMM:  11    -0.124601680386E+02   -0.92538E-06   -0.80782E-07 50662   0.451E-03
   1 F= -.12460168E+02 E0= -.12456813E+02  d E =-.124602E+02
