   4   4   0   0
  0.1731744E+02  0.4106904E-09  0.4106904E-09  0.4106904E-09  0.2000000E-15
  1.000000000000000E-004
  CAR 
 unknown system                          
     19.70792152     -1.47805520  301      9.24718139      1.00000000
     -1.478  0.0000E+00  0.0000E+00
     -1.407  0.0000E+00  0.0000E+00
     -1.337  0.0000E+00  0.0000E+00
     -1.266  0.0000E+00  0.0000E+00
     -1.196  0.0000E+00  0.0000E+00
     -1.125  0.0000E+00  0.0000E+00
     -1.054  0.1397E-19  0.9869E-21
     -0.984  0.3694E-16  0.2610E-17
     -0.913  0.3353E-13  0.2371E-14
     -0.842  0.1174E-10  0.8318E-12
     -0.772  0.1631E-08  0.1160E-09
     -0.701  0.9371E-07  0.6734E-08
     -0.631  0.2360E-05  0.1734E-06
     -0.560  0.2784E-04  0.2139E-05
     -0.489  0.1631E-03  0.1366E-04
     -0.419  0.5011E-03  0.4905E-04
     -0.348  0.8990E-03  0.1125E-03
     -0.278  0.1258E-02  0.2014E-03
     -0.207  0.1692E-02  0.3209E-03
     -0.136  0.1807E-02  0.4485E-03
     -0.066  0.1848E-02  0.5790E-03
      0.005  0.2357E-02  0.7455E-03
      0.076  0.2638E-02  0.9318E-03
      0.146  0.2667E-02  0.1120E-02
      0.217  0.2828E-02  0.1320E-02
      0.287  0.2696E-02  0.1510E-02
      0.358  0.3051E-02  0.1726E-02
      0.429  0.3814E-02  0.1995E-02
      0.499  0.4031E-02  0.2280E-02
      0.570  0.3832E-02  0.2550E-02
      0.641  0.3191E-02  0.2776E-02
      0.711  0.3539E-02  0.3026E-02
      0.782  0.4861E-02  0.3369E-02
      0.852  0.5285E-02  0.3742E-02
      0.923  0.4944E-02  0.4091E-02
      0.994  0.4591E-02  0.4415E-02
      1.064  0.4925E-02  0.4763E-02
      1.135  0.5536E-02  0.5154E-02
      1.206  0.5650E-02  0.5553E-02
      1.276  0.5696E-02  0.5955E-02
      1.347  0.6281E-02  0.6399E-02
      1.417  0.7607E-02  0.6936E-02
      1.488  0.7744E-02  0.7483E-02
      1.559  0.7096E-02  0.7984E-02
      1.629  0.6833E-02  0.8467E-02
      1.700  0.7450E-02  0.8993E-02
      1.770  0.9978E-02  0.9698E-02
      1.841  0.1214E-01  0.1056E-01
      1.912  0.1154E-01  0.1137E-01
      1.982  0.1240E-01  0.1225E-01
      2.053  0.1827E-01  0.1354E-01
      2.124  0.2413E-01  0.1524E-01
      2.194  0.2695E-01  0.1714E-01
      2.265  0.2769E-01  0.1910E-01
      2.335  0.2930E-01  0.2117E-01
      2.406  0.3560E-01  0.2368E-01
      2.477  0.4266E-01  0.2669E-01
      2.547  0.4779E-01  0.3007E-01
      2.618  0.5306E-01  0.3382E-01
      2.689  0.6039E-01  0.3808E-01
      2.759  0.6862E-01  0.4293E-01
      2.830  0.7420E-01  0.4817E-01
      2.900  0.7620E-01  0.5355E-01
      2.971  0.7534E-01  0.5887E-01
      3.042  0.7488E-01  0.6416E-01
      3.112  0.7197E-01  0.6924E-01
      3.183  0.6713E-01  0.7398E-01
      3.253  0.6786E-01  0.7877E-01
      3.324  0.6720E-01  0.8352E-01
      3.395  0.6327E-01  0.8799E-01
      3.465  0.6106E-01  0.9230E-01
      3.536  0.5461E-01  0.9616E-01
      3.607  0.4909E-01  0.9962E-01
      3.677  0.5200E-01  0.1033E+00
      3.748  0.5684E-01  0.1073E+00
      3.818  0.6231E-01  0.1117E+00
      3.889  0.6926E-01  0.1166E+00
      3.960  0.7563E-01  0.1219E+00
      4.030  0.7907E-01  0.1275E+00
      4.101  0.8111E-01  0.1333E+00
      4.172  0.7861E-01  0.1388E+00
      4.242  0.7778E-01  0.1443E+00
      4.313  0.8222E-01  0.1501E+00
      4.383  0.8513E-01  0.1561E+00
      4.454  0.8453E-01  0.1621E+00
      4.525  0.8392E-01  0.1680E+00
      4.595  0.8790E-01  0.1742E+00
      4.666  0.9709E-01  0.1811E+00
      4.736  0.1098E+00  0.1888E+00
      4.807  0.1207E+00  0.1974E+00
      4.878  0.1293E+00  0.2065E+00
      4.948  0.1316E+00  0.2158E+00
      5.019  0.1158E+00  0.2240E+00
      5.090  0.9411E-01  0.2306E+00
      5.160  0.8323E-01  0.2365E+00
      5.231  0.7534E-01  0.2418E+00
      5.301  0.6979E-01  0.2467E+00
      5.372  0.6776E-01  0.2515E+00
      5.443  0.6564E-01  0.2562E+00
      5.513  0.6492E-01  0.2607E+00
      5.584  0.6709E-01  0.2655E+00
      5.655  0.7271E-01  0.2706E+00
      5.725  0.8133E-01  0.2764E+00
      5.796  0.8362E-01  0.2823E+00
      5.866  0.8220E-01  0.2881E+00
      5.937  0.8669E-01  0.2942E+00
      6.008  0.9044E-01  0.3006E+00
      6.078  0.8548E-01  0.3066E+00
      6.149  0.7685E-01  0.3120E+00
      6.220  0.7487E-01  0.3173E+00
      6.290  0.7651E-01  0.3227E+00
      6.361  0.7338E-01  0.3279E+00
      6.431  0.6623E-01  0.3326E+00
      6.502  0.6137E-01  0.3369E+00
      6.573  0.6430E-01  0.3415E+00
      6.643  0.7001E-01  0.3464E+00
      6.714  0.7159E-01  0.3515E+00
      6.784  0.6720E-01  0.3562E+00
      6.855  0.7033E-01  0.3612E+00
      6.926  0.8002E-01  0.3668E+00
      6.996  0.8375E-01  0.3727E+00
      7.067  0.9165E-01  0.3792E+00
      7.138  0.1129E+00  0.3872E+00
      7.208  0.1234E+00  0.3959E+00
      7.279  0.1079E+00  0.4035E+00
      7.349  0.8438E-01  0.4095E+00
      7.420  0.6114E-01  0.4138E+00
      7.491  0.4645E-01  0.4171E+00
      7.561  0.4052E-01  0.4199E+00
      7.632  0.2961E-01  0.4220E+00
      7.703  0.1459E-01  0.4231E+00
      7.773  0.6756E-02  0.4235E+00
      7.844  0.5980E-02  0.4240E+00
      7.914  0.8648E-02  0.4246E+00
      7.985  0.1372E-01  0.4255E+00
      8.056  0.1654E-01  0.4267E+00
      8.126  0.1353E-01  0.4277E+00
      8.197  0.8992E-02  0.4283E+00
      8.267  0.8109E-02  0.4289E+00
      8.338  0.1020E-01  0.4296E+00
      8.409  0.1246E-01  0.4305E+00
      8.479  0.1341E-01  0.4314E+00
      8.550  0.1343E-01  0.4324E+00
      8.621  0.1207E-01  0.4332E+00
      8.691  0.1005E-01  0.4339E+00
      8.762  0.8994E-02  0.4346E+00
      8.832  0.9526E-02  0.4352E+00
      8.903  0.1216E-01  0.4361E+00
      8.974  0.1410E-01  0.4371E+00
      9.044  0.1362E-01  0.4380E+00
      9.115  0.1138E-01  0.4388E+00
      9.186  0.9011E-02  0.4395E+00
      9.256  0.8391E-02  0.4401E+00
      9.327  0.9877E-02  0.4408E+00
      9.397  0.1261E-01  0.4417E+00
      9.468  0.1440E-01  0.4427E+00
      9.539  0.1498E-01  0.4437E+00
      9.609  0.1378E-01  0.4447E+00
      9.680  0.9492E-02  0.4454E+00
      9.751  0.6182E-02  0.4458E+00
      9.821  0.7624E-02  0.4464E+00
      9.892  0.1095E-01  0.4471E+00
      9.962  0.1252E-01  0.4480E+00
     10.033  0.1256E-01  0.4489E+00
     10.104  0.1307E-01  0.4498E+00
     10.174  0.1338E-01  0.4508E+00
     10.245  0.1130E-01  0.4516E+00
     10.315  0.9990E-02  0.4523E+00
     10.386  0.1087E-01  0.4530E+00
     10.457  0.1099E-01  0.4538E+00
     10.527  0.1080E-01  0.4546E+00
     10.598  0.1048E-01  0.4553E+00
     10.669  0.9712E-02  0.4560E+00
     10.739  0.1094E-01  0.4568E+00
     10.810  0.1253E-01  0.4577E+00
     10.880  0.1166E-01  0.4585E+00
     10.951  0.1021E-01  0.4592E+00
     11.022  0.9345E-02  0.4599E+00
     11.092  0.9305E-02  0.4605E+00
     11.163  0.1026E-01  0.4613E+00
     11.234  0.1232E-01  0.4621E+00
     11.304  0.1299E-01  0.4630E+00
     11.375  0.1060E-01  0.4638E+00
     11.445  0.9236E-02  0.4644E+00
     11.516  0.8559E-02  0.4650E+00
     11.587  0.7224E-02  0.4656E+00
     11.657  0.8568E-02  0.4662E+00
     11.728  0.1169E-01  0.4670E+00
     11.798  0.1244E-01  0.4679E+00
     11.869  0.1010E-01  0.4686E+00
     11.940  0.7946E-02  0.4691E+00
     12.010  0.7375E-02  0.4697E+00
     12.081  0.9169E-02  0.4703E+00
     12.152  0.1425E-01  0.4713E+00
     12.222  0.2114E-01  0.4728E+00
     12.293  0.2287E-01  0.4744E+00
     12.363  0.1754E-01  0.4757E+00
     12.434  0.1220E-01  0.4765E+00
     12.505  0.1127E-01  0.4773E+00
     12.575  0.1437E-01  0.4783E+00
     12.646  0.1666E-01  0.4795E+00
     12.717  0.1570E-01  0.4806E+00
     12.787  0.1447E-01  0.4816E+00
     12.858  0.1318E-01  0.4826E+00
     12.928  0.9284E-02  0.4832E+00
     12.999  0.7116E-02  0.4837E+00
     13.070  0.1004E-01  0.4844E+00
     13.140  0.1260E-01  0.4853E+00
     13.211  0.1155E-01  0.4861E+00
     13.282  0.1120E-01  0.4869E+00
     13.352  0.1318E-01  0.4879E+00
     13.423  0.1179E-01  0.4887E+00
     13.493  0.8763E-02  0.4893E+00
     13.564  0.7891E-02  0.4899E+00
     13.635  0.8140E-02  0.4904E+00
     13.705  0.1018E-01  0.4912E+00
     13.776  0.1319E-01  0.4921E+00
     13.846  0.1431E-01  0.4931E+00
     13.917  0.1334E-01  0.4941E+00
     13.988  0.1158E-01  0.4949E+00
     14.058  0.1033E-01  0.4956E+00
     14.129  0.1238E-01  0.4965E+00
     14.200  0.1453E-01  0.4975E+00
     14.270  0.1653E-01  0.4987E+00
     14.341  0.1580E-01  0.4998E+00
     14.411  0.1124E-01  0.5006E+00
     14.482  0.8559E-02  0.5012E+00
     14.553  0.1041E-01  0.5019E+00
     14.623  0.1454E-01  0.5029E+00
     14.694  0.1568E-01  0.5040E+00
     14.765  0.1558E-01  0.5051E+00
     14.835  0.1683E-01  0.5063E+00
     14.906  0.1799E-01  0.5076E+00
     14.976  0.1619E-01  0.5088E+00
     15.047  0.1395E-01  0.5097E+00
     15.118  0.1217E-01  0.5106E+00
     15.188  0.9280E-02  0.5113E+00
     15.259  0.8039E-02  0.5118E+00
     15.329  0.9863E-02  0.5125E+00
     15.400  0.1280E-01  0.5134E+00
     15.471  0.1467E-01  0.5145E+00
     15.541  0.1210E-01  0.5153E+00
     15.612  0.8166E-02  0.5159E+00
     15.683  0.7479E-02  0.5164E+00
     15.753  0.7973E-02  0.5170E+00
     15.824  0.9458E-02  0.5176E+00
     15.894  0.1151E-01  0.5185E+00
     15.965  0.1296E-01  0.5194E+00
     16.036  0.1246E-01  0.5203E+00
     16.106  0.1105E-01  0.5210E+00
     16.177  0.9042E-02  0.5217E+00
     16.248  0.8526E-02  0.5223E+00
     16.318  0.1089E-01  0.5230E+00
     16.389  0.1405E-01  0.5240E+00
     16.459  0.1574E-01  0.5251E+00
     16.530  0.1196E-01  0.5260E+00
     16.601  0.7307E-02  0.5265E+00
     16.671  0.8119E-02  0.5271E+00
     16.742  0.1079E-01  0.5278E+00
     16.813  0.1031E-01  0.5286E+00
     16.883  0.8053E-02  0.5291E+00
     16.954  0.8391E-02  0.5297E+00
     17.024  0.1293E-01  0.5306E+00
     17.095  0.1686E-01  0.5318E+00
     17.166  0.1462E-01  0.5329E+00
     17.236  0.9878E-02  0.5336E+00
     17.307  0.8871E-02  0.5342E+00
     17.377  0.8867E-02  0.5348E+00
     17.448  0.7211E-02  0.5353E+00
     17.519  0.6124E-02  0.5358E+00
     17.589  0.6626E-02  0.5362E+00
     17.660  0.8950E-02  0.5369E+00
     17.731  0.9398E-02  0.5375E+00
     17.801  0.5916E-02  0.5379E+00
     17.872  0.2832E-02  0.5381E+00
     17.942  0.1922E-02  0.5383E+00
     18.013  0.2212E-02  0.5384E+00
     18.084  0.2514E-02  0.5386E+00
     18.154  0.2649E-02  0.5388E+00
     18.225  0.3085E-02  0.5390E+00
     18.296  0.3259E-02  0.5392E+00
     18.366  0.2800E-02  0.5394E+00
     18.437  0.2215E-02  0.5396E+00
     18.507  0.1459E-02  0.5397E+00
     18.578  0.1222E-02  0.5398E+00
     18.649  0.1533E-02  0.5399E+00
     18.719  0.1061E-02  0.5400E+00
     18.790  0.3272E-03  0.5400E+00
     18.860  0.4839E-04  0.5400E+00
     18.931  0.3796E-05  0.5400E+00
     19.002  0.1545E-06  0.5400E+00
     19.072  0.2867E-08  0.5400E+00
     19.143  0.2179E-10  0.5400E+00
     19.214  0.6441E-13  0.5400E+00
     19.284  0.7229E-16  0.5400E+00
     19.355  0.3726E-19  0.5400E+00
     19.425  0.0000E+00  0.5400E+00
     19.496  0.0000E+00  0.5400E+00
     19.567  0.0000E+00  0.5400E+00
     19.637  0.0000E+00  0.5400E+00
     19.708  0.0000E+00  0.5400E+00
