 running on   24 total cores
 distrk:  each k-point on   24 cores,    1 groups
 distr:  one band on    8 cores,    3 groups
 using from now: INCAR     
 vasp.5.4.4.18Apr17-6-g9f103f2a35 (build Jan 14 2019 14:48:31) complex          
  
 POSCAR found type information on POSCAR  Au
 POSCAR found :  1 types and       4 ions
 scaLAPACK will be used
 LDA part: xc-table for Pade appr. of Perdew
 POSCAR found type information on POSCAR  Au
 POSCAR found :  1 types and       4 ions
 POSCAR, INCAR and KPOINTS ok, starting setup
 FFT: planning ...
 WAVECAR not read
 entering main loop
       N       E                     dE             d eps       ncg     rms          rms(c)
DAV:   1     0.276934447022E+03    0.27693E+03   -0.22703E+04 91962   0.153E+03
DAV:   2    -0.893956087485E+01   -0.28587E+03   -0.27819E+03105417   0.331E+02
DAV:   3    -0.138785183704E+02   -0.49390E+01   -0.49082E+01101700   0.459E+01
DAV:   4    -0.139066407953E+02   -0.28122E-01   -0.28110E-01105057   0.356E+00
DAV:   5    -0.139068952198E+02   -0.25442E-03   -0.25442E-03106749   0.356E-01    0.179E+01
RMM:   6    -0.129230425780E+02    0.98385E+00   -0.24557E+00 91152   0.104E+01    0.114E+01
RMM:   7    -0.128537978656E+02    0.69245E-01   -0.36614E-01 91196   0.385E+00    0.482E+00
RMM:   8    -0.128438340945E+02    0.99638E-02   -0.20182E-02 91200   0.934E-01    0.563E-01
RMM:   9    -0.128437213471E+02    0.11275E-03   -0.22093E-04 91196   0.837E-02    0.441E-02
RMM:  10    -0.128437332751E+02   -0.11928E-04   -0.14849E-05 90646   0.307E-02    0.388E-02
RMM:  11    -0.128437357376E+02   -0.24625E-05   -0.59699E-07 50147   0.462E-03    0.792E-04
RMM:  12    -0.128437356688E+02    0.68723E-07   -0.11344E-07 40827   0.219E-03
   1 F= -.12843736E+02 E0= -.12841584E+02  d E =-.128437E+02
 curvature:   0.00 expect dE= 0.000E+00 dE for cont linesearch  0.000E+00
 trial: gam= 0.00000 g(F)=  0.159E-13 g(S)=  0.000E+00 ort = 0.000E+00 (trialstep = 0.100E+01)
 search vector abs. value=  0.100E-09
 reached required accuracy - stopping structural energy minimisation
