   2   2   0   0
  0.7989563E+02  0.2475548E-09  0.2461296E-09  0.3028239E-08  0.5000000E-15
  1.000000000000000E-004
  CAR 
 unknown system                          
     18.28517786    -24.58533032  301     -3.56091860      1.00000000
    -24.585  0.0000E+00  0.0000E+00
    -24.442  0.0000E+00  0.0000E+00
    -24.300  0.0000E+00  0.0000E+00
    -24.157  0.0000E+00  0.0000E+00
    -24.014  0.0000E+00  0.0000E+00
    -23.871  0.0000E+00  0.0000E+00
    -23.728  0.0000E+00  0.0000E+00
    -23.585  0.0000E+00  0.0000E+00
    -23.442  0.0000E+00  0.0000E+00
    -23.299  0.0000E+00  0.0000E+00
    -23.156  0.0000E+00  0.0000E+00
    -23.013  0.0000E+00  0.0000E+00
    -22.871  0.3636E-13  0.5197E-14
    -22.728  0.9826E-05  0.1404E-05
    -22.585  0.2184E-02  0.3135E-03
    -22.442  0.1994E-02  0.5985E-03
    -22.299  0.4778E-02  0.1281E-02
    -22.156  0.2304E-02  0.1610E-02
    -22.013  0.2341E-02  0.1945E-02
    -21.870  0.3539E-02  0.2451E-02
    -21.727  0.4271E-02  0.3061E-02
    -21.584  0.2731E-02  0.3451E-02
    -21.441  0.2099E-02  0.3751E-02
    -21.299  0.2907E-02  0.4167E-02
    -21.156  0.2947E-02  0.4588E-02
    -21.013  0.4861E-02  0.5282E-02
    -20.870  0.3699E-02  0.5811E-02
    -20.727  0.1256E-02  0.5990E-02
    -20.584  0.4727E-02  0.6666E-02
    -20.441  0.1725E-03  0.6691E-02
    -20.298  0.3727E-02  0.7223E-02
    -20.155  0.5077E-02  0.7949E-02
    -20.012  0.3470E-02  0.8445E-02
    -19.870  0.3109E-02  0.8889E-02
    -19.727  0.2749E-02  0.9282E-02
    -19.584  0.3175E-02  0.9736E-02
    -19.441  0.4523E-02  0.1038E-01
    -19.298  0.1216E-02  0.1056E-01
    -19.155  0.3948E-04  0.1056E-01
    -19.012  0.6878E-02  0.1154E-01
    -18.869  0.5329E-02  0.1231E-01
    -18.726  0.3239E-02  0.1277E-01
    -18.583  0.2476E-02  0.1312E-01
    -18.441  0.1567E-02  0.1335E-01
    -18.298  0.5750E-02  0.1417E-01
    -18.155  0.2073E-02  0.1446E-01
    -18.012  0.3644E-02  0.1498E-01
    -17.869  0.2034E-02  0.1528E-01
    -17.726  0.1593E-02  0.1550E-01
    -17.583  0.7908E-02  0.1663E-01
    -17.440  0.6693E-02  0.1759E-01
    -17.297  0.4641E-02  0.1825E-01
    -17.154  0.5640E-03  0.1833E-01
    -17.012  0.1375E-02  0.1853E-01
    -16.869  0.4328E-02  0.1915E-01
    -16.726  0.1290E-03  0.1917E-01
    -16.583  0.3559E-04  0.1917E-01
    -16.440  0.1998E-02  0.1946E-01
    -16.297  0.3633E-02  0.1998E-01
    -16.154  0.5563E-02  0.2077E-01
    -16.011  0.1900E-02  0.2104E-01
    -15.868  0.2852E-02  0.2145E-01
    -15.725  0.1561E-02  0.2167E-01
    -15.583  0.5329E-02  0.2243E-01
    -15.440  0.4177E-02  0.2303E-01
    -15.297  0.7686E-02  0.2413E-01
    -15.154  0.3130E-02  0.2458E-01
    -15.011  0.1013E-02  0.2472E-01
    -14.868  0.3111E-02  0.2517E-01
    -14.725  0.6579E-02  0.2611E-01
    -14.582  0.2904E-04  0.2611E-01
    -14.439  0.1158E-02  0.2628E-01
    -14.296  0.6440E-02  0.2720E-01
    -14.154  0.3953E-02  0.2776E-01
    -14.011  0.1986E-02  0.2805E-01
    -13.868  0.3284E-02  0.2851E-01
    -13.725  0.7412E-03  0.2862E-01
    -13.582  0.3170E-02  0.2907E-01
    -13.439  0.3524E-02  0.2958E-01
    -13.296  0.4369E-02  0.3020E-01
    -13.153  0.7417E-02  0.3126E-01
    -13.010  0.2839E-02  0.3167E-01
    -12.867  0.1730E-02  0.3191E-01
    -12.724  0.3318E-02  0.3239E-01
    -12.582  0.3043E-02  0.3282E-01
    -12.439  0.2006E-02  0.3311E-01
    -12.296  0.2640E-02  0.3349E-01
    -12.153  0.8097E-02  0.3464E-01
    -12.010  0.5395E-02  0.3542E-01
    -11.867  0.1875E-02  0.3568E-01
    -11.724  0.6791E-02  0.3665E-01
    -11.581  0.2034E-02  0.3694E-01
    -11.438  0.2463E-02  0.3730E-01
    -11.295  0.5285E-02  0.3805E-01
    -11.153  0.5137E-02  0.3879E-01
    -11.010  0.3930E-02  0.3935E-01
    -10.867  0.4165E-02  0.3994E-01
    -10.724  0.3104E-02  0.4039E-01
    -10.581  0.1053E-01  0.4189E-01
    -10.438  0.5895E-02  0.4273E-01
    -10.295  0.6452E-02  0.4365E-01
    -10.152  0.1144E-01  0.4529E-01
    -10.009  0.9505E-02  0.4665E-01
     -9.866  0.6735E-02  0.4761E-01
     -9.724  0.1089E-01  0.4917E-01
     -9.581  0.6572E-02  0.5011E-01
     -9.438  0.1453E-01  0.5218E-01
     -9.295  0.8843E-02  0.5345E-01
     -9.152  0.6679E-02  0.5440E-01
     -9.009  0.5541E-02  0.5519E-01
     -8.866  0.1240E-01  0.5696E-01
     -8.723  0.6184E-02  0.5785E-01
     -8.580  0.1082E-01  0.5939E-01
     -8.437  0.5784E-02  0.6022E-01
     -8.295  0.3949E-02  0.6078E-01
     -8.152  0.3152E-02  0.6123E-01
     -8.009  0.8679E-02  0.6247E-01
     -7.866  0.3842E-02  0.6302E-01
     -7.723  0.1016E-01  0.6447E-01
     -7.580  0.8989E-02  0.6576E-01
     -7.437  0.1246E-02  0.6594E-01
     -7.294  0.6675E-02  0.6689E-01
     -7.151  0.7030E-02  0.6790E-01
     -7.008  0.4987E-02  0.6861E-01
     -6.866  0.2825E-02  0.6901E-01
     -6.723  0.4800E-02  0.6970E-01
     -6.580  0.7086E-02  0.7071E-01
     -6.437  0.8136E-02  0.7187E-01
     -6.294  0.5893E-02  0.7272E-01
     -6.151  0.4268E-02  0.7333E-01
     -6.008  0.2067E-02  0.7362E-01
     -5.865  0.4473E-02  0.7426E-01
     -5.722  0.5293E-02  0.7502E-01
     -5.579  0.3202E-02  0.7547E-01
     -5.437  0.2589E-02  0.7584E-01
     -5.294  0.3115E-02  0.7629E-01
     -5.151  0.1206E-01  0.7801E-01
     -5.008  0.2252E-02  0.7833E-01
     -4.865  0.8517E-07  0.7833E-01
     -4.722  0.6770E-03  0.7843E-01
     -4.579  0.3154E-02  0.7888E-01
     -4.436  0.1683E-02  0.7912E-01
     -4.293  0.3218E-03  0.7917E-01
     -4.150  0.1723E-02  0.7941E-01
     -4.007  0.2163E-03  0.7944E-01
     -3.865  0.1441E-02  0.7965E-01
     -3.722  0.2433E-02  0.8000E-01
     -3.579  0.1312E-04  0.8000E-01
     -3.436  0.7190E-13  0.8000E-01
     -3.293  0.0000E+00  0.8000E-01
     -3.150  0.0000E+00  0.8000E-01
     -3.007  0.0000E+00  0.8000E-01
     -2.864  0.0000E+00  0.8000E-01
     -2.721  0.3459E-09  0.8000E-01
     -2.578  0.2940E-03  0.8004E-01
     -2.436  0.3436E-02  0.8053E-01
     -2.293  0.2042E-03  0.8056E-01
     -2.150  0.1859E-02  0.8083E-01
     -2.007  0.3842E-04  0.8083E-01
     -1.864  0.2288E-02  0.8116E-01
     -1.721  0.3540E-02  0.8167E-01
     -1.578  0.3937E-03  0.8172E-01
     -1.435  0.7592E-02  0.8281E-01
     -1.292  0.6436E-02  0.8373E-01
     -1.149  0.7111E-02  0.8474E-01
     -1.007  0.1989E-02  0.8503E-01
     -0.864  0.4773E-02  0.8571E-01
     -0.721  0.2807E-02  0.8611E-01
     -0.578  0.3046E-05  0.8611E-01
     -0.435  0.4867E-02  0.8681E-01
     -0.292  0.2907E-02  0.8722E-01
     -0.149  0.2483E-04  0.8723E-01
     -0.006  0.3726E-02  0.8776E-01
      0.137  0.4465E-02  0.8840E-01
      0.280  0.5346E-02  0.8916E-01
      0.422  0.2983E-02  0.8959E-01
      0.565  0.7300E-02  0.9063E-01
      0.708  0.3366E-02  0.9111E-01
      0.851  0.3272E-02  0.9158E-01
      0.994  0.6094E-02  0.9245E-01
      1.137  0.6314E-02  0.9335E-01
      1.280  0.1273E-01  0.9517E-01
      1.423  0.6932E-02  0.9616E-01
      1.566  0.9847E-02  0.9757E-01
      1.709  0.1293E-01  0.9942E-01
      1.851  0.1193E-01  0.1011E+00
      1.994  0.1047E-01  0.1026E+00
      2.137  0.1404E-01  0.1046E+00
      2.280  0.2038E-01  0.1075E+00
      2.423  0.1431E-01  0.1096E+00
      2.566  0.1224E-01  0.1113E+00
      2.709  0.1729E-01  0.1138E+00
      2.852  0.1718E-01  0.1163E+00
      2.995  0.1653E-01  0.1186E+00
      3.138  0.1574E-01  0.1209E+00
      3.280  0.1696E-01  0.1233E+00
      3.423  0.1490E-01  0.1254E+00
      3.566  0.2020E-01  0.1283E+00
      3.709  0.2336E-01  0.1316E+00
      3.852  0.1853E-01  0.1343E+00
      3.995  0.2092E-01  0.1373E+00
      4.138  0.2180E-01  0.1404E+00
      4.281  0.2476E-01  0.1439E+00
      4.424  0.2720E-01  0.1478E+00
      4.567  0.2210E-01  0.1510E+00
      4.710  0.3595E-01  0.1561E+00
      4.852  0.1633E-01  0.1585E+00
      4.995  0.3333E-01  0.1632E+00
      5.138  0.3100E-01  0.1676E+00
      5.281  0.4423E-01  0.1740E+00
      5.424  0.2731E-01  0.1779E+00
      5.567  0.2533E-01  0.1815E+00
      5.710  0.3426E-01  0.1864E+00
      5.853  0.3111E-01  0.1908E+00
      5.996  0.3559E-01  0.1959E+00
      6.139  0.3292E-01  0.2006E+00
      6.281  0.3548E-01  0.2057E+00
      6.424  0.2627E-01  0.2094E+00
      6.567  0.1806E-01  0.2120E+00
      6.710  0.3733E-01  0.2174E+00
      6.853  0.3204E-01  0.2219E+00
      6.996  0.2496E-01  0.2255E+00
      7.139  0.3408E-01  0.2304E+00
      7.282  0.2756E-01  0.2343E+00
      7.425  0.3739E-01  0.2397E+00
      7.568  0.3512E-01  0.2447E+00
      7.710  0.3936E-01  0.2503E+00
      7.853  0.3910E-01  0.2559E+00
      7.996  0.3216E-01  0.2605E+00
      8.139  0.3828E-01  0.2660E+00
      8.282  0.2822E-01  0.2700E+00
      8.425  0.3436E-01  0.2749E+00
      8.568  0.2563E-01  0.2786E+00
      8.711  0.3074E-01  0.2829E+00
      8.854  0.3504E-01  0.2880E+00
      8.997  0.3557E-01  0.2930E+00
      9.139  0.4644E-01  0.2997E+00
      9.282  0.4036E-01  0.3054E+00
      9.425  0.2863E-01  0.3095E+00
      9.568  0.3268E-01  0.3142E+00
      9.711  0.3708E-01  0.3195E+00
      9.854  0.4438E-01  0.3258E+00
      9.997  0.3830E-01  0.3313E+00
     10.140  0.5021E-01  0.3385E+00
     10.283  0.3245E-01  0.3431E+00
     10.426  0.4141E-01  0.3490E+00
     10.568  0.2474E-01  0.3526E+00
     10.711  0.4043E-01  0.3584E+00
     10.854  0.3651E-01  0.3636E+00
     10.997  0.4047E-01  0.3694E+00
     11.140  0.5847E-01  0.3777E+00
     11.283  0.3269E-01  0.3824E+00
     11.426  0.3693E-01  0.3877E+00
     11.569  0.3521E-01  0.3927E+00
     11.712  0.3485E-01  0.3977E+00
     11.855  0.3025E-01  0.4020E+00
     11.998  0.3539E-01  0.4071E+00
     12.140  0.4838E-01  0.4140E+00
     12.283  0.2527E-01  0.4176E+00
     12.426  0.3531E-01  0.4226E+00
     12.569  0.4379E-01  0.4289E+00
     12.712  0.4760E-01  0.4357E+00
     12.855  0.2438E-01  0.4392E+00
     12.998  0.3212E-01  0.4438E+00
     13.141  0.2533E-01  0.4474E+00
     13.284  0.2736E-01  0.4513E+00
     13.427  0.2866E-01  0.4554E+00
     13.569  0.2338E-01  0.4587E+00
     13.712  0.2531E-01  0.4623E+00
     13.855  0.2140E-01  0.4654E+00
     13.998  0.2492E-01  0.4690E+00
     14.141  0.1746E-01  0.4715E+00
     14.284  0.1144E-01  0.4731E+00
     14.427  0.1487E-01  0.4752E+00
     14.570  0.4922E-02  0.4759E+00
     14.713  0.5313E-02  0.4767E+00
     14.856  0.4690E-02  0.4773E+00
     14.998  0.6052E-02  0.4782E+00
     15.141  0.2801E-02  0.4786E+00
     15.284  0.1852E-02  0.4789E+00
     15.427  0.7077E-04  0.4789E+00
     15.570  0.8363E-10  0.4789E+00
     15.713  0.1804E-03  0.4789E+00
     15.856  0.1757E-02  0.4792E+00
     15.999  0.2379E-02  0.4795E+00
     16.142  0.1514E-02  0.4797E+00
     16.285  0.1377E-03  0.4797E+00
     16.427  0.1796E-02  0.4800E+00
     16.570  0.9825E-05  0.4800E+00
     16.713  0.3636E-13  0.4800E+00
     16.856  0.0000E+00  0.4800E+00
     16.999  0.0000E+00  0.4800E+00
     17.142  0.0000E+00  0.4800E+00
     17.285  0.0000E+00  0.4800E+00
     17.428  0.0000E+00  0.4800E+00
     17.571  0.0000E+00  0.4800E+00
     17.714  0.0000E+00  0.4800E+00
     17.856  0.0000E+00  0.4800E+00
     17.999  0.0000E+00  0.4800E+00
     18.142  0.0000E+00  0.4800E+00
     18.285  0.0000E+00  0.4800E+00
