 vasp.5.4.4.18Apr17-6-g9f103f2a35 (build Jan 14 2019 14:48:31) complex          
  
 executed on             LinuxIFC date 2019.09.10  15:54:33
 running on   24 total cores
 distrk:  each k-point on   24 cores,    1 groups
 distr:  one band on NCORES_PER_BAND=   1 cores,   24 groups


--------------------------------------------------------------------------------------------------------


 INCAR:
 POTCAR:    PAW_PBE C_h 06Feb2004                 

 ----------------------------------------------------------------------------- 
|                                                                             |
|           W    W    AA    RRRRR   N    N  II  N    N   GGGG   !!!           |
|           W    W   A  A   R    R  NN   N  II  NN   N  G    G  !!!           |
|           W    W  A    A  R    R  N N  N  II  N N  N  G       !!!           |
|           W WW W  AAAAAA  RRRRR   N  N N  II  N  N N  G  GGG   !            |
|           WW  WW  A    A  R   R   N   NN  II  N   NN  G    G                |
|           W    W  A    A  R    R  N    N  II  N    N   GGGG   !!!           |
|                                                                             |
|      For optimal performance we recommend to set                            |
|        NCORE= 4 - approx SQRT( number of cores)                             |
|      NCORE specifies how many cores store one orbital (NPAR=cpu/NCORE).     |
|      This setting can  greatly improve the performance of VASP for DFT.     |
|      The default,   NCORE=1            might be grossly inefficient         |
|      on modern multi-core architectures or massively parallel machines.     |
|      Do your own testing !!!!                                               |
|      Unfortunately you need to use the default for GW and RPA calculations. |
|      (for HF NCORE is supported but not extensively tested yet)             |
|                                                                             |
 ----------------------------------------------------------------------------- 

 POTCAR:    PAW_PBE C_h 06Feb2004                 
   VRHFIN =C: s2p2                                                              
   LEXCH  = PE                                                                  
   EATOM  =   147.1560 eV,   10.8157 Ry                                         
                                                                                
   TITEL  = PAW_PBE C_h 06Feb2004                                               
   LULTRA =        F    use ultrasoft PP ?                                      
   IUNSCR =        1    unscreen: 0-lin 1-nonlin 2-no                           
   RPACOR =    0.800    partial core radius                                     
   POMASS =   12.011; ZVAL   =    4.000    mass and valenz                      
   RCORE  =    1.100    outmost cutoff radius                                   
   RWIGS  =    1.630; RWIGS  =    0.863    wigner-seitz radius (au A)           
   ENMAX  =  700.000; ENMIN  =  500.000 eV                                      
   ICORE  =        2    local potential                                         
   LCOR   =        T    correct aug charges                                     
   LPAW   =        T    paw PP                                                  
   EAUG   =  946.768                                                            
   DEXC   =    0.000                                                            
   RMAX   =    1.128    core radius for proj-oper                               
   RAUG   =    1.300    factor for augmentation sphere                          
   RDEP   =    1.162    radius for radial grids                                 
   RDEPT  =    1.088    core radius for aug-charge                              
                                                                                
   Atomic configuration                                                         
    4 entries                                                                   
     n  l   j            E        occ.                                          
     1  0  0.50      -273.3789   2.0000                                         
     2  0  0.50       -13.7508   2.0000                                         
     2  1  0.50        -5.2854   2.0000                                         
     3  2  1.50        -5.4423   0.0000                                         
   Description                                                                  
     l       E           TYP  RCUT    TYP  RCUT                                 
     0    -13.7508458     23  1.100                                             
     0     -8.2022199     23  1.100                                             
     1     -5.2854383     23  1.100                                             
     1      1.1560700     23  1.100                                             
     2     -5.4423304      7  1.100                                             
  local pseudopotential read in
  partial core-charges read in
  partial kinetic energy density read in
  atomic valenz-charges read in
  non local Contribution for L=           0  read in
    real space projection operators read in
  non local Contribution for L=           0  read in
    real space projection operators read in
  non local Contribution for L=           1  read in
    real space projection operators read in
  non local Contribution for L=           1  read in
    real space projection operators read in
    PAW grid and wavefunctions read in
 
   number of l-projection  operators is LMAX  =           4
   number of lm-projection operators is LMMAX =           8
 
  PAW_PBE C_h 06Feb2004                 :
 energy of atom  1       EATOM= -147.1560
 kinetic energy error for atom=    0.0044 (will be added to EATOM!!)
 
 
 POSCAR: graphene                                
  positions in direct lattice
  velocities in cartesian coordinates
 exchange correlation table for  LEXCH =        8
   RHO(1)=    0.500       N(1)  =     2000
   RHO(2)=  100.500       N(2)  =     4000

 VTST: version 3.1, (03/28/14)

 CHAIN: initializing optimizer
 
 OPT: Using VASP Conjugate-Gradient optimizer
 CHAIN: Read ICHAIN            0
 
 POSCAR: graphene                                
  positions in direct lattice
  velocities in cartesian coordinates
 


--------------------------------------------------------------------------------------------------------


 ion  position               nearest neighbor table
   1  0.000  1.000  0.500-   2 1.42   2 1.43   2 1.43
   2  0.667  0.333  0.500-   1 1.42   1 1.43   1 1.43
 
  Warning from LATTYP: Monoclinic adjustement (A1->A3, A2->A1, A3->A2)!
  Warning from LATTYP: Got some problem with cell dimensions!
  Tried to take original basis but could not verify dimensions!
  LATTYP: Found a simple monoclinic cell.
 ALAT       =     4.2630847087
 B/A-ratio  =     7.1033994893
 C/A-ratio  =     1.5287913399
 COS(beta)  =    -0.9817999074
  
  Lattice vectors:
  
 A1 = (  -3.6954950205,  -2.1253723879,   0.0000000000)
 A2 = (   0.0000000000,   0.0000000000, -30.2823937426)
 A3 = (   6.1639088440,   2.1171443418,   0.0000000000)


Analysis of symmetry for initial positions (statically):
=====================================================================
 Subroutine PRICEL returns:
 Original cell was already a primitive cell.
 

 Routine SETGRP: Setting up the symmetry group for a 
 simple monoclinic supercell.


 Subroutine GETGRP returns: Found  4 space group operations
 (whereof  2 operations were pure point group operations)
 out of a pool of  4 trial point group operations.


The static configuration has the point symmetry C_1h.
 The point group associated with its full space group is C_2h.


Analysis of symmetry for dynamics (positions and initial velocities):
=====================================================================
 Subroutine PRICEL returns:
 Original cell was already a primitive cell.
 

 Routine SETGRP: Setting up the symmetry group for a 
 simple monoclinic supercell.


 Subroutine GETGRP returns: Found  4 space group operations
 (whereof  2 operations were pure point group operations)
 out of a pool of  4 trial point group operations.


The dynamic configuration has the point symmetry C_1h.
 The point group associated with its full space group is C_2h.


 Subroutine INISYM returns: Found  4 space group operations
 (whereof  2 operations are pure point group operations),
 and found     1 'primitive' translations

 
 
 KPOINTS: K-Mesh Generated with KP-Resolved Value 

Automatic generation of k-mesh.
Space group operators:
 irot       det(A)        alpha          n_x          n_y          n_z        tau_x        tau_y        tau_z
    1     1.000000     0.000000     1.000000     0.000000     0.000000     0.000000     0.000000     0.000000
    2    -1.000000   180.000000     0.000000     0.000000     1.000000     0.000000     0.000000     0.000000
    3    -1.000000     0.000000     1.000000     0.000000     0.000000    -0.333330    -0.666670     0.000000
    4     1.000000   180.000000     0.000000     0.000000     1.000000    -0.333330    -0.666670     0.000000
 
 Subroutine IBZKPT returns following result:
 ===========================================
 
 Found     72 irreducible k-points:
 
 Following reciprocal coordinates:
            Coordinates               Weight
  0.041667  0.041667  0.000000      2.000000
  0.125000  0.041667  0.000000      2.000000
  0.208333  0.041667  0.000000      2.000000
  0.291667  0.041667  0.000000      2.000000
  0.375000  0.041667  0.000000      2.000000
  0.458333  0.041667  0.000000      2.000000
 -0.458333  0.041667  0.000000      2.000000
 -0.375000  0.041667  0.000000      2.000000
 -0.291667  0.041667  0.000000      2.000000
 -0.208333  0.041667  0.000000      2.000000
 -0.125000  0.041667  0.000000      2.000000
 -0.041667  0.041667  0.000000      2.000000
  0.041667  0.125000  0.000000      2.000000
  0.125000  0.125000  0.000000      2.000000
  0.208333  0.125000  0.000000      2.000000
  0.291667  0.125000  0.000000      2.000000
  0.375000  0.125000  0.000000      2.000000
  0.458333  0.125000  0.000000      2.000000
 -0.458333  0.125000  0.000000      2.000000
 -0.375000  0.125000  0.000000      2.000000
 -0.291667  0.125000  0.000000      2.000000
 -0.208333  0.125000  0.000000      2.000000
 -0.125000  0.125000  0.000000      2.000000
 -0.041667  0.125000  0.000000      2.000000
  0.041667  0.208333  0.000000      2.000000
  0.125000  0.208333  0.000000      2.000000
  0.208333  0.208333  0.000000      2.000000
  0.291667  0.208333  0.000000      2.000000
  0.375000  0.208333  0.000000      2.000000
  0.458333  0.208333  0.000000      2.000000
 -0.458333  0.208333  0.000000      2.000000
 -0.375000  0.208333  0.000000      2.000000
 -0.291667  0.208333  0.000000      2.000000
 -0.208333  0.208333  0.000000      2.000000
 -0.125000  0.208333  0.000000      2.000000
 -0.041667  0.208333  0.000000      2.000000
  0.041667  0.291667  0.000000      2.000000
  0.125000  0.291667  0.000000      2.000000
  0.208333  0.291667  0.000000      2.000000
  0.291667  0.291667  0.000000      2.000000
  0.375000  0.291667  0.000000      2.000000
  0.458333  0.291667  0.000000      2.000000
 -0.458333  0.291667  0.000000      2.000000
 -0.375000  0.291667  0.000000      2.000000
 -0.291667  0.291667  0.000000      2.000000
 -0.208333  0.291667  0.000000      2.000000
 -0.125000  0.291667  0.000000      2.000000
 -0.041667  0.291667  0.000000      2.000000
  0.041667  0.375000  0.000000      2.000000
  0.125000  0.375000  0.000000      2.000000
  0.208333  0.375000  0.000000      2.000000
  0.291667  0.375000  0.000000      2.000000
  0.375000  0.375000  0.000000      2.000000
  0.458333  0.375000  0.000000      2.000000
 -0.458333  0.375000  0.000000      2.000000
 -0.375000  0.375000  0.000000      2.000000
 -0.291667  0.375000  0.000000      2.000000
 -0.208333  0.375000  0.000000      2.000000
 -0.125000  0.375000  0.000000      2.000000
 -0.041667  0.375000  0.000000      2.000000
  0.041667  0.458333  0.000000      2.000000
  0.125000  0.458333  0.000000      2.000000
  0.208333  0.458333  0.000000      2.000000
  0.291667  0.458333  0.000000      2.000000
  0.375000  0.458333  0.000000      2.000000
  0.458333  0.458333  0.000000      2.000000
 -0.458333  0.458333  0.000000      2.000000
 -0.375000  0.458333  0.000000      2.000000
 -0.291667  0.458333  0.000000      2.000000
 -0.208333  0.458333  0.000000      2.000000
 -0.125000  0.458333  0.000000      2.000000
 -0.041667  0.458333  0.000000      2.000000
 
 Following cartesian coordinates:
            Coordinates               Weight
  0.083050  0.000277  0.000000      2.000000
  0.165941 -0.047395  0.000000      2.000000
  0.248831 -0.095067  0.000000      2.000000
  0.331721 -0.142739  0.000000      2.000000
  0.414612 -0.190412  0.000000      2.000000
  0.497502 -0.238084  0.000000      2.000000
 -0.414292  0.286309  0.000000      2.000000
 -0.331402  0.238637  0.000000      2.000000
 -0.248511  0.190965  0.000000      2.000000
 -0.165621  0.143293  0.000000      2.000000
 -0.082731  0.095621  0.000000      2.000000
  0.000160  0.047949  0.000000      2.000000
  0.166260  0.048503  0.000000      2.000000
  0.249151  0.000831  0.000000      2.000000
  0.332041 -0.046842  0.000000      2.000000
  0.414931 -0.094514  0.000000      2.000000
  0.497822 -0.142186  0.000000      2.000000
  0.580712 -0.189858  0.000000      2.000000
 -0.331082  0.334535  0.000000      2.000000
 -0.248192  0.286863  0.000000      2.000000
 -0.165301  0.239191  0.000000      2.000000
 -0.082411  0.191519  0.000000      2.000000
  0.000479  0.143847  0.000000      2.000000
  0.083370  0.096175  0.000000      2.000000
  0.249470  0.096728  0.000000      2.000000
  0.332361  0.049056  0.000000      2.000000
  0.415251  0.001384  0.000000      2.000000
  0.498141 -0.046288  0.000000      2.000000
  0.581032 -0.093960  0.000000      2.000000
  0.663922 -0.141632  0.000000      2.000000
 -0.247872  0.382761  0.000000      2.000000
 -0.164982  0.335089  0.000000      2.000000
 -0.082091  0.287417  0.000000      2.000000
  0.000799  0.239745  0.000000      2.000000
  0.083690  0.192073  0.000000      2.000000
  0.166580  0.144400  0.000000      2.000000
  0.332680  0.144954  0.000000      2.000000
  0.415571  0.097282  0.000000      2.000000
  0.498461  0.049610  0.000000      2.000000
  0.581351  0.001938  0.000000      2.000000
  0.664242 -0.045734  0.000000      2.000000
  0.747132 -0.093406  0.000000      2.000000
 -0.164662  0.430987  0.000000      2.000000
 -0.081772  0.383315  0.000000      2.000000
  0.001119  0.335643  0.000000      2.000000
  0.084009  0.287970  0.000000      2.000000
  0.166900  0.240298  0.000000      2.000000
  0.249790  0.192626  0.000000      2.000000
  0.415890  0.193180  0.000000      2.000000
  0.498781  0.145508  0.000000      2.000000
  0.581671  0.097836  0.000000      2.000000
  0.664561  0.050164  0.000000      2.000000
  0.747452  0.002492  0.000000      2.000000
  0.830342 -0.045181  0.000000      2.000000
 -0.081452  0.479213  0.000000      2.000000
  0.001438  0.431540  0.000000      2.000000
  0.084329  0.383868  0.000000      2.000000
  0.167219  0.336196  0.000000      2.000000
  0.250110  0.288524  0.000000      2.000000
  0.333000  0.240852  0.000000      2.000000
  0.499100  0.241406  0.000000      2.000000
  0.581991  0.193734  0.000000      2.000000
  0.664881  0.146061  0.000000      2.000000
  0.747772  0.098389  0.000000      2.000000
  0.830662  0.050717  0.000000      2.000000
  0.913552  0.003045  0.000000      2.000000
  0.001758  0.527438  0.000000      2.000000
  0.084649  0.479766  0.000000      2.000000
  0.167539  0.432094  0.000000      2.000000
  0.250429  0.384422  0.000000      2.000000
  0.333320  0.336750  0.000000      2.000000
  0.416210  0.289078  0.000000      2.000000
 


--------------------------------------------------------------------------------------------------------




 Dimension of arrays:
   k-points           NKPTS =     72   k-points in BZ     NKDIM =     72   number of bands    NBANDS=     24
   number of dos      NEDOS =    301   number of ions     NIONS =      2
   non local maximal  LDIM  =      4   non local SUM 2l+1 LMDIM =      8
   total plane-waves  NPLWV = 169344
   max r-space proj   IRMAX =      1   max aug-charges    IRDMAX=   2710
   dimension x,y,z NGX =    24 NGY =   24 NGZ =  294
   dimension x,y,z NGXF=    36 NGYF=   32 NGZF=  420
   support grid    NGXF=    36 NGYF=   32 NGZF=  420
   ions per type =               2
   NGX,Y,Z   is equivalent  to a cutoff of  16.12, 16.21, 16.14 a.u.
   NGXF,Y,Z  is equivalent  to a cutoff of  24.18, 21.61, 23.06 a.u.

 SYSTEM =  unknown system                          
 POSCAR =  graphene                                

 Startparameter for this run:
   NWRITE =      2    write-flag & timer
   PREC   = high      normal or accurate (medium, high low for compatibility)
   ISTART =      0    job   : 0-new  1-cont  2-samecut
   ICHARG =      2    charge: 1-file 2-atom 10-const
   ISPIN  =      1    spin polarized calculation?
   LNONCOLLINEAR =      F non collinear calculations
   LSORBIT =      F    spin-orbit coupling
   INIWAV =      1    electr: 0-lowe 1-rand  2-diag
   LASPH  =      F    aspherical Exc in radial PAW
   METAGGA=      F    non-selfconsistent MetaGGA calc.

 Electronic Relaxation 1
   ENCUT  =  875.0 eV  64.31 Ry    8.02 a.u.   5.97  5.94 73.04*2*pi/ulx,y,z
   ENINI  =  875.0     initial cutoff
   ENAUG  =  946.8 eV  augmentation charge cutoff
   NELM   =     40;   NELMIN=  2; NELMDL=  0     # of ELM steps 
   EDIFF  = 0.1E-06   stopping-criterion for ELM
   LREAL  =      F    real-space projection
   NLSPLINE    = F    spline interpolate recip. space projectors
   LCOMPAT=      F    compatible to vasp.4.4
   GGA_COMPAT  = T    GGA compatible to vasp.4.4-vasp.4.6
   LMAXPAW     = -100 max onsite density
   LMAXMIX     =    2 max onsite mixed and CHGCAR
   VOSKOWN=      0    Vosko Wilk Nusair interpolation
   ROPT   =    0.00000
 Ionic relaxation
   EDIFFG = -.1E-01   stopping-criterion for IOM
   NSW    =    100    number of steps for IOM
   NBLOCK =      1;   KBLOCK =    100    inner block; outer block 
   IBRION =      2    ionic relax: 0-MD 1-quasi-New 2-CG
   NFREE  =      1    steps in history (QN), initial steepest desc. (CG)
   ISIF   =      2    stress and relaxation
   IWAVPR =     11    prediction:  0-non 1-charg 2-wave 3-comb
   ISYM   =      2    0-nonsym 1-usesym 2-fastsym
   LCORR  =      T    Harris-Foulkes like correction to forces

   POTIM  = 0.5000    time-step for ionic-motion
   TEIN   =    0.0    initial temperature
   TEBEG  =    0.0;   TEEND  =   0.0 temperature during run
   SMASS  =  -3.00    Nose mass-parameter (am)
   estimated Nose-frequenzy (Omega)   =  0.10E-29 period in steps =****** mass=  -0.140E-27a.u.
   SCALEE = 1.0000    scale energy and forces
   NPACO  =    256;   APACO  = 16.0  distance and # of slots for P.C.
   PSTRESS=    0.0 pullay stress

  Mass of Ions in am
   POMASS =  12.01
  Ionic Valenz
   ZVAL   =   4.00
  Atomic Wigner-Seitz radii
   RWIGS  =  -1.00
  virtual crystal weights 
   VCA    =   1.00
   NELECT =       8.0000    total number of electrons
   NUPDOWN=      -1.0000    fix difference up-down

 DOS related values:
   EMIN   =  10.00;   EMAX   =-10.00  energy-range for DOS
   EFERMI =   0.00
   ISMEAR =     0;   SIGMA  =   0.05  broadening in eV -4-tet -1-fermi 0-gaus

 Electronic relaxation 2 (details)
   IALGO  =     48    algorithm
   LDIAG  =      T    sub-space diagonalisation (order eigenvalues)
   LSUBROT=      F    optimize rotation matrix (better conditioning)
   TURBO    =      0    0=normal 1=particle mesh
   IRESTART =      0    0=no restart 2=restart with 2 vectors
   NREBOOT  =      0    no. of reboots
   NMIN     =      0    reboot dimension
   EREF     =   0.00    reference energy to select bands
   IMIX   =      4    mixing-type and parameters
     AMIX     =   0.40;   BMIX     =  1.00
     AMIX_MAG =   1.60;   BMIX_MAG =  1.00
     AMIN     =   0.10
     WC   =   100.;   INIMIX=   1;  MIXPRE=   1;  MAXMIX= -45

 Intra band minimization:
   WEIMIN = 0.0010     energy-eigenvalue tresh-hold
   EBREAK =  0.10E-08  absolut break condition
   DEPER  =   0.30     relativ break condition  

   TIME   =   0.40     timestep for ELM

  volume/ion in A,a.u.               =      79.90       539.16
  Fermi-wavevector in a.u.,A,eV,Ry     =   0.603375  1.140213  4.953352  0.364061
  Thomas-Fermi vector in A             =   1.656332
 
 Write flags
   LWAVE        =      F    write WAVECAR
   LDOWNSAMPLE  =      F    k-point downsampling of WAVECAR
   LCHARG       =      F    write CHGCAR
   LVTOT        =      F    write LOCPOT, total local potential
   LVHAR        =      F    write LOCPOT, Hartree potential only
   LELF         =      F    write electronic localiz. function (ELF)
   LORBIT       =      0    0 simple, 1 ext, 2 COOP (PROOUT), +10 PAW based schemes


 Dipole corrections
   LMONO  =      F    monopole corrections only (constant potential shift)
   LDIPOL =      F    correct potential (dipole corrections)
   IDIPOL =      0    1-x, 2-y, 3-z, 4-all directions 
   EPSILON=  1.0000000 bulk dielectric constant

 Exchange correlation treatment:
   GGA     =    --    GGA type
   LEXCH   =     8    internal setting for exchange type
   VOSKOWN=      0    Vosko Wilk Nusair interpolation
   LHFCALC =     F    Hartree Fock is set to
   LHFONE  =     F    Hartree Fock one center treatment
   AEXX    =    0.0000 exact exchange contribution

 Linear response parameters
   LEPSILON=     F    determine dielectric tensor
   LRPA    =     F    only Hartree local field effects (RPA)
   LNABLA  =     F    use nabla operator in PAW spheres
   LVEL    =     F    velocity operator in full k-point grid
   LINTERFAST=   F  fast interpolation
   KINTER  =     0    interpolate to denser k-point grid
   CSHIFT  =0.1000    complex shift for real part using Kramers Kronig
   OMEGAMAX=  -1.0    maximum frequency
   DEG_THRESHOLD= 0.2000000E-02 threshold for treating states as degnerate
   RTIME   =   -0.100 relaxation time in fs
  (WPLASMAI=    0.000 imaginary part of plasma frequency in eV, 0.658/RTIME)
   DFIELD  = 0.0000000 0.0000000 0.0000000 field for delta impulse in time
 
 Orbital magnetization related:
   ORBITALMAG=     F  switch on orbital magnetization
   LCHIMAG   =     F  perturbation theory with respect to B field
   DQ        =  0.001000  dq finite difference perturbation B field
   LLRAUG    =     F  two centre corrections for induced B field



--------------------------------------------------------------------------------------------------------


 conjugate gradient relaxation of ions
 charge density and potential will be updated during run
 non-spin polarized calculation
 RMM-DIIS sequential band-by-band
 perform sub-space diagonalisation
    before iterative eigenvector-optimisation
 modified Broyden-mixing scheme, WC =      100.0
 initial mixing is a Kerker type mixing with AMIX =  0.4000 and BMIX =      1.0000
 Hartree-type preconditioning will be used
 using additional bands           20
 reciprocal scheme for non local part
 use partial core corrections
 calculate Harris-corrections to forces 
   (improved forces if not selfconsistent)
 use gradient corrections 
 use of overlap-Matrix (Vanderbilt PP)
 Gauss-broadening in eV      SIGMA  =   0.05


--------------------------------------------------------------------------------------------------------


  energy-cutoff  :      875.00
  volume of cell :      159.79
      direct lattice vectors                 reciprocal lattice vectors
     1.241332627 -2.141828480  0.000000000     0.404343301 -0.232546851  0.000000000
     1.227081197  2.133600434  0.000000000     0.405902616  0.235247671  0.000000000
     0.000000000  0.000000000 30.282393743     0.000000000  0.000000000  0.033022489

  length of vectors
     2.475547602  2.461296219 30.282393743     0.466445648  0.469146459  0.033022489


 
 k-points in units of 2pi/SCALE and weight: K-Mesh Generated with KP-Resolved Value 
   0.08305021  0.00027683  0.00000000       0.014
   0.16594058 -0.04739527  0.00000000       0.014
   0.24883096 -0.09506737  0.00000000       0.014
   0.33172134 -0.14273948  0.00000000       0.014
   0.41461171 -0.19041158  0.00000000       0.014
   0.49750209 -0.23808369  0.00000000       0.014
  -0.41429205  0.28630946  0.00000000       0.014
  -0.33140168  0.23863736  0.00000000       0.014
  -0.24851130  0.19096525  0.00000000       0.014
  -0.16562092  0.14329315  0.00000000       0.014
  -0.08273055  0.09562104  0.00000000       0.014
   0.00015983  0.04794894  0.00000000       0.014
   0.16626024  0.04850261  0.00000000       0.014
   0.24915062  0.00083050  0.00000000       0.014
   0.33204100 -0.04684160  0.00000000       0.014
   0.41493137 -0.09451371  0.00000000       0.014
   0.49782175 -0.14218581  0.00000000       0.014
   0.58071213 -0.18985792  0.00000000       0.014
  -0.33108202  0.33453523  0.00000000       0.014
  -0.24819164  0.28686313  0.00000000       0.014
  -0.16530126  0.23919102  0.00000000       0.014
  -0.08241089  0.19151892  0.00000000       0.014
   0.00047949  0.14384682  0.00000000       0.014
   0.08336987  0.09617471  0.00000000       0.014
   0.24947028  0.09672838  0.00000000       0.014
   0.33236066  0.04905627  0.00000000       0.014
   0.41525103  0.00138417  0.00000000       0.014
   0.49814141 -0.04628793  0.00000000       0.014
   0.58103179 -0.09396004  0.00000000       0.014
   0.66392216 -0.14163214  0.00000000       0.014
  -0.24787198  0.38276101  0.00000000       0.014
  -0.16498160  0.33508890  0.00000000       0.014
  -0.08209123  0.28741680  0.00000000       0.014
   0.00079915  0.23974469  0.00000000       0.014
   0.08368953  0.19207259  0.00000000       0.014
   0.16657990  0.14440048  0.00000000       0.014
   0.33268032  0.14495415  0.00000000       0.014
   0.41557069  0.09728205  0.00000000       0.014
   0.49846107  0.04960994  0.00000000       0.014
   0.58135145  0.00193784  0.00000000       0.014
   0.66424182 -0.04573427  0.00000000       0.014
   0.74713220 -0.09340637  0.00000000       0.014
  -0.16466194  0.43098678  0.00000000       0.014
  -0.08177157  0.38331467  0.00000000       0.014
   0.00111881  0.33564257  0.00000000       0.014
   0.08400919  0.28797046  0.00000000       0.014
   0.16689956  0.24029836  0.00000000       0.014
   0.24978994  0.19262626  0.00000000       0.014
   0.41589035  0.19317992  0.00000000       0.014
   0.49878073  0.14550782  0.00000000       0.014
   0.58167111  0.09783572  0.00000000       0.014
   0.66456148  0.05016361  0.00000000       0.014
   0.74745186  0.00249151  0.00000000       0.014
   0.83034224 -0.04518060  0.00000000       0.014
  -0.08145191  0.47921255  0.00000000       0.014
   0.00143847  0.43154045  0.00000000       0.014
   0.08432884  0.38386834  0.00000000       0.014
   0.16721922  0.33619624  0.00000000       0.014
   0.25010960  0.28852413  0.00000000       0.014
   0.33299998  0.24085203  0.00000000       0.014
   0.49910039  0.24140570  0.00000000       0.014
   0.58199076  0.19373359  0.00000000       0.014
   0.66488114  0.14606149  0.00000000       0.014
   0.74777152  0.09838938  0.00000000       0.014
   0.83066189  0.05071728  0.00000000       0.014
   0.91355227  0.00304517  0.00000000       0.014
   0.00175813  0.52743832  0.00000000       0.014
   0.08464850  0.47976622  0.00000000       0.014
   0.16753888  0.43209411  0.00000000       0.014
   0.25042926  0.38442201  0.00000000       0.014
   0.33331963  0.33674991  0.00000000       0.014
   0.41621001  0.28907780  0.00000000       0.014
 
 k-points in reciprocal lattice and weights: K-Mesh Generated with KP-Resolved Value 
   0.04166667  0.04166667  0.00000000       0.014
   0.12500000  0.04166667  0.00000000       0.014
   0.20833333  0.04166667  0.00000000       0.014
   0.29166667  0.04166667  0.00000000       0.014
   0.37500000  0.04166667  0.00000000       0.014
   0.45833333  0.04166667  0.00000000       0.014
  -0.45833333  0.04166667  0.00000000       0.014
  -0.37500000  0.04166667  0.00000000       0.014
  -0.29166667  0.04166667  0.00000000       0.014
  -0.20833333  0.04166667  0.00000000       0.014
  -0.12500000  0.04166667  0.00000000       0.014
  -0.04166667  0.04166667  0.00000000       0.014
   0.04166667  0.12500000  0.00000000       0.014
   0.12500000  0.12500000  0.00000000       0.014
   0.20833333  0.12500000  0.00000000       0.014
   0.29166667  0.12500000  0.00000000       0.014
   0.37500000  0.12500000  0.00000000       0.014
   0.45833333  0.12500000  0.00000000       0.014
  -0.45833333  0.12500000  0.00000000       0.014
  -0.37500000  0.12500000  0.00000000       0.014
  -0.29166667  0.12500000  0.00000000       0.014
  -0.20833333  0.12500000  0.00000000       0.014
  -0.12500000  0.12500000  0.00000000       0.014
  -0.04166667  0.12500000  0.00000000       0.014
   0.04166667  0.20833333  0.00000000       0.014
   0.12500000  0.20833333  0.00000000       0.014
   0.20833333  0.20833333  0.00000000       0.014
   0.29166667  0.20833333  0.00000000       0.014
   0.37500000  0.20833333  0.00000000       0.014
   0.45833333  0.20833333  0.00000000       0.014
  -0.45833333  0.20833333  0.00000000       0.014
  -0.37500000  0.20833333  0.00000000       0.014
  -0.29166667  0.20833333  0.00000000       0.014
  -0.20833333  0.20833333  0.00000000       0.014
  -0.12500000  0.20833333  0.00000000       0.014
  -0.04166667  0.20833333  0.00000000       0.014
   0.04166667  0.29166667  0.00000000       0.014
   0.12500000  0.29166667  0.00000000       0.014
   0.20833333  0.29166667  0.00000000       0.014
   0.29166667  0.29166667  0.00000000       0.014
   0.37500000  0.29166667  0.00000000       0.014
   0.45833333  0.29166667  0.00000000       0.014
  -0.45833333  0.29166667  0.00000000       0.014
  -0.37500000  0.29166667  0.00000000       0.014
  -0.29166667  0.29166667  0.00000000       0.014
  -0.20833333  0.29166667  0.00000000       0.014
  -0.12500000  0.29166667  0.00000000       0.014
  -0.04166667  0.29166667  0.00000000       0.014
   0.04166667  0.37500000  0.00000000       0.014
   0.12500000  0.37500000  0.00000000       0.014
   0.20833333  0.37500000  0.00000000       0.014
   0.29166667  0.37500000  0.00000000       0.014
   0.37500000  0.37500000  0.00000000       0.014
   0.45833333  0.37500000  0.00000000       0.014
  -0.45833333  0.37500000  0.00000000       0.014
  -0.37500000  0.37500000  0.00000000       0.014
  -0.29166667  0.37500000  0.00000000       0.014
  -0.20833333  0.37500000  0.00000000       0.014
  -0.12500000  0.37500000  0.00000000       0.014
  -0.04166667  0.37500000  0.00000000       0.014
   0.04166667  0.45833333  0.00000000       0.014
   0.12500000  0.45833333  0.00000000       0.014
   0.20833333  0.45833333  0.00000000       0.014
   0.29166667  0.45833333  0.00000000       0.014
   0.37500000  0.45833333  0.00000000       0.014
   0.45833333  0.45833333  0.00000000       0.014
  -0.45833333  0.45833333  0.00000000       0.014
  -0.37500000  0.45833333  0.00000000       0.014
  -0.29166667  0.45833333  0.00000000       0.014
  -0.20833333  0.45833333  0.00000000       0.014
  -0.12500000  0.45833333  0.00000000       0.014
  -0.04166667  0.45833333  0.00000000       0.014
 
 position of ions in fractional coordinates (direct lattice) 
   0.00000262  0.99999738  0.50000000
   0.66666738  0.33333262  0.50000000
 
 position of ions in cartesian coordinates  (Angst):
   1.22708123  2.13358922 15.14119687
   1.23658216 -0.71668855 15.14119687
 


--------------------------------------------------------------------------------------------------------


 k-point  1 :   0.0417 0.0417 0.0000  plane waves:    9287
 k-point  2 :   0.1250 0.0417 0.0000  plane waves:    9311
 k-point  3 :   0.2083 0.0417 0.0000  plane waves:    9345
 k-point  4 :   0.2917 0.0417 0.0000  plane waves:    9387
 k-point  5 :   0.3750 0.0417 0.0000  plane waves:    9380
 k-point  6 :   0.4583 0.0417 0.0000  plane waves:    9426
 k-point  7 :  -0.4583 0.0417 0.0000  plane waves:    9414
 k-point  8 :  -0.3750 0.0417 0.0000  plane waves:    9384
 k-point  9 :  -0.2917 0.0417 0.0000  plane waves:    9369
 k-point 10 :  -0.2083 0.0417 0.0000  plane waves:    9335
 k-point 11 :  -0.1250 0.0417 0.0000  plane waves:    9291
 k-point 12 :  -0.0417 0.0417 0.0000  plane waves:    9268
 k-point 13 :   0.0417 0.1250 0.0000  plane waves:    9303
 k-point 14 :   0.1250 0.1250 0.0000  plane waves:    9349
 k-point 15 :   0.2083 0.1250 0.0000  plane waves:    9376
 k-point 16 :   0.2917 0.1250 0.0000  plane waves:    9415
 k-point 17 :   0.3750 0.1250 0.0000  plane waves:    9437
 k-point 18 :   0.4583 0.1250 0.0000  plane waves:    9434
 k-point 19 :  -0.4583 0.1250 0.0000  plane waves:    9422
 k-point 20 :  -0.3750 0.1250 0.0000  plane waves:    9403
 k-point 21 :  -0.2917 0.1250 0.0000  plane waves:    9367
 k-point 22 :  -0.2083 0.1250 0.0000  plane waves:    9333
 k-point 23 :  -0.1250 0.1250 0.0000  plane waves:    9281
 k-point 24 :  -0.0417 0.1250 0.0000  plane waves:    9292
 k-point 25 :   0.0417 0.2083 0.0000  plane waves:    9341
 k-point 26 :   0.1250 0.2083 0.0000  plane waves:    9380
 k-point 27 :   0.2083 0.2083 0.0000  plane waves:    9412
 k-point 28 :   0.2917 0.2083 0.0000  plane waves:    9446
 k-point 29 :   0.3750 0.2083 0.0000  plane waves:    9472
 k-point 30 :   0.4583 0.2083 0.0000  plane waves:    9467
 k-point 31 :  -0.4583 0.2083 0.0000  plane waves:    9408
 k-point 32 :  -0.3750 0.2083 0.0000  plane waves:    9406
 k-point 33 :  -0.2917 0.2083 0.0000  plane waves:    9361
 k-point 34 :  -0.2083 0.2083 0.0000  plane waves:    9336
 k-point 35 :  -0.1250 0.2083 0.0000  plane waves:    9329
 k-point 36 :  -0.0417 0.2083 0.0000  plane waves:    9328
 k-point 37 :   0.0417 0.2917 0.0000  plane waves:    9368
 k-point 38 :   0.1250 0.2917 0.0000  plane waves:    9419
 k-point 39 :   0.2083 0.2917 0.0000  plane waves:    9413
 k-point 40 :   0.2917 0.2917 0.0000  plane waves:    9457
 k-point 41 :   0.3750 0.2917 0.0000  plane waves:    9476
 k-point 42 :   0.4583 0.2917 0.0000  plane waves:    9457
 k-point 43 :  -0.4583 0.2917 0.0000  plane waves:    9413
 k-point 44 :  -0.3750 0.2917 0.0000  plane waves:    9386
 k-point 45 :  -0.2917 0.2917 0.0000  plane waves:    9363
 k-point 46 :  -0.2083 0.2917 0.0000  plane waves:    9372
 k-point 47 :  -0.1250 0.2917 0.0000  plane waves:    9374
 k-point 48 :  -0.0417 0.2917 0.0000  plane waves:    9366
 k-point 49 :   0.0417 0.3750 0.0000  plane waves:    9372
 k-point 50 :   0.1250 0.3750 0.0000  plane waves:    9430
 k-point 51 :   0.2083 0.3750 0.0000  plane waves:    9460
 k-point 52 :   0.2917 0.3750 0.0000  plane waves:    9465
 k-point 53 :   0.3750 0.3750 0.0000  plane waves:    9482
 k-point 54 :   0.4583 0.3750 0.0000  plane waves:    9445
 k-point 55 :  -0.4583 0.3750 0.0000  plane waves:    9395
 k-point 56 :  -0.3750 0.3750 0.0000  plane waves:    9364
 k-point 57 :  -0.2917 0.3750 0.0000  plane waves:    9394
 k-point 58 :  -0.2083 0.3750 0.0000  plane waves:    9404
 k-point 59 :  -0.1250 0.3750 0.0000  plane waves:    9409
 k-point 60 :  -0.0417 0.3750 0.0000  plane waves:    9379
 k-point 61 :   0.0417 0.4583 0.0000  plane waves:    9396
 k-point 62 :   0.1250 0.4583 0.0000  plane waves:    9431
 k-point 63 :   0.2083 0.4583 0.0000  plane waves:    9440
 k-point 64 :   0.2917 0.4583 0.0000  plane waves:    9448
 k-point 65 :   0.3750 0.4583 0.0000  plane waves:    9457
 k-point 66 :   0.4583 0.4583 0.0000  plane waves:    9416
 k-point 67 :  -0.4583 0.4583 0.0000  plane waves:    9404
 k-point 68 :  -0.3750 0.4583 0.0000  plane waves:    9411
 k-point 69 :  -0.2917 0.4583 0.0000  plane waves:    9419
 k-point 70 :  -0.2083 0.4583 0.0000  plane waves:    9419
 k-point 71 :  -0.1250 0.4583 0.0000  plane waves:    9431
 k-point 72 :  -0.0417 0.4583 0.0000  plane waves:    9384

 maximum and minimum number of plane-waves per node :      9482     9268

 maximum number of plane-waves:      9482
 maximum index in each direction: 
   IXMAX=    6   IYMAX=    5   IZMAX=   73
   IXMIN=   -6   IYMIN=   -6   IZMIN=  -73


 serial   3D FFT for wavefunctions
 parallel 3D FFT for charge:
    minimum data exchange during FFTs selected (reduces bandwidth)


 total amount of memory used by VASP MPI-rank0    94736. kBytes
=======================================================================

   base      :      30000. kBytes
   nonl-proj :      44098. kBytes
   fftplans  :       1579. kBytes
   grid      :       8077. kBytes
   one-center:          6. kBytes
   wavefun   :      10976. kBytes
 
     INWAV:  cpu time    0.0000: real time    0.0000
 Broyden mixing: mesh for mixing (old mesh)
   NGX = 11   NGY = 11   NGZ =147
  (NGX  = 36   NGY  = 32   NGZ  =420)
  gives a total of  17787 points

 initial charge density was supplied:
 charge density of overlapping atoms calculated
 number of electron       8.0000000 magnetization 
 keeping initial charge density in first step


--------------------------------------------------------------------------------------------------------


 Maximum index for augmentation-charges          185 (set IRDMAX)


--------------------------------------------------------------------------------------------------------


 First call to EWALD:  gamma=   0.327
 Maximum number of real-space cells 6x 6x 1
 Maximum number of reciprocal cells 2x 2x13

    FEWALD:  cpu time    0.0020: real time    0.0041


--------------------------------------- Iteration      1(   1)  ---------------------------------------


    POTLOK:  cpu time    0.0320: real time    0.0570
    SETDIJ:  cpu time    0.0120: real time    0.0173
    EDDIAG:  cpu time    1.0858: real time    1.1819
  RMM-DIIS:  cpu time    2.0947: real time    2.1224
    ORTHCH:  cpu time    0.0520: real time    0.0521
       DOS:  cpu time    0.0020: real time    0.0101
    --------------------------------------------
      LOOP:  cpu time    3.2795: real time    3.4416

 eigenvalue-minimisations  :  1728
 total energy-change (2. order) : 0.1014042E+03  (-0.1510968E+03)
 number of electron       8.0000000 magnetization 
 augmentation part        8.0000000 magnetization 

 Free energy of the ion-electron system (eV)
  ---------------------------------------------------
  alpha Z        PSCENC =         1.37230889
  Ewald energy   TEWEN  =      2232.02869137
  -Hartree energ DENC   =     -2438.24938802
  -exchange      EXHF   =         0.00000000
  -V(xc)+E(xc)   XCENC  =        14.48586741
  PAW double counting   =       228.69403340     -218.18290438
  entropy T*S    EENTRO =        -0.00215765
  eigenvalues    EBANDS =       -13.04543021
  atomic energy  EATOM  =       294.30319316
  Solvation  Ediel_sol  =         0.00000000
  ---------------------------------------------------
  free energy    TOTEN  =       101.40421397 eV

  energy without entropy =      101.40637162  energy(sigma->0) =      101.40529279


--------------------------------------------------------------------------------------------------------




--------------------------------------- Iteration      1(   2)  ---------------------------------------


    EDDIAG:  cpu time    1.0618: real time    1.0729
  RMM-DIIS:  cpu time    2.0517: real time    2.0602
    ORTHCH:  cpu time    0.0520: real time    0.0521
       DOS:  cpu time    0.0010: real time    0.0010
    --------------------------------------------
      LOOP:  cpu time    3.1655: real time    3.1855

 eigenvalue-minimisations  :  1728
 total energy-change (2. order) :-0.5155636E+02  (-0.2869516E+02)
 number of electron       8.0000000 magnetization 
 augmentation part        8.0000000 magnetization 

 Free energy of the ion-electron system (eV)
  ---------------------------------------------------
  alpha Z        PSCENC =         1.37230889
  Ewald energy   TEWEN  =      2232.02869137
  -Hartree energ DENC   =     -2438.24938802
  -exchange      EXHF   =         0.00000000
  -V(xc)+E(xc)   XCENC  =        14.48586741
  PAW double counting   =       228.69403340     -218.18290438
  entropy T*S    EENTRO =        -0.00300685
  eigenvalues    EBANDS =       -64.60093780
  atomic energy  EATOM  =       294.30319316
  Solvation  Ediel_sol  =         0.00000000
  ---------------------------------------------------
  free energy    TOTEN  =        49.84785718 eV

  energy without entropy =       49.85086403  energy(sigma->0) =       49.84936061


--------------------------------------------------------------------------------------------------------




--------------------------------------- Iteration      1(   3)  ---------------------------------------


    EDDIAG:  cpu time    1.0708: real time    1.0753
  RMM-DIIS:  cpu time    2.0457: real time    2.0540
    ORTHCH:  cpu time    0.0530: real time    0.0521
       DOS:  cpu time    0.0000: real time    0.0008
    --------------------------------------------
      LOOP:  cpu time    3.1695: real time    3.1822

 eigenvalue-minimisations  :  1728
 total energy-change (2. order) :-0.4110174E+02  (-0.1990386E+02)
 number of electron       8.0000000 magnetization 
 augmentation part        8.0000000 magnetization 

 Free energy of the ion-electron system (eV)
  ---------------------------------------------------
  alpha Z        PSCENC =         1.37230889
  Ewald energy   TEWEN  =      2232.02869137
  -Hartree energ DENC   =     -2438.24938802
  -exchange      EXHF   =         0.00000000
  -V(xc)+E(xc)   XCENC  =        14.48586741
  PAW double counting   =       228.69403340     -218.18290438
  entropy T*S    EENTRO =        -0.00155773
  eigenvalues    EBANDS =      -105.70413032
  atomic energy  EATOM  =       294.30319316
  Solvation  Ediel_sol  =         0.00000000
  ---------------------------------------------------
  free energy    TOTEN  =         8.74611378 eV

  energy without entropy =        8.74767152  energy(sigma->0) =        8.74689265


--------------------------------------------------------------------------------------------------------




--------------------------------------- Iteration      1(   4)  ---------------------------------------


    EDDIAG:  cpu time    1.0598: real time    1.0730
  RMM-DIIS:  cpu time    2.0597: real time    2.0640
    ORTHCH:  cpu time    0.0520: real time    0.0521
       DOS:  cpu time    0.0010: real time    0.0008
    --------------------------------------------
      LOOP:  cpu time    3.1725: real time    3.1899

 eigenvalue-minimisations  :  1728
 total energy-change (2. order) :-0.2253143E+02  (-0.1361018E+02)
 number of electron       8.0000000 magnetization 
 augmentation part        8.0000000 magnetization 

 Free energy of the ion-electron system (eV)
  ---------------------------------------------------
  alpha Z        PSCENC =         1.37230889
  Ewald energy   TEWEN  =      2232.02869137
  -Hartree energ DENC   =     -2438.24938802
  -exchange      EXHF   =         0.00000000
  -V(xc)+E(xc)   XCENC  =        14.48586741
  PAW double counting   =       228.69403340     -218.18290438
  entropy T*S    EENTRO =        -0.00005126
  eigenvalues    EBANDS =      -128.23706549
  atomic energy  EATOM  =       294.30319316
  Solvation  Ediel_sol  =         0.00000000
  ---------------------------------------------------
  free energy    TOTEN  =       -13.78531491 eV

  energy without entropy =      -13.78526366  energy(sigma->0) =      -13.78528929


--------------------------------------------------------------------------------------------------------




--------------------------------------- Iteration      1(   5)  ---------------------------------------


    EDDIAG:  cpu time    1.0718: real time    1.0767
  RMM-DIIS:  cpu time    2.0657: real time    2.0741
    ORTHCH:  cpu time    0.0520: real time    0.0522
       DOS:  cpu time    0.0010: real time    0.0006
    --------------------------------------------
      LOOP:  cpu time    3.1905: real time    3.2035

 eigenvalue-minimisations  :  1728
 total energy-change (2. order) :-0.4657357E+01  (-0.3543795E+01)
 number of electron       8.0000000 magnetization 
 augmentation part        8.0000000 magnetization 

 Free energy of the ion-electron system (eV)
  ---------------------------------------------------
  alpha Z        PSCENC =         1.37230889
  Ewald energy   TEWEN  =      2232.02869137
  -Hartree energ DENC   =     -2438.24938802
  -exchange      EXHF   =         0.00000000
  -V(xc)+E(xc)   XCENC  =        14.48586741
  PAW double counting   =       228.69403340     -218.18290438
  entropy T*S    EENTRO =        -0.00000000
  eigenvalues    EBANDS =      -132.89447370
  atomic energy  EATOM  =       294.30319316
  Solvation  Ediel_sol  =         0.00000000
  ---------------------------------------------------
  free energy    TOTEN  =       -18.44267187 eV

  energy without entropy =      -18.44267187  energy(sigma->0) =      -18.44267187


--------------------------------------------------------------------------------------------------------




--------------------------------------- Iteration      1(   6)  ---------------------------------------


    EDDIAG:  cpu time    1.0618: real time    1.0768
  RMM-DIIS:  cpu time    2.0687: real time    2.0749
    ORTHCH:  cpu time    0.0520: real time    0.0521
       DOS:  cpu time    0.0010: real time    0.0006
    --------------------------------------------
      LOOP:  cpu time    3.1835: real time    3.2043

 eigenvalue-minimisations  :  1728
 total energy-change (2. order) :-0.9766525E+00  (-0.8018920E+00)
 number of electron       8.0000000 magnetization 
 augmentation part        8.0000000 magnetization 

 Free energy of the ion-electron system (eV)
  ---------------------------------------------------
  alpha Z        PSCENC =         1.37230889
  Ewald energy   TEWEN  =      2232.02869137
  -Hartree energ DENC   =     -2438.24938802
  -exchange      EXHF   =         0.00000000
  -V(xc)+E(xc)   XCENC  =        14.48586741
  PAW double counting   =       228.69403340     -218.18290438
  entropy T*S    EENTRO =        -0.00000000
  eigenvalues    EBANDS =      -133.87112625
  atomic energy  EATOM  =       294.30319316
  Solvation  Ediel_sol  =         0.00000000
  ---------------------------------------------------
  free energy    TOTEN  =       -19.41932442 eV

  energy without entropy =      -19.41932442  energy(sigma->0) =      -19.41932442


--------------------------------------------------------------------------------------------------------




--------------------------------------- Iteration      1(   7)  ---------------------------------------


    EDDIAG:  cpu time    1.0618: real time    1.0781
  RMM-DIIS:  cpu time    2.0557: real time    2.0599
    ORTHCH:  cpu time    0.0520: real time    0.0522
       DOS:  cpu time    0.0010: real time    0.0006
    --------------------------------------------
      LOOP:  cpu time    3.1705: real time    3.1907

 eigenvalue-minimisations  :  1728
 total energy-change (2. order) :-0.2211734E+00  (-0.1849700E+00)
 number of electron       8.0000000 magnetization 
 augmentation part        8.0000000 magnetization 

 Free energy of the ion-electron system (eV)
  ---------------------------------------------------
  alpha Z        PSCENC =         1.37230889
  Ewald energy   TEWEN  =      2232.02869137
  -Hartree energ DENC   =     -2438.24938802
  -exchange      EXHF   =         0.00000000
  -V(xc)+E(xc)   XCENC  =        14.48586741
  PAW double counting   =       228.69403340     -218.18290438
  entropy T*S    EENTRO =        -0.00000000
  eigenvalues    EBANDS =      -134.09229966
  atomic energy  EATOM  =       294.30319316
  Solvation  Ediel_sol  =         0.00000000
  ---------------------------------------------------
  free energy    TOTEN  =       -19.64049783 eV

  energy without entropy =      -19.64049783  energy(sigma->0) =      -19.64049783


--------------------------------------------------------------------------------------------------------




--------------------------------------- Iteration      1(   8)  ---------------------------------------


    EDDIAG:  cpu time    1.0638: real time    1.0777
  RMM-DIIS:  cpu time    2.0657: real time    2.0708
    ORTHCH:  cpu time    0.0530: real time    0.0522
       DOS:  cpu time    0.0000: real time    0.0006
    --------------------------------------------
      LOOP:  cpu time    3.1825: real time    3.2013

 eigenvalue-minimisations  :  1728
 total energy-change (2. order) :-0.5905210E-01  (-0.4883293E-01)
 number of electron       8.0000000 magnetization 
 augmentation part        8.0000000 magnetization 

 Free energy of the ion-electron system (eV)
  ---------------------------------------------------
  alpha Z        PSCENC =         1.37230889
  Ewald energy   TEWEN  =      2232.02869137
  -Hartree energ DENC   =     -2438.24938802
  -exchange      EXHF   =         0.00000000
  -V(xc)+E(xc)   XCENC  =        14.48586741
  PAW double counting   =       228.69403340     -218.18290438
  entropy T*S    EENTRO =        -0.00000000
  eigenvalues    EBANDS =      -134.15135176
  atomic energy  EATOM  =       294.30319316
  Solvation  Ediel_sol  =         0.00000000
  ---------------------------------------------------
  free energy    TOTEN  =       -19.69954993 eV

  energy without entropy =      -19.69954993  energy(sigma->0) =      -19.69954993


--------------------------------------------------------------------------------------------------------




--------------------------------------- Iteration      1(   9)  ---------------------------------------


    EDDIAG:  cpu time    1.0628: real time    1.0809
  RMM-DIIS:  cpu time    3.9754: real time    4.0263
    ORTHCH:  cpu time    0.0530: real time    0.0525
       DOS:  cpu time    0.0000: real time    0.0006
    --------------------------------------------
      LOOP:  cpu time    5.0912: real time    5.1602

 eigenvalue-minimisations  :  3476
 total energy-change (2. order) :-0.2302476E-01  (-0.2008542E-01)
 number of electron       8.0000000 magnetization 
 augmentation part        8.0000000 magnetization 

 Free energy of the ion-electron system (eV)
  ---------------------------------------------------
  alpha Z        PSCENC =         1.37230889
  Ewald energy   TEWEN  =      2232.02869137
  -Hartree energ DENC   =     -2438.24938802
  -exchange      EXHF   =         0.00000000
  -V(xc)+E(xc)   XCENC  =        14.48586741
  PAW double counting   =       228.69403340     -218.18290438
  entropy T*S    EENTRO =        -0.00000000
  eigenvalues    EBANDS =      -134.17437652
  atomic energy  EATOM  =       294.30319316
  Solvation  Ediel_sol  =         0.00000000
  ---------------------------------------------------
  free energy    TOTEN  =       -19.72257468 eV

  energy without entropy =      -19.72257468  energy(sigma->0) =      -19.72257468


--------------------------------------------------------------------------------------------------------




--------------------------------------- Iteration      1(  10)  ---------------------------------------


    EDDIAG:  cpu time    1.0618: real time    1.0729
  RMM-DIIS:  cpu time    4.4663: real time    4.4776
    ORTHCH:  cpu time    0.0520: real time    0.0521
       DOS:  cpu time    0.0000: real time    0.0006
    --------------------------------------------
      LOOP:  cpu time    5.5812: real time    5.6031

 eigenvalue-minimisations  :  3559
 total energy-change (2. order) :-0.3823559E-02  (-0.3229886E-02)
 number of electron       8.0000000 magnetization 
 augmentation part        8.0000000 magnetization 

 Free energy of the ion-electron system (eV)
  ---------------------------------------------------
  alpha Z        PSCENC =         1.37230889
  Ewald energy   TEWEN  =      2232.02869137
  -Hartree energ DENC   =     -2438.24938802
  -exchange      EXHF   =         0.00000000
  -V(xc)+E(xc)   XCENC  =        14.48586741
  PAW double counting   =       228.69403340     -218.18290438
  entropy T*S    EENTRO =        -0.00000000
  eigenvalues    EBANDS =      -134.17820008
  atomic energy  EATOM  =       294.30319316
  Solvation  Ediel_sol  =         0.00000000
  ---------------------------------------------------
  free energy    TOTEN  =       -19.72639824 eV

  energy without entropy =      -19.72639824  energy(sigma->0) =      -19.72639824


--------------------------------------------------------------------------------------------------------




--------------------------------------- Iteration      1(  11)  ---------------------------------------


    EDDIAG:  cpu time    1.0628: real time    1.0770
  RMM-DIIS:  cpu time    3.8634: real time    3.8727
    ORTHCH:  cpu time    0.0520: real time    0.0522
       DOS:  cpu time    0.0010: real time    0.0006
    --------------------------------------------
      LOOP:  cpu time    4.9782: real time    5.0024

 eigenvalue-minimisations  :  3484
 total energy-change (2. order) :-0.1452801E-03  (-0.1118040E-03)
 number of electron       8.0000000 magnetization 
 augmentation part        8.0000000 magnetization 

 Free energy of the ion-electron system (eV)
  ---------------------------------------------------
  alpha Z        PSCENC =         1.37230889
  Ewald energy   TEWEN  =      2232.02869137
  -Hartree energ DENC   =     -2438.24938802
  -exchange      EXHF   =         0.00000000
  -V(xc)+E(xc)   XCENC  =        14.48586741
  PAW double counting   =       228.69403340     -218.18290438
  entropy T*S    EENTRO =        -0.00000000
  eigenvalues    EBANDS =      -134.17834536
  atomic energy  EATOM  =       294.30319316
  Solvation  Ediel_sol  =         0.00000000
  ---------------------------------------------------
  free energy    TOTEN  =       -19.72654352 eV

  energy without entropy =      -19.72654352  energy(sigma->0) =      -19.72654352


--------------------------------------------------------------------------------------------------------




--------------------------------------- Iteration      1(  12)  ---------------------------------------


    EDDIAG:  cpu time    1.0608: real time    1.0751
  RMM-DIIS:  cpu time    4.2833: real time    4.2929
    ORTHCH:  cpu time    0.0520: real time    0.0524
       DOS:  cpu time    0.0010: real time    0.0007
    CHARGE:  cpu time    0.2660: real time    0.2927
    MIXING:  cpu time    0.0030: real time    0.0153
    --------------------------------------------
      LOOP:  cpu time    5.6661: real time    5.7292

 eigenvalue-minimisations  :  3521
 total energy-change (2. order) :-0.2488513E-04  (-0.1998994E-04)
 number of electron       8.0000000 magnetization 
 augmentation part       -0.0156755 magnetization 

 Broyden mixing:
  rms(total) = 0.91113E+00    rms(broyden)= 0.91106E+00
  rms(prec ) = 0.92459E+00
  weight for this iteration     100.00

 Free energy of the ion-electron system (eV)
  ---------------------------------------------------
  alpha Z        PSCENC =         1.37230889
  Ewald energy   TEWEN  =      2232.02869137
  -Hartree energ DENC   =     -2438.24938802
  -exchange      EXHF   =         0.00000000
  -V(xc)+E(xc)   XCENC  =        14.48586741
  PAW double counting   =       228.69403340     -218.18290438
  entropy T*S    EENTRO =        -0.00000000
  eigenvalues    EBANDS =      -134.17837024
  atomic energy  EATOM  =       294.30319316
  Solvation  Ediel_sol  =         0.00000000
  ---------------------------------------------------
  free energy    TOTEN  =       -19.72656841 eV

  energy without entropy =      -19.72656841  energy(sigma->0) =      -19.72656841


--------------------------------------------------------------------------------------------------------




--------------------------------------- Iteration      1(  13)  ---------------------------------------


    POTLOK:  cpu time    0.0190: real time    0.0303
    SETDIJ:  cpu time    0.0020: real time    0.0017
    EDDIAG:  cpu time    1.0498: real time    1.0528
  RMM-DIIS:  cpu time    3.7744: real time    3.7918
    ORTHCH:  cpu time    0.0520: real time    0.0529
       DOS:  cpu time    0.0010: real time    0.0006
    CHARGE:  cpu time    0.2590: real time    0.2589
    MIXING:  cpu time    0.0030: real time    0.0199
    --------------------------------------------
      LOOP:  cpu time    5.1602: real time    5.2088

 eigenvalue-minimisations  :  3456
 total energy-change (2. order) : 0.8853620E+00  (-0.4385296E-01)
 number of electron       8.0000000 magnetization 
 augmentation part       -0.0180816 magnetization 

 Broyden mixing:
  rms(total) = 0.59390E+00    rms(broyden)= 0.59390E+00
  rms(prec ) = 0.60018E+00
  weight for this iteration     100.00

 eigenvalues of (default mixing * dielectric matrix)
  average eigenvalue GAMMA=   2.6438
  2.6438

 Free energy of the ion-electron system (eV)
  ---------------------------------------------------
  alpha Z        PSCENC =         1.37230889
  Ewald energy   TEWEN  =      2232.02869137
  -Hartree energ DENC   =     -2449.54848539
  -exchange      EXHF   =         0.00000000
  -V(xc)+E(xc)   XCENC  =        14.93170211
  PAW double counting   =       998.01021534     -987.62280200
  entropy T*S    EENTRO =        -0.00000000
  eigenvalues    EBANDS =      -122.31602984
  atomic energy  EATOM  =       294.30319316
  Solvation  Ediel_sol  =         0.00000000
  ---------------------------------------------------
  free energy    TOTEN  =       -18.84120636 eV

  energy without entropy =      -18.84120636  energy(sigma->0) =      -18.84120636


--------------------------------------------------------------------------------------------------------




--------------------------------------- Iteration      1(  14)  ---------------------------------------


    POTLOK:  cpu time    0.0190: real time    0.0292
    SETDIJ:  cpu time    0.0020: real time    0.0017
    EDDIAG:  cpu time    1.0498: real time    1.0523
  RMM-DIIS:  cpu time    3.7644: real time    3.7735
    ORTHCH:  cpu time    0.0520: real time    0.0523
       DOS:  cpu time    0.0010: real time    0.0006
    CHARGE:  cpu time    0.2580: real time    0.2590
    MIXING:  cpu time    0.0020: real time    0.0079
    --------------------------------------------
      LOOP:  cpu time    5.1482: real time    5.1765

 eigenvalue-minimisations  :  3456
 total energy-change (2. order) : 0.3331095E+00  (-0.9258149E-01)
 number of electron       8.0000000 magnetization 
 augmentation part       -0.0211224 magnetization 

 Broyden mixing:
  rms(total) = 0.11693E+00    rms(broyden)= 0.11692E+00
  rms(prec ) = 0.11949E+00
  weight for this iteration     100.00

 eigenvalues of (default mixing * dielectric matrix)
  average eigenvalue GAMMA=   2.2342
  2.2342  2.2342

 Free energy of the ion-electron system (eV)
  ---------------------------------------------------
  alpha Z        PSCENC =         1.37230889
  Ewald energy   TEWEN  =      2232.02869137
  -Hartree energ DENC   =     -2468.10316511
  -exchange      EXHF   =         0.00000000
  -V(xc)+E(xc)   XCENC  =        15.67808038
  PAW double counting   =      3854.05051584    -3843.77313446
  entropy T*S    EENTRO =        -0.00000000
  eigenvalues    EBANDS =      -104.06458692
  atomic energy  EATOM  =       294.30319316
  Solvation  Ediel_sol  =         0.00000000
  ---------------------------------------------------
  free energy    TOTEN  =       -18.50809686 eV

  energy without entropy =      -18.50809686  energy(sigma->0) =      -18.50809686


--------------------------------------------------------------------------------------------------------




--------------------------------------- Iteration      1(  15)  ---------------------------------------


    POTLOK:  cpu time    0.0190: real time    0.0297
    SETDIJ:  cpu time    0.0020: real time    0.0017
    EDDIAG:  cpu time    1.0488: real time    1.0512
  RMM-DIIS:  cpu time    3.8304: real time    3.8398
    ORTHCH:  cpu time    0.0520: real time    0.0524
       DOS:  cpu time    0.0010: real time    0.0006
    CHARGE:  cpu time    0.2590: real time    0.2588
    MIXING:  cpu time    0.0010: real time    0.0040
    --------------------------------------------
      LOOP:  cpu time    5.2132: real time    5.2383

 eigenvalue-minimisations  :  3468
 total energy-change (2. order) : 0.2061562E-01  (-0.2504851E-02)
 number of electron       8.0000000 magnetization 
 augmentation part       -0.0205816 magnetization 

 Broyden mixing:
  rms(total) = 0.12431E-01    rms(broyden)= 0.12429E-01
  rms(prec ) = 0.15966E-01
  weight for this iteration     100.00

 eigenvalues of (default mixing * dielectric matrix)
  average eigenvalue GAMMA=   2.0010
  1.3471  2.3279  2.3279

 Free energy of the ion-electron system (eV)
  ---------------------------------------------------
  alpha Z        PSCENC =         1.37230889
  Ewald energy   TEWEN  =      2232.02869137
  -Hartree energ DENC   =     -2467.20885918
  -exchange      EXHF   =         0.00000000
  -V(xc)+E(xc)   XCENC  =        15.56458420
  PAW double counting   =      4087.48531458    -4077.14775873
  entropy T*S    EENTRO =        -0.00000000
  eigenvalues    EBANDS =      -104.88495553
  atomic energy  EATOM  =       294.30319316
  Solvation  Ediel_sol  =         0.00000000
  ---------------------------------------------------
  free energy    TOTEN  =       -18.48748125 eV

  energy without entropy =      -18.48748125  energy(sigma->0) =      -18.48748125


--------------------------------------------------------------------------------------------------------




--------------------------------------- Iteration      1(  16)  ---------------------------------------


    POTLOK:  cpu time    0.0190: real time    0.0312
    SETDIJ:  cpu time    0.0020: real time    0.0017
    EDDIAG:  cpu time    1.0498: real time    1.0527
  RMM-DIIS:  cpu time    3.9144: real time    3.9234
    ORTHCH:  cpu time    0.0520: real time    0.0524
       DOS:  cpu time    0.0010: real time    0.0006
    CHARGE:  cpu time    0.2590: real time    0.2589
    MIXING:  cpu time    0.0000: real time    0.0008
    --------------------------------------------
      LOOP:  cpu time    5.2982: real time    5.3218

 eigenvalue-minimisations  :  3473
 total energy-change (2. order) : 0.1563152E-02  (-0.4324679E-04)
 number of electron       8.0000000 magnetization 
 augmentation part       -0.0205256 magnetization 

 Broyden mixing:
  rms(total) = 0.82418E-02    rms(broyden)= 0.82416E-02
  rms(prec ) = 0.11456E-01
  weight for this iteration     100.00

 eigenvalues of (default mixing * dielectric matrix)
  average eigenvalue GAMMA=   2.0853
  0.9942  2.5300  2.5300  2.2868

 Free energy of the ion-electron system (eV)
  ---------------------------------------------------
  alpha Z        PSCENC =         1.37230889
  Ewald energy   TEWEN  =      2232.02869137
  -Hartree energ DENC   =     -2468.40711158
  -exchange      EXHF   =         0.00000000
  -V(xc)+E(xc)   XCENC  =        15.57948873
  PAW double counting   =      4140.24281621    -4129.90264494
  entropy T*S    EENTRO =        -0.00000000
  eigenvalues    EBANDS =      -103.70265993
  atomic energy  EATOM  =       294.30319316
  Solvation  Ediel_sol  =         0.00000000
  ---------------------------------------------------
  free energy    TOTEN  =       -18.48591810 eV

  energy without entropy =      -18.48591810  energy(sigma->0) =      -18.48591810


--------------------------------------------------------------------------------------------------------




--------------------------------------- Iteration      1(  17)  ---------------------------------------


    POTLOK:  cpu time    0.0200: real time    0.0327
    SETDIJ:  cpu time    0.0020: real time    0.0017
    EDDIAG:  cpu time    1.0478: real time    1.0510
  RMM-DIIS:  cpu time    3.8464: real time    3.8560
    ORTHCH:  cpu time    0.0520: real time    0.0524
       DOS:  cpu time    0.0010: real time    0.0006
    CHARGE:  cpu time    0.2590: real time    0.2589
    MIXING:  cpu time    0.0010: real time    0.0009
    --------------------------------------------
      LOOP:  cpu time    5.2282: real time    5.2542

 eigenvalue-minimisations  :  3458
 total energy-change (2. order) : 0.1318272E-02  (-0.5657022E-04)
 number of electron       8.0000000 magnetization 
 augmentation part       -0.0205754 magnetization 

 Broyden mixing:
  rms(total) = 0.60833E-02    rms(broyden)= 0.60832E-02
  rms(prec ) = 0.75204E-02
  weight for this iteration     100.00

 eigenvalues of (default mixing * dielectric matrix)
  average eigenvalue GAMMA=   2.1116
  3.7602  2.3607  1.0354  1.8667  1.5351

 Free energy of the ion-electron system (eV)
  ---------------------------------------------------
  alpha Z        PSCENC =         1.37230889
  Ewald energy   TEWEN  =      2232.02869137
  -Hartree energ DENC   =     -2470.73135957
  -exchange      EXHF   =         0.00000000
  -V(xc)+E(xc)   XCENC  =        15.60639288
  PAW double counting   =      4082.48896057    -4072.15043648
  entropy T*S    EENTRO =        -0.00000000
  eigenvalues    EBANDS =      -101.40235063
  atomic energy  EATOM  =       294.30319316
  Solvation  Ediel_sol  =         0.00000000
  ---------------------------------------------------
  free energy    TOTEN  =       -18.48459982 eV

  energy without entropy =      -18.48459982  energy(sigma->0) =      -18.48459982


--------------------------------------------------------------------------------------------------------




--------------------------------------- Iteration      1(  18)  ---------------------------------------


    POTLOK:  cpu time    0.0190: real time    0.0281
    SETDIJ:  cpu time    0.0010: real time    0.0017
    EDDIAG:  cpu time    1.0488: real time    1.0532
  RMM-DIIS:  cpu time    3.8644: real time    3.8740
    ORTHCH:  cpu time    0.0520: real time    0.0523
       DOS:  cpu time    0.0010: real time    0.0006
    CHARGE:  cpu time    0.2590: real time    0.2598
    MIXING:  cpu time    0.0020: real time    0.0021
    --------------------------------------------
      LOOP:  cpu time    5.2472: real time    5.2719

 eigenvalue-minimisations  :  3456
 total energy-change (2. order) : 0.5931453E-04  (-0.1655785E-04)
 number of electron       8.0000000 magnetization 
 augmentation part       -0.0205606 magnetization 

 Broyden mixing:
  rms(total) = 0.57108E-02    rms(broyden)= 0.57107E-02
  rms(prec ) = 0.62860E-02
  weight for this iteration     100.00

 eigenvalues of (default mixing * dielectric matrix)
  average eigenvalue GAMMA=   2.5715
  5.9495  2.9164  2.3936  2.1911  0.9891  0.9891

 Free energy of the ion-electron system (eV)
  ---------------------------------------------------
  alpha Z        PSCENC =         1.37230889
  Ewald energy   TEWEN  =      2232.02869137
  -Hartree energ DENC   =     -2471.97770852
  -exchange      EXHF   =         0.00000000
  -V(xc)+E(xc)   XCENC  =        15.61170895
  PAW double counting   =      4124.30971494    -4113.96664806
  entropy T*S    EENTRO =        -0.00000000
  eigenvalues    EBANDS =      -100.16580124
  atomic energy  EATOM  =       294.30319316
  Solvation  Ediel_sol  =         0.00000000
  ---------------------------------------------------
  free energy    TOTEN  =       -18.48454051 eV

  energy without entropy =      -18.48454051  energy(sigma->0) =      -18.48454051


--------------------------------------------------------------------------------------------------------




--------------------------------------- Iteration      1(  19)  ---------------------------------------


    POTLOK:  cpu time    0.0290: real time    0.0302
    SETDIJ:  cpu time    0.0010: real time    0.0017
    EDDIAG:  cpu time    1.0498: real time    1.0512
  RMM-DIIS:  cpu time    3.8204: real time    3.8314
    ORTHCH:  cpu time    0.0520: real time    0.0521
       DOS:  cpu time    0.0010: real time    0.0006
    CHARGE:  cpu time    0.2580: real time    0.2597
    MIXING:  cpu time    0.0010: real time    0.0010
    --------------------------------------------
      LOOP:  cpu time    5.2132: real time    5.2279

 eigenvalue-minimisations  :  3456
 total energy-change (2. order) :-0.4714217E-03  (-0.1464904E-04)
 number of electron       8.0000000 magnetization 
 augmentation part       -0.0205995 magnetization 

 Broyden mixing:
  rms(total) = 0.15886E-02    rms(broyden)= 0.15885E-02
  rms(prec ) = 0.18604E-02
  weight for this iteration     100.00

 eigenvalues of (default mixing * dielectric matrix)
  average eigenvalue GAMMA=   2.3931
  6.0809  2.9602  2.2961  2.1485  1.4029  0.9973  0.8657

 Free energy of the ion-electron system (eV)
  ---------------------------------------------------
  alpha Z        PSCENC =         1.37230889
  Ewald energy   TEWEN  =      2232.02869137
  -Hartree energ DENC   =     -2473.23241396
  -exchange      EXHF   =         0.00000000
  -V(xc)+E(xc)   XCENC  =        15.61911727
  PAW double counting   =      4095.31898868    -4084.97819306
  entropy T*S    EENTRO =        -0.00000000
  eigenvalues    EBANDS =       -98.91670428
  atomic energy  EATOM  =       294.30319316
  Solvation  Ediel_sol  =         0.00000000
  ---------------------------------------------------
  free energy    TOTEN  =       -18.48501193 eV

  energy without entropy =      -18.48501193  energy(sigma->0) =      -18.48501193


--------------------------------------------------------------------------------------------------------




--------------------------------------- Iteration      1(  20)  ---------------------------------------


    POTLOK:  cpu time    0.0320: real time    0.0315
    SETDIJ:  cpu time    0.0020: real time    0.0017
    EDDIAG:  cpu time    1.0568: real time    1.0599
  RMM-DIIS:  cpu time    3.9054: real time    3.9151
    ORTHCH:  cpu time    0.0520: real time    0.0524
       DOS:  cpu time    0.0010: real time    0.0006
    CHARGE:  cpu time    0.2580: real time    0.2597
    MIXING:  cpu time    0.0010: real time    0.0010
    --------------------------------------------
      LOOP:  cpu time    5.3072: real time    5.3219

 eigenvalue-minimisations  :  3465
 total energy-change (2. order) :-0.2913594E-03  (-0.6126757E-06)
 number of electron       8.0000000 magnetization 
 augmentation part       -0.0205997 magnetization 

 Broyden mixing:
  rms(total) = 0.19312E-02    rms(broyden)= 0.19312E-02
  rms(prec ) = 0.20634E-02
  weight for this iteration     100.00

 eigenvalues of (default mixing * dielectric matrix)
  average eigenvalue GAMMA=   2.7563
  7.6613  4.1532  2.7011  2.2977  2.2977  0.9908  0.9908  0.9575

 Free energy of the ion-electron system (eV)
  ---------------------------------------------------
  alpha Z        PSCENC =         1.37230889
  Ewald energy   TEWEN  =      2232.02869137
  -Hartree energ DENC   =     -2473.34669057
  -exchange      EXHF   =         0.00000000
  -V(xc)+E(xc)   XCENC  =        15.61861813
  PAW double counting   =      4090.61384678    -4080.27309273
  entropy T*S    EENTRO =        -0.00000000
  eigenvalues    EBANDS =       -98.80217832
  atomic energy  EATOM  =       294.30319316
  Solvation  Ediel_sol  =         0.00000000
  ---------------------------------------------------
  free energy    TOTEN  =       -18.48530329 eV

  energy without entropy =      -18.48530329  energy(sigma->0) =      -18.48530329


--------------------------------------------------------------------------------------------------------




--------------------------------------- Iteration      1(  21)  ---------------------------------------


    POTLOK:  cpu time    0.0190: real time    0.0276
    SETDIJ:  cpu time    0.0020: real time    0.0017
    EDDIAG:  cpu time    1.0498: real time    1.0520
  RMM-DIIS:  cpu time    3.8364: real time    3.8468
    ORTHCH:  cpu time    0.0530: real time    0.0523
       DOS:  cpu time    0.0000: real time    0.0006
    CHARGE:  cpu time    0.2600: real time    0.2597
    MIXING:  cpu time    0.0010: real time    0.0011
    --------------------------------------------
      LOOP:  cpu time    5.2212: real time    5.2418

 eigenvalue-minimisations  :  3456
 total energy-change (2. order) :-0.5570243E-03  (-0.4390420E-05)
 number of electron       8.0000000 magnetization 
 augmentation part       -0.0205925 magnetization 

 Broyden mixing:
  rms(total) = 0.62829E-03    rms(broyden)= 0.62828E-03
  rms(prec ) = 0.66504E-03
  weight for this iteration     100.00

 eigenvalues of (default mixing * dielectric matrix)
  average eigenvalue GAMMA=   2.9495
  8.2808  5.0007  3.2116  2.6120  2.2490  2.2490  1.0013  0.9706  0.9706

 Free energy of the ion-electron system (eV)
  ---------------------------------------------------
  alpha Z        PSCENC =         1.37230889
  Ewald energy   TEWEN  =      2232.02869137
  -Hartree energ DENC   =     -2473.53665102
  -exchange      EXHF   =         0.00000000
  -V(xc)+E(xc)   XCENC  =        15.61683923
  PAW double counting   =      4103.31314653    -4092.97176643
  entropy T*S    EENTRO =        -0.00000000
  eigenvalues    EBANDS =       -98.61162205
  atomic energy  EATOM  =       294.30319316
  Solvation  Ediel_sol  =         0.00000000
  ---------------------------------------------------
  free energy    TOTEN  =       -18.48586031 eV

  energy without entropy =      -18.48586031  energy(sigma->0) =      -18.48586031


--------------------------------------------------------------------------------------------------------




--------------------------------------- Iteration      1(  22)  ---------------------------------------


    POTLOK:  cpu time    0.0180: real time    0.0303
    SETDIJ:  cpu time    0.0020: real time    0.0017
    EDDIAG:  cpu time    1.0508: real time    1.0527
  RMM-DIIS:  cpu time    3.7004: real time    3.7136
    ORTHCH:  cpu time    0.0530: real time    0.0523
       DOS:  cpu time    0.0000: real time    0.0006
    CHARGE:  cpu time    0.2600: real time    0.2596
    MIXING:  cpu time    0.0010: real time    0.0011
    --------------------------------------------
      LOOP:  cpu time    5.0852: real time    5.1118

 eigenvalue-minimisations  :  3396
 total energy-change (2. order) :-0.9658494E-04  (-0.2796900E-06)
 number of electron       8.0000000 magnetization 
 augmentation part       -0.0205918 magnetization 

 Broyden mixing:
  rms(total) = 0.19827E-03    rms(broyden)= 0.19827E-03
  rms(prec ) = 0.22435E-03
  weight for this iteration     100.00

 eigenvalues of (default mixing * dielectric matrix)
  average eigenvalue GAMMA=   2.7883
  8.4030  5.2214  3.1682  2.6161  2.3006  2.3006  0.9984  0.9778  0.9778  0.9192

 Free energy of the ion-electron system (eV)
  ---------------------------------------------------
  alpha Z        PSCENC =         1.37230889
  Ewald energy   TEWEN  =      2232.02869137
  -Hartree energ DENC   =     -2473.56929471
  -exchange      EXHF   =         0.00000000
  -V(xc)+E(xc)   XCENC  =        15.61675658
  PAW double counting   =      4099.90438913    -4089.56303234
  entropy T*S    EENTRO =        -0.00000000
  eigenvalues    EBANDS =       -98.57896899
  atomic energy  EATOM  =       294.30319316
  Solvation  Ediel_sol  =         0.00000000
  ---------------------------------------------------
  free energy    TOTEN  =       -18.48595690 eV

  energy without entropy =      -18.48595690  energy(sigma->0) =      -18.48595690


--------------------------------------------------------------------------------------------------------




--------------------------------------- Iteration      1(  23)  ---------------------------------------


    POTLOK:  cpu time    0.0180: real time    0.0285
    SETDIJ:  cpu time    0.0020: real time    0.0017
    EDDIAG:  cpu time    1.0498: real time    1.0529
  RMM-DIIS:  cpu time    3.8404: real time    3.8503
    ORTHCH:  cpu time    0.0520: real time    0.0522
       DOS:  cpu time    0.0010: real time    0.0006
    CHARGE:  cpu time    0.2580: real time    0.2587
    MIXING:  cpu time    0.0030: real time    0.0207
    --------------------------------------------
      LOOP:  cpu time    5.2242: real time    5.2656

 eigenvalue-minimisations  :  3456
 total energy-change (2. order) :-0.1766075E-04  (-0.3386407E-07)
 number of electron       8.0000000 magnetization 
 augmentation part       -0.0205931 magnetization 

 Broyden mixing:
  rms(total) = 0.76623E-04    rms(broyden)= 0.76620E-04
  rms(prec ) = 0.98421E-04
  weight for this iteration     100.00

 eigenvalues of (default mixing * dielectric matrix)
  average eigenvalue GAMMA=   2.9458
  8.7369  5.8095  3.9964  2.8444  2.5138  2.2829  2.2829  0.9995  0.9823  0.9777
  0.9777

 Free energy of the ion-electron system (eV)
  ---------------------------------------------------
  alpha Z        PSCENC =         1.37230889
  Ewald energy   TEWEN  =      2232.02869137
  -Hartree energ DENC   =     -2473.59772995
  -exchange      EXHF   =         0.00000000
  -V(xc)+E(xc)   XCENC  =        15.61707414
  PAW double counting   =      4099.27017790    -4088.92891146
  entropy T*S    EENTRO =        -0.00000000
  eigenvalues    EBANDS =       -98.55077861
  atomic energy  EATOM  =       294.30319316
  Solvation  Ediel_sol  =         0.00000000
  ---------------------------------------------------
  free energy    TOTEN  =       -18.48597456 eV

  energy without entropy =      -18.48597456  energy(sigma->0) =      -18.48597456


--------------------------------------------------------------------------------------------------------




--------------------------------------- Iteration      1(  24)  ---------------------------------------


    POTLOK:  cpu time    0.0190: real time    0.0335
    SETDIJ:  cpu time    0.0020: real time    0.0017
    EDDIAG:  cpu time    1.0498: real time    1.0523
  RMM-DIIS:  cpu time    3.7474: real time    3.7560
    ORTHCH:  cpu time    0.0510: real time    0.0522
       DOS:  cpu time    0.0010: real time    0.0006
    CHARGE:  cpu time    0.2590: real time    0.2590
    MIXING:  cpu time    0.0010: real time    0.0012
    --------------------------------------------
      LOOP:  cpu time    5.1302: real time    5.1565

 eigenvalue-minimisations  :  3240
 total energy-change (2. order) :-0.1475052E-04  (-0.1415998E-07)
 number of electron       8.0000000 magnetization 
 augmentation part       -0.0205933 magnetization 

 Broyden mixing:
  rms(total) = 0.36261E-04    rms(broyden)= 0.36260E-04
  rms(prec ) = 0.45215E-04
  weight for this iteration     100.00

 eigenvalues of (default mixing * dielectric matrix)
  average eigenvalue GAMMA=   2.9460
  8.7920  5.9577  3.9048  2.8225  2.8225  2.6544  2.2296  2.2296  0.9729  0.9729
  0.9967  0.9967

 Free energy of the ion-electron system (eV)
  ---------------------------------------------------
  alpha Z        PSCENC =         1.37230889
  Ewald energy   TEWEN  =      2232.02869137
  -Hartree energ DENC   =     -2473.61503863
  -exchange      EXHF   =         0.00000000
  -V(xc)+E(xc)   XCENC  =        15.61712058
  PAW double counting   =      4099.54526261    -4089.20401299
  entropy T*S    EENTRO =        -0.00000000
  eigenvalues    EBANDS =       -98.53351430
  atomic energy  EATOM  =       294.30319316
  Solvation  Ediel_sol  =         0.00000000
  ---------------------------------------------------
  free energy    TOTEN  =       -18.48598931 eV

  energy without entropy =      -18.48598931  energy(sigma->0) =      -18.48598931


--------------------------------------------------------------------------------------------------------




--------------------------------------- Iteration      1(  25)  ---------------------------------------


    POTLOK:  cpu time    0.0200: real time    0.0345
    SETDIJ:  cpu time    0.0010: real time    0.0017
[...]
     12       5.9232      0.00000
     13       6.1664      0.00000
     14       7.0581      0.00000
     15       7.4440      0.00000
     16       8.6068      0.00000
     17       9.0904      0.00000
     18      10.0007      0.00000
     19      10.4451      0.00000
     20      11.1021      0.00000
     21      12.3601      0.00000
     22      13.4503      0.00000
     23      13.7915      0.00000
     24      15.7597      0.00000

 k-point    60 :      -0.0417    0.3750    0.0000
  band No.  band energies     occupation 
      1     -19.7257      2.00000
      2     -13.3038      2.00000
      3      -9.3067      2.00000
      4      -7.3746      2.00000
      5       1.1600      0.00000
      6       4.1319      0.00000
      7       4.5074      0.00000
      8       4.9972      0.00000
      9       5.2817      0.00000
     10       5.5785      0.00000
     11       5.7921      0.00000
     12       6.4196      0.00000
     13       6.7169      0.00000
     14       7.6342      0.00000
     15       8.0079      0.00000
     16       9.1844      0.00000
     17       9.6555      0.00000
     18      11.0289      0.00000
     19      11.6500      0.00000
     20      12.1134      0.00000
     21      12.9062      0.00000
     22      13.8190      0.00000
     23      13.9178      0.00000
     24      14.0014      0.00000

 k-point    61 :       0.0417    0.4583    0.0000
  band No.  band energies     occupation 
      1     -17.5454      2.00000
      2     -16.1892      2.00000
      3      -9.7957      2.00000
      4      -5.5151      2.00000
      5      -1.4139      0.00000
      6       4.2127      0.00000
      7       7.4517      0.00000
      8       8.2884      0.00000
      9       8.7182      0.00000
     10       8.7472      0.00000
     11       8.9782      0.00000
     12       9.2129      0.00000
     13       9.5481      0.00000
     14       9.8298      0.00000
     15      10.1054      0.00000
     16      10.1143      0.00000
     17      10.3512      0.00000
     18      10.5869      0.00000
     19      10.9075      0.00000
     20      11.1822      0.00000
     21      11.3768      0.00000
     22      11.4722      0.00000
     23      12.1145      0.00000
     24      12.6157      0.00000

 k-point    62 :       0.1250    0.4583    0.0000
  band No.  band energies     occupation 
      1     -17.3254      2.00000
      2     -16.0022      2.00000
      3     -10.7534      2.00000
      4      -5.2185      2.00000
      5      -1.5201      0.00000
      6       5.5486      0.00000
      7       7.7707      0.00000
      8       8.3970      0.00000
      9       8.9979      0.00000
     10       9.0767      0.00000
     11       9.2569      0.00000
     12       9.5641      0.00000
     13       9.6295      0.00000
     14      10.1720      0.00000
     15      10.4287      0.00000
     16      10.4580      0.00000
     17      10.6269      0.00000
     18      10.8998      0.00000
     19      11.0580      0.00000
     20      11.5015      0.00000
     21      11.7045      0.00000
     22      11.7706      0.00000
     23      12.1152      0.00000
     24      12.9583      0.00000

 k-point    63 :       0.2083    0.4583    0.0000
  band No.  band energies     occupation 
      1     -17.6013      2.00000
      2     -14.8827      2.00000
      3     -12.0848      2.00000
      4      -5.1496      2.00000
      5      -1.2744      0.00000
      6       7.2050      0.00000
      7       7.6165      0.00000
      8       7.7442      0.00000
      9       8.4996      0.00000
     10       8.6680      0.00000
     11       8.9899      0.00000
     12       9.2119      0.00000
     13       9.8816      0.00000
     14       9.9573      0.00000
     15      10.3269      0.00000
     16      11.0571      0.00000
     17      11.1548      0.00000
     18      12.3354      0.00000
     19      12.5452      0.00000
     20      12.6950      0.00000
     21      12.7230      0.00000
     22      12.8421      0.00000
     23      13.0494      0.00000
     24      13.3526      0.00000

 k-point    64 :       0.2917    0.4583    0.0000
  band No.  band energies     occupation 
      1     -17.6760      2.00000
      2     -14.4238      2.00000
      3     -12.5796      2.00000
      4      -5.1590      2.00000
      5      -1.1824      0.00000
      6       7.0990      0.00000
      7       7.4232      0.00000
      8       8.3768      0.00000
      9       8.5362      0.00000
     10       8.8563      0.00000
     11       9.0572      0.00000
     12       9.0686      0.00000
     13       9.7390      0.00000
     14       9.8345      0.00000
     15       9.9181      0.00000
     16      10.9673      0.00000
     17      11.0415      0.00000
     18      12.4609      0.00000
     19      12.6382      0.00000
     20      13.2489      0.00000
     21      13.5857      0.00000
     22      13.7873      0.00000
     23      14.2695      0.00000
     24      14.4593      0.00000

 k-point    65 :       0.3750    0.4583    0.0000
  band No.  band energies     occupation 
      1     -17.4993      2.00000
      2     -15.4926      2.00000
      3     -11.3587      2.00000
      4      -5.1935      2.00000
      5      -1.4136      0.00000
      6       6.7189      0.00000
      7       7.4314      0.00000
      8       7.9591      0.00000
      9       8.7093      0.00000
     10       8.8970      0.00000
     11       9.1973      0.00000
     12       9.4540      0.00000
     13       9.7194      0.00000
     14      10.1010      0.00000
     15      10.1130      0.00000
     16      11.0481      0.00000
     17      11.3501      0.00000
     18      11.3829      0.00000
     19      11.5208      0.00000
     20      11.8118      0.00000
     21      11.8986      0.00000
     22      12.5558      0.00000
     23      12.5854      0.00000
     24      13.1875      0.00000

 k-point    66 :       0.4583    0.4583    0.0000
  band No.  band energies     occupation 
      1     -17.3479      2.00000
      2     -16.2992      2.00000
      3     -10.1256      2.00000
      4      -5.3783      2.00000
      5      -1.5335      0.00000
      6       4.8811      0.00000
      7       8.0704      0.00000
      8       8.2377      0.00000
      9       8.7568      0.00000
     10       9.1323      0.00000
     11       9.4608      0.00000
     12       9.4987      0.00000
     13       9.6981      0.00000
     14       9.7622      0.00000
     15       9.9427      0.00000
     16       9.9866      0.00000
     17      10.4111      0.00000
     18      10.5984      0.00000
     19      10.8286      0.00000
     20      10.8809      0.00000
     21      11.4239      0.00000
     22      11.8204      0.00000
     23      12.0699      0.00000
     24      12.1362      0.00000

 k-point    67 :      -0.4583    0.4583    0.0000
  band No.  band energies     occupation 
      1     -17.9535      2.00000
      2     -15.8412      2.00000
      3      -9.5602      2.00000
      4      -5.7785      2.00000
      5      -1.1787      0.00000
      6       4.1845      0.00000
      7       6.7719      0.00000
      8       7.6255      0.00000
      9       7.9957      0.00000
     10       8.2710      0.00000
     11       8.4918      0.00000
     12       9.0847      0.00000
     13       9.3077      0.00000
     14       9.4081      0.00000
     15      10.0967      0.00000
     16      10.3612      0.00000
     17      10.6729      0.00000
     18      10.7354      0.00000
     19      10.9791      0.00000
     20      11.2093      0.00000
     21      11.6382      0.00000
     22      11.8919      0.00000
     23      12.0824      0.00000
     24      12.3000      0.00000

 k-point    68 :      -0.3750    0.4583    0.0000
  band No.  band energies     occupation 
      1     -18.5847      2.00000
      2     -14.8328      2.00000
      3      -9.9532      2.00000
      4      -6.2211      2.00000
      5      -0.4566      0.00000
      6       4.9502      0.00000
      7       5.8145      0.00000
      8       6.6283      0.00000
      9       6.9813      0.00000
     10       7.2602      0.00000
     11       7.4832      0.00000
     12       8.0810      0.00000
     13       8.3978      0.00000
     14       9.2535      0.00000
     15       9.6770      0.00000
     16      10.6408      0.00000
     17      10.6601      0.00000
     18      11.3161      0.00000
     19      11.5019      0.00000
     20      12.4240      0.00000
     21      12.4931      0.00000
     22      12.7631      0.00000
     23      12.8344      0.00000
     24      13.4600      0.00000

 k-point    69 :      -0.2917    0.4583    0.0000
  band No.  band energies     occupation 
      1     -18.9548      2.00000
      2     -13.6606      2.00000
      3     -10.9742      2.00000
      4      -6.5167      2.00000
      5       0.2514      0.00000
      6       5.2574      0.00000
      7       6.0383      0.00000
      8       6.4201      0.00000
      9       6.6920      0.00000
     10       6.8597      0.00000
     11       6.9513      0.00000
     12       7.5033      0.00000
     13       7.8456      0.00000
     14       8.6539      0.00000
     15       9.1258      0.00000
     16      10.0003      0.00000
     17      10.3908      0.00000
     18      10.7857      0.00000
     19      11.2222      0.00000
     20      12.6553      0.00000
     21      12.7574      0.00000
     22      13.8531      0.00000
     23      14.3681      0.00000
     24      14.6056      0.00000

 k-point    70 :      -0.2083    0.4583    0.0000
  band No.  band energies     occupation 
      1     -19.0254      2.00000
      2     -13.1711      2.00000
      3     -11.4613      2.00000
      4      -6.5735      2.00000
      5       0.4436      0.00000
      6       5.1572      0.00000
      7       5.9166      0.00000
      8       6.3142      0.00000
      9       6.5821      0.00000
     10       6.8166      0.00000
     11       7.3886      0.00000
     12       7.7109      0.00000
     13       7.9306      0.00000
     14       8.5282      0.00000
     15       9.0219      0.00000
     16       9.4728      0.00000
     17       9.8442      0.00000
     18      10.6703      0.00000
     19      11.0682      0.00000
     20      12.5802      0.00000
     21      12.6554      0.00000
     22      14.6424      0.00000
     23      14.8684      0.00000
     24      15.0018      0.00000

 k-point    71 :      -0.1250    0.4583    0.0000
  band No.  band energies     occupation 
      1     -18.7911      2.00000
      2     -14.2110      2.00000
      3     -10.4887      2.00000
      4      -6.3755      2.00000
      5      -0.0541      0.00000
      6       5.4524      0.00000
      7       5.7223      0.00000
      8       6.2938      0.00000
      9       6.6625      0.00000
     10       6.9371      0.00000
     11       7.1662      0.00000
     12       7.7529      0.00000
     13       8.0826      0.00000
     14       8.9139      0.00000
     15       9.3639      0.00000
     16      10.2875      0.00000
     17      10.9666      0.00000
     18      11.1147      0.00000
     19      11.4650      0.00000
     20      12.7307      0.00000
     21      12.9794      0.00000
     22      13.4157      0.00000
     23      13.6024      0.00000
     24      13.6054      0.00000

 k-point    72 :      -0.0417    0.4583    0.0000
  band No.  band energies     occupation 
      1     -18.2674      2.00000
      2     -15.3478      2.00000
      3      -9.7114      2.00000
      4      -5.9744      2.00000
      5      -0.8308      0.00000
      6       4.2532      0.00000
      7       6.2699      0.00000
      8       7.1069      0.00000
      9       7.4644      0.00000
     10       7.7426      0.00000
     11       7.9639      0.00000
     12       8.5622      0.00000
     13       8.8754      0.00000
     14       9.7288      0.00000
     15      10.0525      0.00000
     16      10.1620      0.00000
     17      10.8116      0.00000
     18      11.3485      0.00000
     19      11.5887      0.00000
     20      11.7847      0.00000
     21      11.8256      0.00000
     22      12.0490      0.00000
     23      12.5044      0.00000
     24      13.0218      0.00000


--------------------------------------------------------------------------------------------------------


 soft charge-density along one line, spin component           1
         0         1         2         3         4         5         6         7         8         9
 total charge-density along one line
 
 pseudopotential strength for first ion, spin component:           1
 12.715  21.397   0.000  -0.000   0.000   0.000  -0.000   0.000
 21.397  36.006   0.000  -0.000   0.000   0.000  -0.000   0.000
  0.000   0.000  -3.175   0.000   0.000  -5.691   0.000   0.000
 -0.000  -0.000   0.000  -3.176  -0.000   0.000  -5.693  -0.000
  0.000   0.000   0.000  -0.000  -3.175   0.000  -0.000  -5.691
  0.000   0.000  -5.691   0.000   0.000 -10.179   0.000   0.000
 -0.000  -0.000   0.000  -5.693  -0.000   0.000 -10.182  -0.000
  0.000   0.000   0.000  -0.000  -5.691   0.000  -0.000 -10.179
 total augmentation occupancy for first ion, spin component:           1
  7.801  -2.729  -0.002   0.000  -0.042   0.001   0.000   0.018
 -2.729   0.992   0.001   0.000   0.018  -0.000   0.000  -0.007
 -0.002   0.001   7.372   0.000   0.005  -2.513   0.000  -0.000
  0.000   0.000   0.000   3.307   0.000   0.000  -0.892   0.000
 -0.042   0.018   0.005   0.000   7.376  -0.000   0.000  -2.514
  0.001  -0.000  -2.513   0.000  -0.000   0.870   0.000  -0.000
  0.000   0.000   0.000  -0.892   0.000   0.000   0.247   0.000
  0.018  -0.007  -0.000   0.000  -2.514  -0.000   0.000   0.871


------------------------ aborting loop because EDIFF is reached ----------------------------------------


    CHARGE:  cpu time    0.2580: real time    0.2582
    FORLOC:  cpu time    0.0000: real time    0.0006
    FORNL :  cpu time    0.1450: real time    0.1445
    STRESS:  cpu time    2.0097: real time    2.0158
    FORCOR:  cpu time    0.0140: real time    0.0137
    FORHAR:  cpu time    0.0030: real time    0.0034
    MIXING:  cpu time    0.0000: real time    0.0007
    OFIELD:  cpu time    0.0000: real time    0.0001

  Number of pair interactions contributing to vdW energy:   10141
  Edisp (eV):   -0.10828
    FORVDW:  cpu time    0.0020: real time    0.0014

  FORCE on cell =-STRESS in cart. coord.  units (eV):
  Direction    XX          YY          ZZ          XY          YZ          ZX
  --------------------------------------------------------------------------------------
  Alpha Z     1.37231     1.37231     1.37231
  Ewald    2500.68599  2500.58973 -2769.24911     0.11707     0.00000     0.00000
  Hartree  2462.31390  2462.29876 -2450.98983     0.05123    -0.00000    -0.00000
  E(xc)     -32.39920   -32.39945   -33.35841    -0.00498    -0.00000     0.00000
  Local   -5078.55277 -5078.45159  5090.54551    -0.17154     0.00000    -0.00000
  n-local     8.25988     8.25746     6.82986    -0.04593     0.00000     0.00000
  augment     0.14274     0.14272     0.11790     0.00062    -0.00000    -0.00000
  Kinetic   137.99681   138.04072   154.68510     0.37682     0.00000    -0.00000
  Fock        0.00000     0.00000     0.00000     0.00000     0.00000     0.00000
  vdW        -0.00404    -0.00385    -0.00007    -0.00164     0.00000     0.00000
  -------------------------------------------------------------------------------------
  Total      -0.18437    -0.15319    -0.04675     0.32165     0.00000     0.00000
  in kB      -1.84862    -1.53603    -0.46872     3.22508     0.00000     0.00000
  external pressure =       -1.28 kB  Pullay stress =        0.00 kB


 VOLUME and BASIS-vectors are now :
 -----------------------------------------------------------------------------
  energy-cutoff  :      875.00
  volume of cell :      159.79
      direct lattice vectors                 reciprocal lattice vectors
     1.241332627 -2.141828480  0.000000000     0.404343301 -0.232546851  0.000000000
     1.227081197  2.133600434  0.000000000     0.405902616  0.235247671  0.000000000
     0.000000000  0.000000000 30.282393743     0.000000000  0.000000000  0.033022489

  length of vectors
     2.475547602  2.461296219 30.282393743     0.466445648  0.469146459  0.033022489


 FORCES acting on ions
    electron-ion (+dipol)            ewald-force                    non-local-force                 convergence-correction
 -----------------------------------------------------------------------------------------------
   -.132E+01 -.468E-01 -.844E-07   0.119E+01 0.381E-01 0.000E+00   0.129E+00 0.763E-02 0.000E+00   0.277E-03 -.469E-04 -.140E-11
   0.132E+01 0.468E-01 0.252E-06   -.119E+01 -.381E-01 0.000E+00   -.129E+00 -.763E-02 0.000E+00   -.277E-03 0.469E-04 -.140E-11
 -----------------------------------------------------------------------------------------------
   -.123E-05 0.163E-04 0.168E-06   -.178E-14 -.208E-15 0.000E+00   0.000E+00 0.000E+00 0.000E+00   0.274E-09 0.111E-09 -.280E-11
 
 
 POSITION                                       TOTAL-FORCE (eV/Angst)
 -----------------------------------------------------------------------------------
      0.00075     -0.00011     15.14120        -0.000093     -0.000997      0.000000
      1.23583     -0.71659     15.14120         0.000093      0.000997      0.000000
 -----------------------------------------------------------------------------------
    total drift:                               -0.000001      0.000016      0.000000


--------------------------------------------------------------------------------------------------------



  FREE ENERGIE OF THE ION-ELECTRON SYSTEM (eV)
  ---------------------------------------------------
  free  energy   TOTEN  =       -18.59433763 eV

  energy  without entropy=      -18.59433763  energy(sigma->0) =      -18.59433763
 
 d Force = 0.1166529E-02[-0.255E-06, 0.233E-02]  d Energy = 0.1165583E-02 0.946E-06
 d Force =-0.3882574E-02[-0.767E-02,-0.980E-04]  d Ewald  =-0.3887899E-02 0.533E-05


--------------------------------------------------------------------------------------------------------


    POTLOK:  cpu time    0.0220: real time    0.0218


--------------------------------------------------------------------------------------------------------


 stress matrix after NEB project (eV)
     -0.18437      0.32165      0.00000
      0.32165     -0.15319      0.00000
      0.00000      0.00000     -0.04675
  FORCES: max atom, RMS     0.001001    0.001001
  FORCE total and by dimension    0.001416    0.000997
  Stress total and by dimension    0.516297    0.321649


--------------------------------------------------------------------------------------------------------


  
 reached required accuracy - stopping structural energy minimisation
     LOOP+:  cpu time   28.2187: real time   28.3356
    4ORBIT:  cpu time    0.0000: real time    0.0000

 total amount of memory used by VASP MPI-rank0    94736. kBytes
=======================================================================

   base      :      30000. kBytes
   nonl-proj :      44098. kBytes
   fftplans  :       1579. kBytes
   grid      :       8077. kBytes
   one-center:          6. kBytes
   wavefun   :      10976. kBytes
 
  
  
 General timing and accounting informations for this job:
 ========================================================
  
                  Total CPU time used (sec):      191.690
                            User time (sec):      190.084
                          System time (sec):        1.606
                         Elapsed time (sec):      193.758
  
                   Maximum memory used (kb):      209088.
                   Average memory used (kb):           0.
  
                          Minor page faults:       156370
                          Major page faults:          272
                 Voluntary context switches:         9785
