 running on   24 total cores
 distrk:  each k-point on   24 cores,    1 groups
 distr:  one band on    1 cores,   24 groups
 using from now: INCAR     
 vasp.5.4.4.18Apr17-6-g9f103f2a35 (build Jan 14 2019 14:48:31) complex          
  
 POSCAR found type information on POSCAR  C 
 POSCAR found :  1 types and       2 ions
 scaLAPACK will be used

 ----------------------------------------------------------------------------- 
|                                                                             |
|           W    W    AA    RRRRR   N    N  II  N    N   GGGG   !!!           |
|           W    W   A  A   R    R  NN   N  II  NN   N  G    G  !!!           |
|           W    W  A    A  R    R  N N  N  II  N N  N  G       !!!           |
|           W WW W  AAAAAA  RRRRR   N  N N  II  N  N N  G  GGG   !            |
|           WW  WW  A    A  R   R   N   NN  II  N   NN  G    G                |
|           W    W  A    A  R    R  N    N  II  N    N   GGGG   !!!           |
|                                                                             |
|      For optimal performance we recommend to set                            |
|        NCORE= 4 - approx SQRT( number of cores)                             |
|      NCORE specifies how many cores store one orbital (NPAR=cpu/NCORE).     |
|      This setting can  greatly improve the performance of VASP for DFT.     |
|      The default,   NCORE=1            might be grossly inefficient         |
|      on modern multi-core architectures or massively parallel machines.     |
|      Do your own testing !!!!                                               |
|      Unfortunately you need to use the default for GW and RPA calculations. |
|      (for HF NCORE is supported but not extensively tested yet)             |
|                                                                             |
 ----------------------------------------------------------------------------- 

 WARNING: for PREC=h ENMAX is automatically increase by 25 %
        this was not the case for versions prior to vasp.4.4
 LDA part: xc-table for Pade appr. of Perdew
 POSCAR found type information on POSCAR  C 
 POSCAR found :  1 types and       2 ions
 POSCAR, INCAR and KPOINTS ok, starting setup
 FFT: planning ...
 WAVECAR not read
 WARNING: random wavefunctions but no delay for mixing, default for NELMDL
 entering main loop
       N       E                     dE             d eps       ncg     rms          rms(c)
RMM:   1     0.101404213968E+03    0.10140E+03   -0.15110E+03  1728   0.229E+02
RMM:   2     0.498478571799E+02   -0.51556E+02   -0.28695E+02  1728   0.447E+01
RMM:   3     0.874611378398E+01   -0.41102E+02   -0.19904E+02  1728   0.354E+01
RMM:   4    -0.137853149145E+02   -0.22531E+02   -0.13610E+02  1728   0.347E+01
RMM:   5    -0.184426718691E+02   -0.46574E+01   -0.35438E+01  1728   0.210E+01
RMM:   6    -0.194193244155E+02   -0.97665E+00   -0.80189E+00  1728   0.107E+01
RMM:   7    -0.196404978262E+02   -0.22117E+00   -0.18497E+00  1728   0.537E+00
RMM:   8    -0.196995499254E+02   -0.59052E-01   -0.48833E-01  1728   0.277E+00
RMM:   9    -0.197225746838E+02   -0.23025E-01   -0.20085E-01  3476   0.149E+00
RMM:  10    -0.197263982431E+02   -0.38236E-02   -0.32299E-02  3559   0.503E-01
RMM:  11    -0.197265435231E+02   -0.14528E-03   -0.11180E-03  3484   0.951E-02
RMM:  12    -0.197265684083E+02   -0.24885E-04   -0.19990E-04  3521   0.366E-02    0.911E+00
RMM:  13    -0.188412063613E+02    0.88536E+00   -0.43853E-01  3456   0.186E+00    0.594E+00
RMM:  14    -0.185080968635E+02    0.33311E+00   -0.92581E-01  3456   0.263E+00    0.117E+00
RMM:  15    -0.184874812469E+02    0.20616E-01   -0.25049E-02  3468   0.565E-01    0.124E-01
RMM:  16    -0.184859180950E+02    0.15632E-02   -0.43247E-04  3473   0.793E-02    0.824E-02
RMM:  17    -0.184845998234E+02    0.13183E-02   -0.56570E-04  3458   0.598E-02    0.608E-02
RMM:  18    -0.184845405089E+02    0.59315E-04   -0.16558E-04  3456   0.478E-02    0.571E-02
RMM:  19    -0.184850119305E+02   -0.47142E-03   -0.14649E-04  3456   0.312E-02    0.159E-02
RMM:  20    -0.184853032899E+02   -0.29136E-03   -0.61268E-06  3465   0.673E-03    0.193E-02
RMM:  21    -0.184858603143E+02   -0.55702E-03   -0.43904E-05  3456   0.139E-02    0.628E-03
RMM:  22    -0.184859568992E+02   -0.96585E-04   -0.27969E-06  3396   0.323E-03    0.198E-03
RMM:  23    -0.184859745600E+02   -0.17661E-04   -0.33864E-07  3456   0.155E-03    0.766E-04
RMM:  24    -0.184859893105E+02   -0.14751E-04   -0.14160E-07  3240   0.705E-04    0.363E-04
RMM:  25    -0.184859916368E+02   -0.23263E-05   -0.26356E-09  3115   0.168E-04    0.400E-04
RMM:  26    -0.184859935534E+02   -0.19166E-05   -0.78892E-09  3131   0.244E-04    0.273E-04
RMM:  27    -0.184859948134E+02   -0.12599E-05   -0.55900E-09  3126   0.217E-04    0.269E-04
RMM:  28    -0.184859948513E+02   -0.37910E-07   -0.17580E-11  2827   0.788E-05
   1 F= -.18594274E+02 E0= -.18594274E+02  d E =-.185943E+02
 curvature:   0.00 expect dE= 0.000E+00 dE for cont linesearch  0.000E+00
 trial: gam= 0.00000 g(F)=  0.670E-03 g(S)=  0.000E+00 ort = 0.000E+00 (trialstep = 0.100E+01)
 search vector abs. value=  0.670E-03
 bond charge predicted
       N       E                     dE             d eps       ncg     rms          rms(c)
RMM:   1    -0.184849644032E+02    0.10304E-02   -0.14399E-01  3457   0.153E+00    0.896E-02
RMM:   2    -0.184849468523E+02    0.17551E-04   -0.54294E-04  3456   0.741E-02    0.646E-02
RMM:   3    -0.184849064252E+02    0.40427E-04   -0.76440E-05  3460   0.262E-02    0.204E-02
RMM:   4    -0.184849059585E+02    0.46668E-06   -0.63974E-06  3469   0.751E-03    0.563E-03
RMM:   5    -0.184849059564E+02    0.20864E-08   -0.35375E-07  3393   0.188E-03
   2 F= -.18593172E+02 E0= -.18593172E+02  d E =0.110190E-02
 trial-energy change:    0.001102  1 .order    0.001104   -0.000670    0.002879
 step:   0.1894(harm=  0.1888)  dis= 0.00075  next Energy=   -18.594337 (dE=-0.635E-04)
 bond charge predicted
       N       E                     dE             d eps       ncg     rms          rms(c)
RMM:   1    -0.184860997794E+02   -0.11938E-02   -0.94580E-02  3457   0.124E+00    0.726E-02
RMM:   2    -0.184860876218E+02    0.12158E-04   -0.34614E-04  3456   0.595E-02    0.524E-02
RMM:   3    -0.184860610015E+02    0.26620E-04   -0.50002E-05  3461   0.211E-02    0.163E-02
RMM:   4    -0.184860607170E+02    0.28455E-06   -0.40532E-06  3470   0.599E-03    0.454E-03
RMM:   5    -0.184860607125E+02    0.44793E-08   -0.22496E-07  3316   0.149E-03
   3 F= -.18594338E+02 E0= -.18594338E+02  d E =-.636876E-04
 curvature:  -0.09 expect dE=-0.913E-08 dE for cont linesearch -0.140E-10
 trial: gam=-0.00033 g(F)=  0.967E-07 g(S)=  0.000E+00 ort = 0.315E-06 (trialstep = 0.838E+00)
 search vector abs. value=  0.967E-07
 reached required accuracy - stopping structural energy minimisation
