<?xml version="1.0" encoding="ISO-8859-1"?>
<modeling>
 <generator>
  <i name="program" type="string">vasp </i>
  <i name="version" type="string">5.4.4.18Apr17-6-g9f103f2a35  </i>
  <i name="subversion" type="string">(build Jan 14 2019 14:48:31) complex            parallel </i>
  <i name="platform" type="string">LinuxIFC </i>
  <i name="date" type="string">2019 09 10 </i>
  <i name="time" type="string">15:54:33 </i>
 </generator>
 <incar>
  <i type="int" name="ISTART">     1</i>
  <i type="string" name="PREC">high</i>
  <i type="string" name="ALGO">very</i>
  <i type="int" name="NELM">    40</i>
  <i type="int" name="IBRION">     2</i>
  <i name="EDIFF">      0.00000010</i>
  <i name="EDIFFG">     -0.01000000</i>
  <i type="int" name="NSW">   100</i>
  <i type="logical" name="LREAL"> F  </i>
  <i type="int" name="ISMEAR">     0</i>
  <i name="SIGMA">      0.05000000</i>
  <i type="logical" name="LWAVE"> F  </i>
  <i type="logical" name="LCHARG"> F  </i>
  <v type="int" name="KPOINT_BSE">    -1     0     0     0</v>
  <i type="int" name="NELM">    40</i>
 </incar>
 <structure name="primitive_cell" >
  <crystal>
   <varray name="basis" >
    <v>       1.24133263      -2.14182848       0.00000000 </v>
    <v>       1.22708120       2.13360043       0.00000000 </v>
    <v>       0.00000000       0.00000000      30.28239374 </v>
   </varray>
   <i name="volume">    159.79126713 </i>
   <varray name="rec_basis" >
    <v>       0.40434330      -0.23254685       0.00000000 </v>
    <v>       0.40590262       0.23524767       0.00000000 </v>
    <v>       0.00000000       0.00000000       0.03302249 </v>
   </varray>
  </crystal>
  <varray name="positions" >
   <v>       0.00000262      -0.00000262      -0.50000000 </v>
   <v>      -0.33333262       0.33333262      -0.50000000 </v>
  </varray>
 </structure>
 <varray name="primitive_index" >
  <v type="int" >        1 </v>
  <v type="int" >        2 </v>
 </varray>
 <kpoints>
  <generation param="Monkhorst-Pack">
   <v type="int" name="divisions">      12       12        1 </v>
   <v name="usershift">      0.00000000       0.00000000       0.00000000 </v>
   <v name="genvec1">      0.08333333       0.00000000       0.00000000 </v>
   <v name="genvec2">     -0.00000000       0.08333333       0.00000000 </v>
   <v name="genvec3">      0.00000000       0.00000000       1.00000000 </v>
   <v name="shift">      0.50000000       0.50000000       0.00000000 </v>
  </generation>
  <varray name="kpointlist" >
   <v>       0.04166667       0.04166667       0.00000000 </v>
   <v>       0.12500000       0.04166667       0.00000000 </v>
   <v>       0.20833333       0.04166667       0.00000000 </v>
   <v>       0.29166667       0.04166667       0.00000000 </v>
   <v>       0.37500000       0.04166667       0.00000000 </v>
   <v>       0.45833333       0.04166667       0.00000000 </v>
   <v>      -0.45833333       0.04166667       0.00000000 </v>
   <v>      -0.37500000       0.04166667       0.00000000 </v>
   <v>      -0.29166667       0.04166667       0.00000000 </v>
   <v>      -0.20833333       0.04166667       0.00000000 </v>
   <v>      -0.12500000       0.04166667       0.00000000 </v>
   <v>      -0.04166667       0.04166667       0.00000000 </v>
   <v>       0.04166667       0.12500000       0.00000000 </v>
   <v>       0.12500000       0.12500000       0.00000000 </v>
   <v>       0.20833333       0.12500000       0.00000000 </v>
   <v>       0.29166667       0.12500000       0.00000000 </v>
   <v>       0.37500000       0.12500000       0.00000000 </v>
   <v>       0.45833333       0.12500000       0.00000000 </v>
   <v>      -0.45833333       0.12500000       0.00000000 </v>
   <v>      -0.37500000       0.12500000       0.00000000 </v>
   <v>      -0.29166667       0.12500000       0.00000000 </v>
   <v>      -0.20833333       0.12500000       0.00000000 </v>
   <v>      -0.12500000       0.12500000       0.00000000 </v>
   <v>      -0.04166667       0.12500000       0.00000000 </v>
   <v>       0.04166667       0.20833333       0.00000000 </v>
   <v>       0.12500000       0.20833333       0.00000000 </v>
   <v>       0.20833333       0.20833333       0.00000000 </v>
   <v>       0.29166667       0.20833333       0.00000000 </v>
   <v>       0.37500000       0.20833333       0.00000000 </v>
   <v>       0.45833333       0.20833333       0.00000000 </v>
   <v>      -0.45833333       0.20833333       0.00000000 </v>
   <v>      -0.37500000       0.20833333       0.00000000 </v>
   <v>      -0.29166667       0.20833333       0.00000000 </v>
   <v>      -0.20833333       0.20833333       0.00000000 </v>
   <v>      -0.12500000       0.20833333       0.00000000 </v>
   <v>      -0.04166667       0.20833333       0.00000000 </v>
   <v>       0.04166667       0.29166667       0.00000000 </v>
   <v>       0.12500000       0.29166667       0.00000000 </v>
   <v>       0.20833333       0.29166667       0.00000000 </v>
   <v>       0.29166667       0.29166667       0.00000000 </v>
   <v>       0.37500000       0.29166667       0.00000000 </v>
   <v>       0.45833333       0.29166667       0.00000000 </v>
   <v>      -0.45833333       0.29166667       0.00000000 </v>
   <v>      -0.37500000       0.29166667       0.00000000 </v>
   <v>      -0.29166667       0.29166667       0.00000000 </v>
   <v>      -0.20833333       0.29166667       0.00000000 </v>
   <v>      -0.12500000       0.29166667       0.00000000 </v>
   <v>      -0.04166667       0.29166667       0.00000000 </v>
   <v>       0.04166667       0.37500000       0.00000000 </v>
   <v>       0.12500000       0.37500000       0.00000000 </v>
   <v>       0.20833333       0.37500000       0.00000000 </v>
   <v>       0.29166667       0.37500000       0.00000000 </v>
   <v>       0.37500000       0.37500000       0.00000000 </v>
   <v>       0.45833333       0.37500000       0.00000000 </v>
   <v>      -0.45833333       0.37500000       0.00000000 </v>
   <v>      -0.37500000       0.37500000       0.00000000 </v>
   <v>      -0.29166667       0.37500000       0.00000000 </v>
   <v>      -0.20833333       0.37500000       0.00000000 </v>
   <v>      -0.12500000       0.37500000       0.00000000 </v>
   <v>      -0.04166667       0.37500000       0.00000000 </v>
   <v>       0.04166667       0.45833333       0.00000000 </v>
   <v>       0.12500000       0.45833333       0.00000000 </v>
   <v>       0.20833333       0.45833333       0.00000000 </v>
   <v>       0.29166667       0.45833333       0.00000000 </v>
   <v>       0.37500000       0.45833333       0.00000000 </v>
   <v>       0.45833333       0.45833333       0.00000000 </v>
   <v>      -0.45833333       0.45833333       0.00000000 </v>
   <v>      -0.37500000       0.45833333       0.00000000 </v>
   <v>      -0.29166667       0.45833333       0.00000000 </v>
   <v>      -0.20833333       0.45833333       0.00000000 </v>
   <v>      -0.12500000       0.45833333       0.00000000 </v>
   <v>      -0.04166667       0.45833333       0.00000000 </v>
  </varray>
  <varray name="weights" >
   <v>       0.01388889 </v>
   <v>       0.01388889 </v>
   <v>       0.01388889 </v>
   <v>       0.01388889 </v>
   <v>       0.01388889 </v>
   <v>       0.01388889 </v>
   <v>       0.01388889 </v>
   <v>       0.01388889 </v>
   <v>       0.01388889 </v>
   <v>       0.01388889 </v>
   <v>       0.01388889 </v>
   <v>       0.01388889 </v>
   <v>       0.01388889 </v>
   <v>       0.01388889 </v>
   <v>       0.01388889 </v>
   <v>       0.01388889 </v>
   <v>       0.01388889 </v>
   <v>       0.01388889 </v>
   <v>       0.01388889 </v>
   <v>       0.01388889 </v>
   <v>       0.01388889 </v>
   <v>       0.01388889 </v>
   <v>       0.01388889 </v>
   <v>       0.01388889 </v>
   <v>       0.01388889 </v>
   <v>       0.01388889 </v>
   <v>       0.01388889 </v>
   <v>       0.01388889 </v>
   <v>       0.01388889 </v>
   <v>       0.01388889 </v>
   <v>       0.01388889 </v>
   <v>       0.01388889 </v>
   <v>       0.01388889 </v>
   <v>       0.01388889 </v>
   <v>       0.01388889 </v>
   <v>       0.01388889 </v>
   <v>       0.01388889 </v>
   <v>       0.01388889 </v>
   <v>       0.01388889 </v>
   <v>       0.01388889 </v>
   <v>       0.01388889 </v>
   <v>       0.01388889 </v>
   <v>       0.01388889 </v>
   <v>       0.01388889 </v>
   <v>       0.01388889 </v>
   <v>       0.01388889 </v>
   <v>       0.01388889 </v>
   <v>       0.01388889 </v>
   <v>       0.01388889 </v>
   <v>       0.01388889 </v>
   <v>       0.01388889 </v>
   <v>       0.01388889 </v>
   <v>       0.01388889 </v>
   <v>       0.01388889 </v>
   <v>       0.01388889 </v>
   <v>       0.01388889 </v>
   <v>       0.01388889 </v>
   <v>       0.01388889 </v>
   <v>       0.01388889 </v>
   <v>       0.01388889 </v>
   <v>       0.01388889 </v>
   <v>       0.01388889 </v>
   <v>       0.01388889 </v>
   <v>       0.01388889 </v>
   <v>       0.01388889 </v>
   <v>       0.01388889 </v>
   <v>       0.01388889 </v>
   <v>       0.01388889 </v>
   <v>       0.01388889 </v>
   <v>       0.01388889 </v>
   <v>       0.01388889 </v>
   <v>       0.01388889 </v>
  </varray>
 </kpoints>
 <parameters>
  <separator name="general" >
   <i type="string" name="SYSTEM">unknown system</i>
   <i type="logical" name="LCOMPAT"> F  </i>
  </separator>
  <separator name="electronic" >
   <i type="string" name="PREC">high</i>
   <i name="ENMAX">    875.00000000</i>
   <i name="ENAUG">    946.76800000</i>
   <i name="EDIFF">      0.00000010</i>
   <i type="int" name="IALGO">    48</i>
   <i type="int" name="IWAVPR">    11</i>
   <i type="int" name="NBANDS">    24</i>
   <i name="NELECT">      8.00000000</i>
   <i type="int" name="TURBO">     0</i>
   <i type="int" name="IRESTART">     0</i>
   <i type="int" name="NREBOOT">     0</i>
   <i type="int" name="NMIN">     0</i>
   <i name="EREF">      0.00000000</i>
   <separator name="electronic smearing" >
    <i type="int" name="ISMEAR">     0</i>
    <i name="SIGMA">      0.05000000</i>
    <i name="KSPACING">      0.50000000</i>
    <i type="logical" name="KGAMMA"> T  </i>
   </separator>
   <separator name="electronic projectors" >
    <i type="logical" name="LREAL"> F  </i>
    <v name="ROPT">      0.00000000</v>
    <i type="int" name="LMAXPAW">  -100</i>
    <i type="int" name="LMAXMIX">     2</i>
    <i type="logical" name="NLSPLINE"> F  </i>
   </separator>
   <separator name="electronic startup" >
    <i type="int" name="ISTART">     0</i>
    <i type="int" name="ICHARG">     2</i>
    <i type="int" name="INIWAV">     1</i>
   </separator>
   <separator name="electronic spin" >
    <i type="int" name="ISPIN">     1</i>
    <i type="logical" name="LNONCOLLINEAR"> F  </i>
    <v name="MAGMOM">      1.00000000      1.00000000</v>
    <i name="NUPDOWN">     -1.00000000</i>
    <i type="logical" name="LSORBIT"> F  </i>
    <v name="SAXIS">      0.00000000      0.00000000      1.00000000</v>
    <i type="logical" name="LSPIRAL"> F  </i>
    <v name="QSPIRAL">      0.00000000      0.00000000      0.00000000</v>
    <i type="logical" name="LZEROZ"> F  </i>
   </separator>
   <separator name="electronic exchange-correlation" >
    <i type="logical" name="LASPH"> F  </i>
    <i type="logical" name="LMETAGGA"> F  </i>
   </separator>
   <separator name="electronic convergence" >
    <i type="int" name="NELM">    40</i>
    <i type="int" name="NELMDL">     0</i>
    <i type="int" name="NELMIN">     2</i>
    <i name="ENINI">    875.00000000</i>
    <separator name="electronic convergence detail" >
     <i type="logical" name="LDIAG"> T  </i>
     <i type="logical" name="LSUBROT"> F  </i>
     <i name="WEIMIN">      0.00100000</i>
     <i name="EBREAK">      0.00000000</i>
     <i name="DEPER">      0.30000000</i>
     <i type="int" name="NRMM">     4</i>
     <i name="TIME">      0.40000000</i>
    </separator>
   </separator>
   <separator name="electronic mixer" >
    <i name="AMIX">      0.40000000</i>
    <i name="BMIX">      1.00000000</i>
    <i name="AMIN">      0.10000000</i>
    <i name="AMIX_MAG">      1.60000000</i>
    <i name="BMIX_MAG">      1.00000000</i>
    <separator name="electronic mixer details" >
     <i type="int" name="IMIX">     4</i>
     <i type="logical" name="MIXFIRST"> F  </i>
     <i type="int" name="MAXMIX">   -45</i>
     <i name="WC">    100.00000000</i>
     <i type="int" name="INIMIX">     1</i>
     <i type="int" name="MIXPRE">     1</i>
     <i type="int" name="MREMOVE">     5</i>
    </separator>
   </separator>
   <separator name="electronic dipolcorrection" >
    <i type="logical" name="LDIPOL"> F  </i>
    <i type="logical" name="LMONO"> F  </i>
    <i type="int" name="IDIPOL">     0</i>
    <i name="EPSILON">      1.00000000</i>
    <v name="DIPOL">   -100.00000000   -100.00000000   -100.00000000</v>
    <i name="EFIELD">      0.00000000</i>
   </separator>
  </separator>
  <separator name="grids" >
   <i type="int" name="NGX">    24</i>
   <i type="int" name="NGY">    24</i>
   <i type="int" name="NGZ">   294</i>
   <i type="int" name="NGXF">    36</i>
   <i type="int" name="NGYF">    32</i>
   <i type="int" name="NGZF">   420</i>
   <i type="logical" name="ADDGRID"> F  </i>
  </separator>
  <separator name="ionic" >
   <i type="int" name="NSW">   100</i>
   <i type="int" name="IBRION">     2</i>
   <i type="int" name="MDALGO">     0</i>
   <i type="int" name="ISIF">     2</i>
   <i name="PSTRESS">      0.00000000</i>
   <i name="EDIFFG">     -0.01000000</i>
   <i type="int" name="NFREE">     1</i>
   <i name="POTIM">      0.50000000</i>
   <i name="SMASS">     -3.00000000</i>
   <i name="SCALEE">      1.00000000</i>
  </separator>
  <separator name="ionic md" >
   <i name="TEBEG">      0.00010000</i>
   <i name="TEEND">      0.00010000</i>
   <i type="int" name="NBLOCK">     1</i>
   <i type="int" name="KBLOCK">   100</i>
   <i type="int" name="NPACO">   256</i>
   <i name="APACO">     16.00000000</i>
  </separator>
  <separator name="symmetry" >
   <i type="int" name="ISYM">     2</i>
   <i name="SYMPREC">      0.00001000</i>
  </separator>
  <separator name="dos" >
   <i type="int" name="LORBIT">     0</i>
   <v name="RWIGS">     -1.00000000</v>
   <i type="int" name="NEDOS">   301</i>
   <i name="EMIN">     10.00000000</i>
   <i name="EMAX">    -10.00000000</i>
   <i name="EFERMI">      0.00000000</i>
  </separator>
  <separator name="writing" >
   <i type="int" name="NWRITE">     2</i>
   <i type="logical" name="LWAVE"> F  </i>
   <i type="logical" name="LDOWNSAMPLE"> F  </i>
   <i type="logical" name="LCHARG"> F  </i>
   <i type="logical" name="LPARD"> F  </i>
   <i type="logical" name="LVTOT"> F  </i>
   <i type="logical" name="LVHAR"> F  </i>
   <i type="logical" name="LELF"> F  </i>
   <i type="logical" name="LOPTICS"> F  </i>
   <v name="STM">      0.00000000      0.00000000      0.00000000      0.00000000      0.00000000      0.00000000      0.00000000</v>
  </separator>
  <separator name="performance" >
   <i type="int" name="NPAR">    24</i>
   <i type="int" name="NSIM">     4</i>
   <i type="int" name="NBLK">    -1</i>
   <i type="logical" name="LPLANE"> T  </i>
   <i type="logical" name="LSCALAPACK"> T  </i>
   <i type="logical" name="LSCAAWARE"> F  </i>
   <i type="logical" name="LSCALU"> F  </i>
   <i type="logical" name="LASYNC"> F  </i>
   <i type="logical" name="LORBITALREAL"> F  </i>
  </separator>
  <separator name="miscellaneous" >
   <i type="int" name="IDIOT">     3</i>
   <i type="int" name="ISPECIAL">     0</i>
   <i type="logical" name="LMUSIC"> F  </i>
   <v name="POMASS">     12.01100000</v>
   <v name="DARWINR">      0.00000000</v>
   <v name="DARWINV">      1.00000000</v>
   <i type="logical" name="LCORR"> T  </i>
  </separator>
  <i type="logical" name="GGA_COMPAT"> T  </i>
  <i type="logical" name="LBERRY"> F  </i>
  <i type="int" name="ICORELEVEL">     0</i>
  <i type="logical" name="LDAU"> F  </i>
  <i type="int" name="I_CONSTRAINED_M">     0</i>
  <separator name="electronic exchange-correlation" >
   <i type="string" name="GGA">--</i>
   <i type="int" name="VOSKOWN">     0</i>
   <i type="logical" name="LHFCALC"> F  </i>
   <i type="string" name="PRECFOCK"></i>
   <i type="logical" name="LSYMGRAD"> F  </i>
   <i type="logical" name="LHFONE"> F  </i>
   <i type="logical" name="LRHFCALC"> F  </i>
   <i type="logical" name="LTHOMAS"> F  </i>
   <i type="logical" name="LMODELHF"> F  </i>
   <i name="ENCUT4O">     -1.00000000</i>
   <i type="int" name="EXXOEP">     0</i>
   <i type="int" name="FOURORBIT">     0</i>
   <i name="AEXX">      0.00000000</i>
   <i name="HFALPHA">      0.00000000</i>
   <i name="MCALPHA">      0.00000000</i>
   <i name="ALDAX">      1.00000000</i>
   <i name="AGGAX">      1.00000000</i>
   <i name="ALDAC">      1.00000000</i>
   <i name="AGGAC">      1.00000000</i>
   <i type="int" name="NKREDX">     1</i>
   <i type="int" name="NKREDY">     1</i>
   <i type="int" name="NKREDZ">     1</i>
   <i type="logical" name="SHIFTRED"> F  </i>
   <i type="logical" name="ODDONLY"> F  </i>
   <i type="logical" name="EVENONLY"> F  </i>
   <i type="int" name="LMAXFOCK">     0</i>
   <i type="int" name="NMAXFOCKAE">     0</i>
   <i type="logical" name="LFOCKAEDFT"> F  </i>
   <i name="HFSCREEN">      0.00000000</i>
   <i name="HFSCREENC">      0.00000000</i>
   <i type="int" name="NBANDSGWLOW">     0</i>
  </separator>
  <separator name="vdW DFT" >
   <i type="logical" name="LUSE_VDW"> F  </i>
   <i name="Zab_VDW">     -0.84910000</i>
   <i name="PARAM1">      0.12340000</i>
   <i name="PARAM2">      1.00000000</i>
   <i name="PARAM3">      0.00000000</i>
  </separator>
  <separator name="model GW" >
   <i type="int" name="MODEL_GW">     0</i>
   <i name="MODEL_EPS0">     47.93738014</i>
   <i name="MODEL_ALPHA">      1.00000000</i>
  </separator>
  <separator name="linear response parameters" >
   <i type="logical" name="LEPSILON"> F  </i>
   <i type="logical" name="LRPA"> F  </i>
   <i type="logical" name="LNABLA"> F  </i>
   <i type="logical" name="LVEL"> F  </i>
   <i type="int" name="KINTER">     0</i>
   <i name="CSHIFT">      0.10000000</i>
   <i name="OMEGAMAX">     -1.00000000</i>
   <i name="DEG_THRESHOLD">      0.00200000</i>
   <i name="RTIME">     -0.10000000</i>
   <i name="WPLASMAI">      0.00000000</i>
   <v name="DFIELD">      0.00000000      0.00000000      0.00000000</v>
   <v name="WPLASMA">      0.00000000      0.00000000      0.00000000      0.00000000      0.00000000      0.00000000      0.00000000      0.00000000      0.00000000</v>
  </separator>
  <separator name="orbital magnetization" >
   <i type="logical" name="NUCIND"> F  </i>
   <v name="MAGPOS">      0.00000000      0.00000000      0.00000000</v>
   <i type="logical" name="LNICSALL"> T  </i>
   <i type="logical" name="ORBITALMAG"> F  </i>
   <i type="logical" name="LMAGBLOCH"> F  </i>
   <i type="logical" name="LCHIMAG"> F  </i>
   <i type="logical" name="LGAUGE"> T  </i>
   <i type="int" name="MAGATOM">     0</i>
   <v name="MAGDIPOL">      0.00000000      0.00000000      0.00000000</v>
   <v name="AVECCONST">      0.00000000      0.00000000      0.00000000</v>
  </separator>
  <separator name="response functions" >
   <i type="logical" name="LADDER"> F  </i>
   <i type="logical" name="LRPAFORCE"> F  </i>
   <i type="logical" name="LFXC"> F  </i>
   <i type="logical" name="LHARTREE"> T  </i>
   <i type="int" name="IBSE">     0</i>
   <v type="int" name="KPOINT">    -1     0     0     0</v>
   <i type="logical" name="LTCTE"> F  </i>
   <i type="logical" name="LTETE"> F  </i>
   <i type="logical" name="LTRIPLET"> F  </i>
   <i type="logical" name="LFXCEPS"> F  </i>
   <i type="logical" name="LFXHEG"> F  </i>
   <i type="int" name="NATURALO">     2</i>
   <i type="logical" name="L2ORDER"> F  </i>
   <i type="logical" name="LMP2LT"> F  </i>
   <i type="logical" name="LUSEW"> F  </i>
   <i name="ENCUTGW">     -2.00000000</i>
   <i name="ENCUTGWSOFT">     -2.00000000</i>
   <i name="ENCUTLF">     -1.00000000</i>
   <i type="int" name="LMAXMP2">    -1</i>
   <i name="SCISSOR">      0.00000000</i>
   <i type="int" name="NOMEGA">     0</i>
   <i type="int" name="NOMEGAR">     0</i>
   <i type="int" name="NBANDSGW">    -1</i>
   <i type="int" name="NBANDSO">    -1</i>
   <i type="int" name="NBANDSV">    -1</i>
   <i type="int" name="NELM">    40</i>
   <i type="int" name="NELMHF">     1</i>
   <i type="int" name="DIM">     3</i>
   <i type="int" name="ANTIRES">     0</i>
   <i name="OMEGAMAX">    -30.00000000</i>
   <i name="OMEGAMIN">    -30.00000000</i>
   <i name="OMEGATL">   -200.00000000</i>
   <i type="int" name="OMEGAGRID">   140</i>
   <i name="CSHIFT">     -0.10000000</i>
   <i type="logical" name="SELFENERGY"> F  </i>
   <i type="logical" name="LSPECTRAL"> F  </i>
   <i type="logical" name="LSPECTRALGW"> F  </i>
   <i type="logical" name="LSINGLES"> F  </i>
   <i type="logical" name="LFERMIGW"> F  </i>
   <i type="logical" name="ODDONLYGW"> F  </i>
   <i type="logical" name="EVENONLYGW"> F  </i>
   <i type="int" name="NKREDLFX">     1</i>
   <i type="int" name="NKREDLFY">     1</i>
   <i type="int" name="NKREDLFZ">     1</i>
   <i type="int" name="MAXMEM">  2800</i>
   <i type="int" name="TELESCOPE">     0</i>
   <i type="int" name="TAUPAR">     1</i>
   <i type="int" name="OMEGAPAR">    -1</i>
   <i name="LAMBDA">      1.00000000</i>
  </separator>
  <separator name="External order field" >
   <i name="OFIELD_KAPPA">      0.00000000</i>
   <v name="OFIELD_K">      0.00000000      0.00000000      0.00000000</v>
   <i name="OFIELD_Q6_NEAR">      0.00000000</i>
   <i name="OFIELD_Q6_FAR">      0.00000000</i>
   <i name="OFIELD_A">      0.00000000</i>
  </separator>
 </parameters>
 <atominfo>
  <atoms>       2 </atoms>
  <types>       1 </types>
  <array name="atoms" >
   <dimension dim="1">ion</dimension>
   <field type="string">element</field>
   <field type="int">atomtype</field>
   <set>
    <rc><c>C </c><c>   1</c></rc>
    <rc><c>C </c><c>   1</c></rc>
   </set>
  </array>
  <array name="atomtypes" >
   <dimension dim="1">type</dimension>
   <field type="int">atomspertype</field>
   <field type="string">element</field>
   <field>mass</field>
   <field>valence</field>
   <field type="string">pseudopotential</field>
   <set>
    <rc><c>   2</c><c>C </c><c>     12.01100000</c><c>      4.00000000</c><c>  PAW_PBE C_h 06Feb2004                 </c></rc>
   </set>
  </array>
 </atominfo>
 <structure name="initialpos" >
  <crystal>
   <varray name="basis" >
    <v>       1.24133263      -2.14182848       0.00000000 </v>
    <v>       1.22708120       2.13360043       0.00000000 </v>
    <v>       0.00000000       0.00000000      30.28239374 </v>
   </varray>
   <i name="volume">    159.79126713 </i>
   <varray name="rec_basis" >
    <v>       0.40434330      -0.23254685       0.00000000 </v>
    <v>       0.40590262       0.23524767       0.00000000 </v>
    <v>       0.00000000       0.00000000       0.03302249 </v>
   </varray>
  </crystal>
  <varray name="positions" >
   <v>       0.00000262       0.99999738       0.50000000 </v>
   <v>       0.66666738       0.33333262       0.50000000 </v>
  </varray>
 </structure>
 <calculation>
  <scstep>
   <time name="diag">    1.09    1.18</time>
   <time name="diis">    2.09    2.12</time>
   <time name="orth">    0.05    0.05</time>
   <time name="total">    3.28    3.44</time>
   <energy>
    <i name="alphaZ">      1.37230889 </i>
    <i name="ewald">   2232.02869137 </i>
    <i name="hartreedc">  -2438.24938802 </i>
    <i name="XCdc">     14.48586741 </i>
    <i name="pawpsdc">    228.69403340 </i>
    <i name="pawaedc">   -218.18290438 </i>
    <i name="eentropy">     -0.00215765 </i>
    <i name="bandstr">    -13.04543021 </i>
    <i name="atom">    294.30319316 </i>
    <i name="e_fr_energy">    101.40421397 </i>
    <i name="e_wo_entrp">    101.40637162 </i>
    <i name="e_0_energy">    101.40529279 </i>
   </energy>
  </scstep>
  <scstep>
   <time name="diag">    1.06    1.07</time>
   <time name="diis">    2.05    2.06</time>
   <time name="orth">    0.05    0.05</time>
   <time name="total">    3.17    3.19</time>
   <energy>
    <i name="e_fr_energy">     49.84785718 </i>
    <i name="e_wo_entrp">     49.85086403 </i>
    <i name="e_0_energy">     49.84936061 </i>
   </energy>
  </scstep>
  <scstep>
   <time name="diag">    1.07    1.08</time>
   <time name="diis">    2.05    2.05</time>
   <time name="orth">    0.05    0.05</time>
   <time name="total">    3.17    3.18</time>
   <energy>
    <i name="e_fr_energy">      8.74611378 </i>
    <i name="e_wo_entrp">      8.74767152 </i>
    <i name="e_0_energy">      8.74689265 </i>
   </energy>
  </scstep>
  <scstep>
   <time name="diag">    1.06    1.07</time>
   <time name="diis">    2.06    2.06</time>
   <time name="orth">    0.05    0.05</time>
   <time name="total">    3.17    3.19</time>
   <energy>
    <i name="e_fr_energy">    -13.78531491 </i>
    <i name="e_wo_entrp">    -13.78526366 </i>
    <i name="e_0_energy">    -13.78528929 </i>
   </energy>
  </scstep>
  <scstep>
   <time name="diag">    1.07    1.08</time>
   <time name="diis">    2.07    2.07</time>
   <time name="orth">    0.05    0.05</time>
   <time name="total">    3.19    3.20</time>
   <energy>
    <i name="e_fr_energy">    -18.44267187 </i>
    <i name="e_wo_entrp">    -18.44267187 </i>
    <i name="e_0_energy">    -18.44267187 </i>
   </energy>
  </scstep>
  <scstep>
   <time name="diag">    1.06    1.08</time>
   <time name="diis">    2.07    2.07</time>
   <time name="orth">    0.05    0.05</time>
   <time name="total">    3.18    3.20</time>
   <energy>
    <i name="e_fr_energy">    -19.41932442 </i>
    <i name="e_wo_entrp">    -19.41932442 </i>
    <i name="e_0_energy">    -19.41932442 </i>
   </energy>
  </scstep>
  <scstep>
   <time name="diag">    1.06    1.08</time>
   <time name="diis">    2.06    2.06</time>
   <time name="orth">    0.05    0.05</time>
   <time name="total">    3.17    3.19</time>
   <energy>
    <i name="e_fr_energy">    -19.64049783 </i>
    <i name="e_wo_entrp">    -19.64049783 </i>
    <i name="e_0_energy">    -19.64049783 </i>
   </energy>
  </scstep>
  <scstep>
   <time name="diag">    1.06    1.08</time>
   <time name="diis">    2.07    2.07</time>
   <time name="orth">    0.05    0.05</time>
   <time name="total">    3.18    3.20</time>
   <energy>
    <i name="e_fr_energy">    -19.69954993 </i>
    <i name="e_wo_entrp">    -19.69954993 </i>
    <i name="e_0_energy">    -19.69954993 </i>
   </energy>
  </scstep>
  <scstep>
   <time name="diag">    1.06    1.08</time>
   <time name="diis">    3.98    4.03</time>
   <time name="orth">    0.05    0.05</time>
   <time name="total">    5.09    5.16</time>
   <energy>
    <i name="e_fr_energy">    -19.72257468 </i>
    <i name="e_wo_entrp">    -19.72257468 </i>
    <i name="e_0_energy">    -19.72257468 </i>
   </energy>
  </scstep>
  <scstep>
   <time name="diag">    1.06    1.07</time>
   <time name="diis">    4.47    4.48</time>
   <time name="orth">    0.05    0.05</time>
   <time name="total">    5.58    5.60</time>
   <energy>
    <i name="e_fr_energy">    -19.72639824 </i>
    <i name="e_wo_entrp">    -19.72639824 </i>
    <i name="e_0_energy">    -19.72639824 </i>
   </energy>
  </scstep>
  <scstep>
   <time name="diag">    1.06    1.08</time>
   <time name="diis">    3.86    3.87</time>
   <time name="orth">    0.05    0.05</time>
   <time name="total">    4.98    5.00</time>
   <energy>
    <i name="e_fr_energy">    -19.72654352 </i>
    <i name="e_wo_entrp">    -19.72654352 </i>
    <i name="e_0_energy">    -19.72654352 </i>
   </energy>
  </scstep>
  <scstep>
   <time name="diag">    1.06    1.08</time>
   <time name="diis">    4.28    4.29</time>
   <time name="orth">    0.05    0.05</time>
   <time name="total">    5.67    5.73</time>
   <energy>
    <i name="e_fr_energy">    -19.72656841 </i>
    <i name="e_wo_entrp">    -19.72656841 </i>
    <i name="e_0_energy">    -19.72656841 </i>
   </energy>
  </scstep>
  <scstep>
   <time name="diag">    1.05    1.05</time>
   <time name="diis">    3.77    3.79</time>
   <time name="orth">    0.05    0.05</time>
   <time name="total">    5.16    5.21</time>
   <energy>
    <i name="e_fr_energy">    -18.84120636 </i>
    <i name="e_wo_entrp">    -18.84120636 </i>
    <i name="e_0_energy">    -18.84120636 </i>
   </energy>
  </scstep>
  <scstep>
   <time name="diag">    1.05    1.05</time>
   <time name="diis">    3.76    3.77</time>
   <time name="orth">    0.05    0.05</time>
   <time name="total">    5.15    5.18</time>
   <energy>
    <i name="e_fr_energy">    -18.50809686 </i>
    <i name="e_wo_entrp">    -18.50809686 </i>
    <i name="e_0_energy">    -18.50809686 </i>
   </energy>
  </scstep>
  <scstep>
   <time name="diag">    1.05    1.05</time>
   <time name="diis">    3.83    3.84</time>
   <time name="orth">    0.05    0.05</time>
   <time name="total">    5.21    5.24</time>
   <energy>
    <i name="e_fr_energy">    -18.48748125 </i>
    <i name="e_wo_entrp">    -18.48748125 </i>
    <i name="e_0_energy">    -18.48748125 </i>
   </energy>
  </scstep>
  <scstep>
   <time name="diag">    1.05    1.05</time>
   <time name="diis">    3.91    3.92</time>
   <time name="orth">    0.05    0.05</time>
   <time name="total">    5.30    5.32</time>
   <energy>
    <i name="e_fr_energy">    -18.48591810 </i>
    <i name="e_wo_entrp">    -18.48591810 </i>
    <i name="e_0_energy">    -18.48591810 </i>
   </energy>
  </scstep>
  <scstep>
   <time name="diag">    1.05    1.05</time>
   <time name="diis">    3.85    3.86</time>
   <time name="orth">    0.05    0.05</time>
   <time name="total">    5.23    5.25</time>
   <energy>
    <i name="e_fr_energy">    -18.48459982 </i>
    <i name="e_wo_entrp">    -18.48459982 </i>
    <i name="e_0_energy">    -18.48459982 </i>
   </energy>
  </scstep>
  <scstep>
   <time name="diag">    1.05    1.05</time>
   <time name="diis">    3.86    3.87</time>
   <time name="orth">    0.05    0.05</time>
   <time name="total">    5.25    5.27</time>
   <energy>
    <i name="e_fr_energy">    -18.48454051 </i>
    <i name="e_wo_entrp">    -18.48454051 </i>
    <i name="e_0_energy">    -18.48454051 </i>
   </energy>
  </scstep>
  <scstep>
   <time name="diag">    1.05    1.05</time>
   <time name="diis">    3.82    3.83</time>
   <time name="orth">    0.05    0.05</time>
   <time name="total">    5.21    5.23</time>
   <energy>
    <i name="e_fr_energy">    -18.48501193 </i>
    <i name="e_wo_entrp">    -18.48501193 </i>
    <i name="e_0_energy">    -18.48501193 </i>
   </energy>
  </scstep>
  <scstep>
   <time name="diag">    1.06    1.06</time>
   <time name="diis">    3.91    3.92</time>
   <time name="orth">    0.05    0.05</time>
   <time name="total">    5.31    5.32</time>
   <energy>
    <i name="e_fr_energy">    -18.48530329 </i>
    <i name="e_wo_entrp">    -18.48530329 </i>
    <i name="e_0_energy">    -18.48530329 </i>
   </energy>
  </scstep>
  <scstep>
   <time name="diag">    1.05    1.05</time>
   <time name="diis">    3.84    3.85</time>
   <time name="orth">    0.05    0.05</time>
   <time name="total">    5.22    5.24</time>
   <energy>
    <i name="e_fr_energy">    -18.48586031 </i>
    <i name="e_wo_entrp">    -18.48586031 </i>
    <i name="e_0_energy">    -18.48586031 </i>
   </energy>
  </scstep>
  <scstep>
   <time name="diag">    1.05    1.05</time>
   <time name="diis">    3.70    3.71</time>
   <time name="orth">    0.05    0.05</time>
   <time name="total">    5.09    5.11</time>
   <energy>
    <i name="e_fr_energy">    -18.48595690 </i>
    <i name="e_wo_entrp">    -18.48595690 </i>
    <i name="e_0_energy">    -18.48595690 </i>
   </energy>
  </scstep>
  <scstep>
   <time name="diag">    1.05    1.05</time>
   <time name="diis">    3.84    3.85</time>
   <time name="orth">    0.05    0.05</time>
   <time name="total">    5.22    5.27</time>
   <energy>
    <i name="e_fr_energy">    -18.48597456 </i>
    <i name="e_wo_entrp">    -18.48597456 </i>
    <i name="e_0_energy">    -18.48597456 </i>
   </energy>
  </scstep>
  <scstep>
   <time name="diag">    1.05    1.05</time>
   <time name="diis">    3.75    3.76</time>
   <time name="orth">    0.05    0.05</time>
   <time name="total">    5.13    5.16</time>
   <energy>
    <i name="e_fr_energy">    -18.48598931 </i>
    <i name="e_wo_entrp">    -18.48598931 </i>
    <i name="e_0_energy">    -18.48598931 </i>
   </energy>
  </scstep>
  <scstep>
   <time name="diag">    1.05    1.05</time>
   <time name="diis">    3.71    3.72</time>
   <time name="orth">    0.05    0.05</time>
   <time name="total">    5.09    5.12</time>
   <energy>
    <i name="e_fr_energy">    -18.48599164 </i>
    <i name="e_wo_entrp">    -18.48599164 </i>
    <i name="e_0_energy">    -18.48599164 </i>
   </energy>
  </scstep>
  <scstep>
   <time name="diag">    1.06    1.06</time>
   <time name="diis">    3.75    3.76</time>
   <time name="orth">    0.05    0.05</time>
   <time name="total">    5.14    5.16</time>
   <energy>
    <i name="e_fr_energy">    -18.48599355 </i>
    <i name="e_wo_entrp">    -18.48599355 </i>
    <i name="e_0_energy">    -18.48599355 </i>
   </energy>
  </scstep>
  <scstep>
   <time name="diag">    1.05    1.05</time>
   <time name="diis">    3.72    3.73</time>
   <time name="orth">    0.05    0.05</time>
   <time name="total">    5.10    5.13</time>
   <energy>
    <i name="e_fr_energy">    -18.48599481 </i>
    <i name="e_wo_entrp">    -18.48599481 </i>
    <i name="e_0_energy">    -18.48599481 </i>
   </energy>
  </scstep>
  <scstep>
   <time name="diag">    1.05    1.05</time>
   <time name="diis">    3.74    3.75</time>
   <time name="orth">    0.05    0.05</time>
   <time name="total">    4.87    4.89</time>
   <energy>
    <i name="alphaZ">      1.37230889 </i>
    <i name="ewald">   2232.02869137 </i>
    <i name="hartreedc">  -2473.62414110 </i>
    <i name="XCdc">     15.61708992 </i>
    <i name="pawpsdc">   4099.60375573 </i>
    <i name="pawaedc">  -4089.26249343 </i>
    <i name="eentropy">     -0.00000000 </i>
    <i name="bandstr">    -98.52439939 </i>
    <i name="atom">    294.30319316 </i>
    <i name="e_fr_energy">    -18.48599485 </i>
    <i name="e_wo_entrp">    -18.48599485 </i>
    <i name="e_0_energy">    -18.48599485 </i>
   </energy>
  </scstep>
  <structure>
   <crystal>
    <varray name="basis" >
     <v>       1.24133263      -2.14182848       0.00000000 </v>
     <v>       1.22708120       2.13360043       0.00000000 </v>
     <v>       0.00000000       0.00000000      30.28239374 </v>
    </varray>
    <i name="volume">    159.79126713 </i>
    <varray name="rec_basis" >
     <v>       0.40434330      -0.23254685       0.00000000 </v>
     <v>       0.40590262       0.23524767       0.00000000 </v>
     <v>       0.00000000       0.00000000       0.03302249 </v>
    </varray>
   </crystal>
   <varray name="positions" >
    <v>       0.00000262       0.99999738       0.50000000 </v>
    <v>       0.66666738       0.33333262       0.50000000 </v>
   </varray>
  </structure>
  <varray name="forces" >
   <v>       0.08260303      -0.01098607       0.00000000 </v>
   <v>      -0.08260303       0.01098607       0.00000000 </v>
  </varray>
  <varray name="stress" >
   <v>      -1.85373400       3.41484249       0.00000000 </v>
   <v>       3.41484247      -1.50892378       0.00000000 </v>
   <v>       0.00000000       0.00000000      -0.47077099 </v>
  </varray>
  <energy>
   <i name="e_fr_energy">    -18.59427394 </i>
   <i name="e_wo_entrp">    -18.59427394 </i>
   <i name="e_0_energy">     -0.00000000 </i>
  </energy>
  <time name="totalsc">  132.19  133.17</time>
 </calculation>
 <calculation>
  <scstep>
   <time name="diag">    1.05    1.05</time>
   <time name="diis">    3.75    3.77</time>
   <time name="orth">    0.05    0.05</time>
   <time name="total">    5.13    5.16</time>
   <energy>
    <i name="alphaZ">      1.37230889 </i>
    <i name="ewald">   2232.02280595 </i>
    <i name="hartreedc">  -2473.62057823 </i>
    <i name="XCdc">     15.61685615 </i>
    <i name="pawpsdc">   4099.74683996 </i>
    <i name="pawaedc">  -4089.40557151 </i>
    <i name="eentropy">     -0.00000000 </i>
    <i name="bandstr">    -98.52081877 </i>
    <i name="atom">    294.30319316 </i>
    <i name="e_fr_energy">    -18.48496440 </i>
    <i name="e_wo_entrp">    -18.48496440 </i>
    <i name="e_0_energy">    -18.48496440 </i>
   </energy>
  </scstep>
  <scstep>
   <time name="diag">    1.05    1.05</time>
   <time name="diis">    3.77    3.78</time>
   <time name="orth">    0.05    0.05</time>
   <time name="total">    5.15    5.17</time>
   <energy>
    <i name="e_fr_energy">    -18.48494685 </i>
    <i name="e_wo_entrp">    -18.48494685 </i>
    <i name="e_0_energy">    -18.48494685 </i>
   </energy>
  </scstep>
  <scstep>
   <time name="diag">    1.05    1.05</time>
   <time name="diis">    3.84    3.84</time>
   <time name="orth">    0.05    0.05</time>
   <time name="total">    5.22    5.24</time>
   <energy>
    <i name="e_fr_energy">    -18.48490643 </i>
    <i name="e_wo_entrp">    -18.48490643 </i>
    <i name="e_0_energy">    -18.48490643 </i>
   </energy>
  </scstep>
  <scstep>
   <time name="diag">    1.05    1.05</time>
   <time name="diis">    3.92    3.93</time>
   <time name="orth">    0.05    0.05</time>
   <time name="total">    5.30    5.32</time>
   <energy>
    <i name="e_fr_energy">    -18.48490596 </i>
    <i name="e_wo_entrp">    -18.48490596 </i>
    <i name="e_0_energy">    -18.48490596 </i>
   </energy>
  </scstep>
  <scstep>
   <time name="diag">    1.05    1.05</time>
   <time name="diis">    3.80    3.81</time>
   <time name="orth">    0.05    0.05</time>
   <time name="total">    4.92    4.95</time>
   <energy>
    <i name="alphaZ">      1.37230889 </i>
    <i name="ewald">   2232.02280595 </i>
    <i name="hartreedc">  -2473.61921289 </i>
    <i name="XCdc">     15.61681343 </i>
    <i name="pawpsdc">   4098.92755747 </i>
    <i name="pawaedc">  -4088.58625545 </i>
    <i name="eentropy">     -0.00000000 </i>
    <i name="bandstr">    -98.52211651 </i>
    <i name="atom">    294.30319316 </i>
    <i name="e_fr_energy">    -18.48490596 </i>
    <i name="e_wo_entrp">    -18.48490596 </i>
    <i name="e_0_energy">    -18.48490596 </i>
   </energy>
  </scstep>
  <structure>
   <crystal>
    <varray name="basis" >
     <v>       1.24133263      -2.14182848       0.00000000 </v>
     <v>       1.22708120       2.13360043       0.00000000 </v>
     <v>       0.00000000       0.00000000      30.28239374 </v>
    </varray>
    <i name="volume">    159.79126713 </i>
    <varray name="rec_basis" >
     <v>       0.40434330      -0.23254685       0.00000000 </v>
     <v>       0.40590262       0.23524767       0.00000000 </v>
     <v>       0.00000000       0.00000000       0.03302249 </v>
    </varray>
   </crystal>
   <varray name="positions" >
    <v>       0.00173717       0.00149022       0.50000000 </v>
    <v>       0.66493283       0.33183978       0.50000000 </v>
   </varray>
  </structure>
  <varray name="forces" >
   <v>      -0.35519887       0.04498484       0.00000000 </v>
   <v>       0.35519887      -0.04498484       0.00000000 </v>
  </varray>
  <varray name="stress" >
   <v>      -1.78705705       2.42514925       0.00000000 </v>
   <v>       2.42514925      -1.61576426       0.00000000 </v>
   <v>       0.00000000       0.00000000      -0.46930049 </v>
  </varray>
  <energy>
   <i name="e_fr_energy">    -18.59317204 </i>
   <i name="e_wo_entrp">    -18.59317204 </i>
   <i name="e_0_energy">     -0.00000000 </i>
  </energy>
  <time name="totalsc">   28.36   28.51</time>
 </calculation>
 <calculation>
  <scstep>
   <time name="diag">    1.05    1.05</time>
   <time name="diis">    3.79    3.80</time>
   <time name="orth">    0.05    0.05</time>
   <time name="total">    5.17    5.19</time>
   <energy>
    <i name="alphaZ">      1.37230889 </i>
    <i name="ewald">   2232.02669385 </i>
    <i name="hartreedc">  -2473.62113443 </i>
    <i name="XCdc">     15.61692548 </i>
    <i name="pawpsdc">   4098.94404188 </i>
    <i name="pawaedc">  -4088.60273900 </i>
    <i name="eentropy">     -0.00000000 </i>
    <i name="bandstr">    -98.52538961 </i>
    <i name="atom">    294.30319316 </i>
    <i name="e_fr_energy">    -18.48609978 </i>
    <i name="e_wo_entrp">    -18.48609978 </i>
    <i name="e_0_energy">    -18.48609978 </i>
   </energy>
  </scstep>
  <scstep>
   <time name="diag">    1.05    1.05</time>
   <time name="diis">    3.78    3.79</time>
   <time name="orth">    0.05    0.05</time>
   <time name="total">    5.17    5.18</time>
   <energy>
    <i name="e_fr_energy">    -18.48608762 </i>
    <i name="e_wo_entrp">    -18.48608762 </i>
    <i name="e_0_energy">    -18.48608762 </i>
   </energy>
  </scstep>
  <scstep>
   <time name="diag">    1.05    1.05</time>
   <time name="diis">    3.82    3.83</time>
   <time name="orth">    0.05    0.05</time>
   <time name="total">    5.20    5.22</time>
   <energy>
    <i name="e_fr_energy">    -18.48606100 </i>
    <i name="e_wo_entrp">    -18.48606100 </i>
    <i name="e_0_energy">    -18.48606100 </i>
   </energy>
  </scstep>
  <scstep>
   <time name="diag">    1.05    1.05</time>
   <time name="diis">    3.93    3.94</time>
   <time name="orth">    0.05    0.05</time>
   <time name="total">    5.32    5.33</time>
   <energy>
    <i name="e_fr_energy">    -18.48606072 </i>
    <i name="e_wo_entrp">    -18.48606072 </i>
    <i name="e_0_energy">    -18.48606072 </i>
   </energy>
  </scstep>
  <scstep>
   <time name="diag">    1.05    1.05</time>
   <time name="diis">    3.72    3.73</time>
   <time name="orth">    0.05    0.05</time>
   <time name="total">    4.84    4.86</time>
   <energy>
    <i name="alphaZ">      1.37230889 </i>
    <i name="ewald">   2232.02669385 </i>
    <i name="hartreedc">  -2473.62268918 </i>
    <i name="XCdc">     15.61700749 </i>
    <i name="pawpsdc">   4099.40508919 </i>
    <i name="pawaedc">  -4089.06381024 </i>
    <i name="eentropy">     -0.00000000 </i>
    <i name="bandstr">    -98.52385386 </i>
    <i name="atom">    294.30319316 </i>
    <i name="e_fr_energy">    -18.48606071 </i>
    <i name="e_wo_entrp">    -18.48606071 </i>
    <i name="e_0_energy">    -18.48606071 </i>
   </energy>
  </scstep>
  <structure>
   <crystal>
    <varray name="basis" >
     <v>       1.24133263      -2.14182848       0.00000000 </v>
     <v>       1.22708120       2.13360043       0.00000000 </v>
     <v>       0.00000000       0.00000000      30.28239374 </v>
    </varray>
    <i name="volume">    159.79126713 </i>
    <varray name="rec_basis" >
     <v>       0.40434330      -0.23254685       0.00000000 </v>
     <v>       0.40590262       0.23524767       0.00000000 </v>
     <v>       0.00000000       0.00000000       0.03302249 </v>
    </varray>
   </crystal>
   <varray name="positions" >
    <v>       0.00033120       0.00028017       0.50000000 </v>
    <v>       0.66633880       0.33304983       0.50000000 </v>
   </varray>
  </structure>
  <varray name="forces" >
   <v>      -0.00009307      -0.00099684       0.00000000 </v>
   <v>       0.00009307       0.00099684       0.00000000 </v>
  </varray>
  <varray name="stress" >
   <v>      -1.84861950       3.22507666       0.00000000 </v>
   <v>       3.22507667      -1.53602940       0.00000000 </v>
   <v>       0.00000000       0.00000000      -0.46871731 </v>
  </varray>
  <energy>
   <i name="e_fr_energy">    -18.59433763 </i>
   <i name="e_wo_entrp">    -18.59433763 </i>
   <i name="e_0_energy">     -0.00000000 </i>
  </energy>
  <time name="totalsc">   28.22   28.34</time>
  <eigenvalues>
   <array>
    <dimension dim="1">band</dimension>
    <dimension dim="2">kpoint</dimension>
    <dimension dim="3">spin</dimension>
    <field>eigene</field>
    <field>occ</field>
    <set>
     <set comment="spin 1">
      <set comment="kpoint 1">
       <r>  -22.5549    1.0000 </r>
       <r>  -10.6256    1.0000 </r>
       <r>   -6.7300    1.0000 </r>
       <r>   -6.4909    1.0000 </r>
       <r>    0.2629    0.0000 </r>
       <r>    1.0313    0.0000 </r>
       <r>    1.2571    0.0000 </r>
       <r>    1.5730    0.0000 </r>
       <r>    1.7791    0.0000 </r>
       <r>    2.4308    0.0000 </r>
       <r>    2.7186    0.0000 </r>
       <r>    3.6713    0.0000 </r>
       <r>    4.0240    0.0000 </r>
       <r>    5.1924    0.0000 </r>
       <r>    5.2669    0.0000 </r>
       <r>    5.6080    0.0000 </r>
       <r>    5.6945    0.0000 </r>
       <r>    7.2077    0.0000 </r>
       <r>    7.7084    0.0000 </r>
       <r>    7.7974    0.0000 </r>
       <r>    9.4874    0.0000 </r>
       <r>    9.4876    0.0000 </r>
       <r>   10.0745    0.0000 </r>
       <r>   12.0987    0.0000 </r>
      </set>
      <set comment="kpoint 2">
       <r>  -22.1489    1.0000 </r>
       <r>  -10.1426    1.0000 </r>
       <r>   -8.1393    1.0000 </r>
       <r>   -7.2016    1.0000 </r>
       <r>    0.8158    0.0000 </r>
       <r>    1.5920    0.0000 </r>
       <r>    1.8256    0.0000 </r>
       <r>    2.1388    0.0000 </r>
       <r>    2.3456    0.0000 </r>
       <r>    2.9948    0.0000 </r>
       <r>    3.2824    0.0000 </r>
       <r>    4.2328    0.0000 </r>
       <r>    4.5809    0.0000 </r>
       <r>    5.3373    0.0000 </r>
       <r>    5.8237    0.0000 </r>
       <r>    6.2603    0.0000 </r>
       <r>    6.5097    0.0000 </r>
       <r>    7.0194    0.0000 </r>
       <r>    7.7620    0.0000 </r>
       <r>    8.2713    0.0000 </r>
       <r>   10.0332    0.0000 </r>
       <r>   10.3283    0.0000 </r>
       <r>   10.6362    0.0000 </r>
       <r>   12.6288    0.0000 </r>
      </set>
      <set comment="kpoint 3">
       <r>  -21.4236    1.0000 </r>
       <r>  -10.1264    1.0000 </r>
       <r>   -9.2892    1.0000 </r>
       <r>   -8.0890    1.0000 </r>
       <r>    1.8094    0.0000 </r>
       <r>    2.5941    0.0000 </r>
       <r>    2.8483    0.0000 </r>
       <r>    3.1543    0.0000 </r>
       <r>    3.3645    0.0000 </r>
       <r>    3.9996    0.0000 </r>
       <r>    4.2942    0.0000 </r>
       <r>    4.5510    0.0000 </r>
       <r>    5.1711    0.0000 </r>
       <r>    5.2525    0.0000 </r>
       <r>    5.6222    0.0000 </r>
       <r>    6.8307    0.0000 </r>
       <r>    7.2662    0.0000 </r>
       <r>    8.7527    0.0000 </r>
       <r>    9.1743    0.0000 </r>
       <r>    9.2850    0.0000 </r>
       <r>   11.0007    0.0000 </r>
       <r>   11.6255    0.0000 </r>
       <r>   11.8185    0.0000 </r>
       <r>   13.5391    0.0000 </r>
      </set>
      <set comment="kpoint 4">
       <r>  -20.3892    1.0000 </r>
       <r>  -12.2986    1.0000 </r>
       <r>   -8.8713    1.0000 </r>
       <r>   -8.1047    1.0000 </r>
       <r>    2.2423    0.0000 </r>
       <r>    3.2373    0.0000 </r>
       <r>    4.0713    0.0000 </r>
       <r>    4.3247    0.0000 </r>
       <r>    4.6305    0.0000 </r>
       <r>    4.8050    0.0000 </r>
       <r>    4.9149    0.0000 </r>
       <r>    5.4772    0.0000 </r>
       <r>    5.7729    0.0000 </r>
       <r>    6.7005    0.0000 </r>
       <r>    7.0660    0.0000 </r>
       <r>    8.2684    0.0000 </r>
       <r>    8.7175    0.0000 </r>
       <r>   10.1602    0.0000 </r>
       <r>   10.7197    0.0000 </r>
       <r>   11.5215    0.0000 </r>
       <r>   12.3211    0.0000 </r>
       <r>   13.0677    0.0000 </r>
       <r>   13.2545    0.0000 </r>
       <r>   14.3121    0.0000 </r>
      </set>
      <set comment="kpoint 5">
       <r>  -19.0705    1.0000 </r>
       <r>  -14.4162    1.0000 </r>
       <r>   -9.4135    1.0000 </r>
       <r>   -6.7059    1.0000 </r>
       <r>    0.0485    0.0000 </r>
       <r>    4.5953    0.0000 </r>
       <r>    5.1346    0.0000 </r>
       <r>    5.9483    0.0000 </r>
       <r>    6.2566    0.0000 </r>
       <r>    6.5472    0.0000 </r>
       <r>    6.7622    0.0000 </r>
       <r>    7.3819    0.0000 </r>
       <r>    7.6816    0.0000 </r>
       <r>    8.5852    0.0000 </r>
       <r>    8.9667    0.0000 </r>
       <r>   10.1063    0.0000 </r>
       <r>   10.6058    0.0000 </r>
       <r>   11.2052    0.0000 </r>
       <r>   11.7418    0.0000 </r>
       <r>   12.4017    0.0000 </r>
       <r>   12.5988    0.0000 </r>
       <r>   13.0521    0.0000 </r>
       <r>   13.2583    0.0000 </r>
       <r>   13.4600    0.0000 </r>
      </set>
      <set comment="kpoint 6">
       <r>  -17.6356    1.0000 </r>
       <r>  -16.2084    1.0000 </r>
       <r>   -9.6558    1.0000 </r>
       <r>   -5.5950    1.0000 </r>
       <r>   -1.4330    0.0000 </r>
       <r>    4.4977    0.0000 </r>
       <r>    7.3744    0.0000 </r>
       <r>    8.2264    0.0000 </r>
       <r>    8.6302    0.0000 </r>
       <r>    8.6476    0.0000 </r>
       <r>    8.9036    0.0000 </r>
       <r>    9.1342    0.0000 </r>
       <r>    9.4707    0.0000 </r>
       <r>    9.7469    0.0000 </r>
       <r>    9.9951    0.0000 </r>
       <r>   10.0353    0.0000 </r>
       <r>   10.2456    0.0000 </r>
       <r>   10.4761    0.0000 </r>
       <r>   10.8383    0.0000 </r>
       <r>   11.0806    0.0000 </r>
       <r>   11.2974    0.0000 </r>
       <r>   11.3624    0.0000 </r>
       <r>   12.0461    0.0000 </r>
       <r>   12.4996    0.0000 </r>
      </set>
      <set comment="kpoint 7">
       <r>  -18.3356    1.0000 </r>
       <r>  -15.3868    1.0000 </r>
       <r>   -9.5773    1.0000 </r>
       <r>   -6.0468    1.0000 </r>
       <r>   -0.8555    0.0000 </r>
       <r>    4.5378    0.0000 </r>
       <r>    6.1934    0.0000 </r>
       <r>    7.0371    0.0000 </r>
       <r>    7.3852    0.0000 </r>
       <r>    7.6658    0.0000 </r>
       <r>    7.8849    0.0000 </r>
       <r>    8.4883    0.0000 </r>
       <r>    8.7963    0.0000 </r>
       <r>    9.6620    0.0000 </r>
       <r>    9.9501    0.0000 </r>
       <r>   10.0835    0.0000 </r>
       <r>   10.7546    0.0000 </r>
       <r>   11.2630    0.0000 </r>
       <r>   11.4780    0.0000 </r>
       <r>   11.7051    0.0000 </r>
       <r>   11.7196    0.0000 </r>
       <r>   11.9396    0.0000 </r>
       <r>   12.4201    0.0000 </r>
       <r>   12.9616    0.0000 </r>
      </set>
      <set comment="kpoint 8">
       <r>  -19.7668    1.0000 </r>
       <r>  -13.3672    1.0000 </r>
       <r>   -9.1843    1.0000 </r>
       <r>   -7.4218    1.0000 </r>
       <r>    1.1186    0.0000 </r>
       <r>    4.0956    0.0000 </r>
       <r>    4.7628    0.0000 </r>
       <r>    4.9488    0.0000 </r>
       <r>    5.2293    0.0000 </r>
       <r>    5.5270    0.0000 </r>
       <r>    5.7401    0.0000 </r>
       <r>    6.3690    0.0000 </r>
       <r>    6.6648    0.0000 </r>
       <r>    7.5848    0.0000 </r>
       <r>    7.9556    0.0000 </r>
       <r>    9.1375    0.0000 </r>
       <r>    9.6028    0.0000 </r>
       <r>   10.9883    0.0000 </r>
       <r>   11.5952    0.0000 </r>
       <r>   12.0750    0.0000 </r>
       <r>   12.8849    0.0000 </r>
       <r>   13.7182    0.0000 </r>
       <r>   13.8389    0.0000 </r>
       <r>   13.9504    0.0000 </r>
      </set>
      <set comment="kpoint 9">
       <r>  -20.9473    1.0000 </r>
       <r>  -11.1983    1.0000 </r>
       <r>   -8.7378    1.0000 </r>
       <r>   -8.5139    1.0000 </r>
       <r>    2.4654    0.0000 </r>
       <r>    3.1727    0.0000 </r>
       <r>    3.4926    0.0000 </r>
       <r>    3.5256    0.0000 </r>
       <r>    3.8473    0.0000 </r>
       <r>    4.0385    0.0000 </r>
       <r>    4.6885    0.0000 </r>
       <r>    4.9246    0.0000 </r>
       <r>    5.0932    0.0000 </r>
       <r>    5.9150    0.0000 </r>
       <r>    6.2794    0.0000 </r>
       <r>    7.4915    0.0000 </r>
       <r>    7.9321    0.0000 </r>
       <r>    9.4025    0.0000 </r>
       <r>    9.9380    0.0000 </r>
       <r>   10.5230    0.0000 </r>
       <r>   11.6236    0.0000 </r>
       <r>   12.2859    0.0000 </r>
       <r>   12.5014    0.0000 </r>
       <r>   14.0528    0.0000 </r>
      </set>
      <set comment="kpoint 10">
       <r>  -21.8279    1.0000 </r>
       <r>   -9.7632    1.0000 </r>
       <r>   -9.0823    1.0000 </r>
       <r>   -7.6542    1.0000 </r>
       <r>    1.2547    0.0000 </r>
       <r>    2.0362    0.0000 </r>
       <r>    2.2772    0.0000 </r>
       <r>    2.5880    0.0000 </r>
       <r>    2.7956    0.0000 </r>
       <r>    3.4420    0.0000 </r>
       <r>    3.7298    0.0000 </r>
       <r>    4.6759    0.0000 </r>
       <r>    5.0087    0.0000 </r>
       <r>    5.3257    0.0000 </r>
       <r>    5.5878    0.0000 </r>
       <r>    6.2730    0.0000 </r>
       <r>    6.7048    0.0000 </r>
       <r>    8.1139    0.0000 </r>
       <r>    8.2003    0.0000 </r>
       <r>    8.7167    0.0000 </r>
       <r>   10.4628    0.0000 </r>
       <r>   10.9410    0.0000 </r>
       <r>   11.0871    0.0000 </r>
       <r>   13.0388    0.0000 </r>
      </set>
      <set comment="kpoint 11">
       <r>  -22.3935    1.0000 </r>
       <r>  -10.4332    1.0000 </r>
       <r>   -7.3363    1.0000 </r>
       <r>   -6.7956    1.0000 </r>
       <r>    0.4824    0.0000 </r>
       <r>    1.2542    0.0000 </r>
       <r>    1.4829    0.0000 </r>
       <r>    1.7978    0.0000 </r>
       <r>    2.0041    0.0000 </r>
       <r>    2.6549    0.0000 </r>
       <r>    2.9425    0.0000 </r>
       <r>    3.8945    0.0000 </r>
       <r>    4.2455    0.0000 </r>
       <r>    5.2720    0.0000 </r>
       <r>    5.4887    0.0000 </r>
       <r>    5.9213    0.0000 </r>
       <r>    6.2574    0.0000 </r>
       <r>    7.2572    0.0000 </r>
       <r>    7.4287    0.0000 </r>
       <r>    7.9326    0.0000 </r>
       <r>    9.7047    0.0000 </r>
       <r>    9.7784    0.0000 </r>
       <r>   10.2976    0.0000 </r>
       <r>   12.3102    0.0000 </r>
      </set>
      <set comment="kpoint 12">
       <r>  -22.6367    1.0000 </r>
       <r>  -10.7233    1.0000 </r>
       <r>   -6.4141    1.0000 </r>
       <r>   -6.3138    1.0000 </r>
       <r>    0.1517    0.0000 </r>
       <r>    0.9185    0.0000 </r>
       <r>    1.1429    0.0000 </r>
       <r>    1.4592    0.0000 </r>
       <r>    1.6652    0.0000 </r>
       <r>    2.3174    0.0000 </r>
       <r>    2.6053    0.0000 </r>
       <r>    3.5583    0.0000 </r>
       <r>    3.9117    0.0000 </r>
       <r>    5.1217    0.0000 </r>
       <r>    5.1545    0.0000 </r>
       <r>    5.3044    0.0000 </r>
       <r>    5.5783    0.0000 </r>
       <r>    7.0962    0.0000 </r>
       <r>    7.5948    0.0000 </r>
       <r>    8.0775    0.0000 </r>
       <r>    9.3331    0.0000 </r>
       <r>    9.3774    0.0000 </r>
       <r>    9.9615    0.0000 </r>
       <r>   12.0182    0.0000 </r>
      </set>
      <set comment="kpoint 13">
       <r>  -22.1449    1.0000 </r>
       <r>  -10.1379    1.0000 </r>
       <r>   -8.0661    1.0000 </r>
       <r>   -7.2797    1.0000 </r>
       <r>    0.8212    0.0000 </r>
       <r>    1.5973    0.0000 </r>
       <r>    1.8308    0.0000 </r>
       <r>    2.1441    0.0000 </r>
       <r>    2.3509    0.0000 </r>
       <r>    3.0001    0.0000 </r>
       <r>    3.2877    0.0000 </r>
       <r>    4.2382    0.0000 </r>
       <r>    4.5856    0.0000 </r>
       <r>    5.2519    0.0000 </r>
       <r>    5.8298    0.0000 </r>
       <r>    6.2641    0.0000 </r>
       <r>    6.5234    0.0000 </r>
       <r>    7.0391    0.0000 </r>
       <r>    7.7665    0.0000 </r>
       <r>    8.2763    0.0000 </r>
       <r>   10.0379    0.0000 </r>
       <r>   10.3679    0.0000 </r>
       <r>   10.6416    0.0000 </r>
       <r>   12.6335    0.0000 </r>
      </set>
      <set comment="kpoint 14">
       <r>  -21.5792    1.0000 </r>
       <r>   -9.4702    1.0000 </r>
       <r>   -9.4186    1.0000 </r>
       <r>   -8.3265    1.0000 </r>
       <r>    1.5964    0.0000 </r>
       <r>    2.3813    0.0000 </r>
       <r>    2.6278    0.0000 </r>
       <r>    2.9368    0.0000 </r>
       <r>    3.1452    0.0000 </r>
       <r>    3.7898    0.0000 </r>
       <r>    4.0786    0.0000 </r>
       <r>    5.0105    0.0000 </r>
       <r>    5.0273    0.0000 </r>
       <r>    5.3694    0.0000 </r>
       <r>    6.0112    0.0000 </r>
       <r>    6.6090    0.0000 </r>
       <r>    7.0554    0.0000 </r>
       <r>    7.6237    0.0000 </r>
       <r>    8.5338    0.0000 </r>
       <r>    9.0626    0.0000 </r>
       <r>   10.7848    0.0000 </r>
       <r>   11.4224    0.0000 </r>
       <r>   11.9409    0.0000 </r>
       <r>   13.3259    0.0000 </r>
      </set>
      <set comment="kpoint 15">
       <r>  -20.6999    1.0000 </r>
       <r>  -11.2318    1.0000 </r>
       <r>   -9.3716    1.0000 </r>
       <r>   -8.4494    1.0000 </r>
       <r>    2.8103    0.0000 </r>
       <r>    3.0442    0.0000 </r>
       <r>    3.6192    0.0000 </r>
       <r>    3.8789    0.0000 </r>
       <r>    4.1818    0.0000 </r>
       <r>    4.3918    0.0000 </r>
       <r>    5.0281    0.0000 </r>
       <r>    5.3178    0.0000 </r>
       <r>    6.2518    0.0000 </r>
       <r>    6.2755    0.0000 </r>
       <r>    6.6475    0.0000 </r>
       <r>    7.8202    0.0000 </r>
       <r>    8.2795    0.0000 </r>
       <r>    8.9575    0.0000 </r>
       <r>    9.7112    0.0000 </r>
       <r>   10.2909    0.0000 </r>
       <r>   11.8656    0.0000 </r>
       <r>   12.6427    0.0000 </r>
       <r>   13.9137    0.0000 </r>
       <r>   14.8977    0.0000 </r>
      </set>
      <set comment="kpoint 16">
       <r>  -19.5236    1.0000 </r>
       <r>  -13.2612    1.0000 </r>
       <r>  -10.1207    1.0000 </r>
       <r>   -7.1380    1.0000 </r>
       <r>    0.9338    0.0000 </r>
       <r>    4.4535    0.0000 </r>
       <r>    5.2687    0.0000 </r>
       <r>    5.5838    0.0000 </r>
       <r>    5.8727    0.0000 </r>
       <r>    6.0421    0.0000 </r>
       <r>    6.1339    0.0000 </r>
       <r>    6.7057    0.0000 </r>
       <r>    7.0192    0.0000 </r>
       <r>    7.9053    0.0000 </r>
       <r>    8.3058    0.0000 </r>
       <r>    9.4171    0.0000 </r>
       <r>    9.9459    0.0000 </r>
       <r>   10.7731    0.0000 </r>
       <r>   11.1101    0.0000 </r>
       <r>   11.9547    0.0000 </r>
       <r>   12.4785    0.0000 </r>
       <r>   14.0063    0.0000 </r>
       <r>   14.0914    0.0000 </r>
       <r>   14.3001    0.0000 </r>
      </set>
      <set comment="kpoint 17">
       <r>  -18.1023    1.0000 </r>
       <r>  -15.2159    1.0000 </r>
       <r>  -10.5448    1.0000 </r>
       <r>   -5.7559    1.0000 </r>
       <r>   -0.9573    0.0000 </r>
       <r>    5.8791    0.0000 </r>
       <r>    6.5353    0.0000 </r>
       <r>    7.3039    0.0000 </r>
       <r>    7.7435    0.0000 </r>
       <r>    8.0014    0.0000 </r>
       <r>    8.2403    0.0000 </r>
       <r>    8.7845    0.0000 </r>
       <r>    9.1471    0.0000 </r>
       <r>    9.8197    0.0000 </r>
       <r>   10.1039    0.0000 </r>
       <r>   10.4274    0.0000 </r>
       <r>   10.6442    0.0000 </r>
       <r>   11.5890    0.0000 </r>
       <r>   11.8005    0.0000 </r>
       <r>   12.0128    0.0000 </r>
       <r>   12.0389    0.0000 </r>
       <r>   12.2287    0.0000 </r>
       <r>   12.5098    0.0000 </r>
       <r>   12.9936    0.0000 </r>
      </set>
      <set comment="kpoint 18">
       <r>  -17.4284    1.0000 </r>
       <r>  -15.9981    1.0000 </r>
       <r>  -10.6344    1.0000 </r>
       <r>   -5.3009    1.0000 </r>
       <r>   -1.5192    0.0000 </r>
       <r>    5.8515    0.0000 </r>
       <r>    7.6649    0.0000 </r>
       <r>    8.3419    0.0000 </r>
       <r>    8.9297    0.0000 </r>
       <r>    8.9725    0.0000 </r>
       <r>    9.1679    0.0000 </r>
       <r>    9.4586    0.0000 </r>
       <r>    9.5687    0.0000 </r>
       <r>   10.0749    0.0000 </r>
       <r>   10.3491    0.0000 </r>
       <r>   10.3576    0.0000 </r>
       <r>   10.5564    0.0000 </r>
       <r>   10.8270    0.0000 </r>
       <r>   10.9883    0.0000 </r>
       <r>   11.4167    0.0000 </r>
       <r>   11.5978    0.0000 </r>
       <r>   11.6982    0.0000 </r>
       <r>   12.0577    0.0000 </r>
       <r>   12.8323    0.0000 </r>
      </set>
      <set comment="kpoint 19">
       <r>  -18.8502    1.0000 </r>
       <r>  -14.2416    1.0000 </r>
       <r>  -10.3871    1.0000 </r>
       <r>   -6.4383    1.0000 </r>
       <r>   -0.0657    0.0000 </r>
       <r>    5.4016    0.0000 </r>
       <r>    6.0019    0.0000 </r>
       <r>    6.2279    0.0000 </r>
       <r>    6.5888    0.0000 </r>
       <r>    6.8652    0.0000 </r>
       <r>    7.0929    0.0000 </r>
       <r>    7.6834    0.0000 </r>
       <r>    8.0091    0.0000 </r>
       <r>    8.8500    0.0000 </r>
       <r>    9.2898    0.0000 </r>
       <r>   10.2429    0.0000 </r>
       <r>   10.8941    0.0000 </r>
       <r>   11.0771    0.0000 </r>
       <r>   11.4400    0.0000 </r>
       <r>   12.6533    0.0000 </r>
       <r>   12.9020    0.0000 </r>
       <r>   13.3403    0.0000 </r>
       <r>   13.5109    0.0000 </r>
       <r>   13.5202    0.0000 </r>
      </set>
      <set comment="kpoint 20">
       <r>  -20.1585    1.0000 </r>
       <r>  -12.2145    1.0000 </r>
       <r>   -9.8069    1.0000 </r>
       <r>   -7.8351    1.0000 </r>
       <r>    2.0032    0.0000 </r>
       <r>    3.5641    0.0000 </r>
       <r>    4.3737    0.0000 </r>
       <r>    4.6599    0.0000 </r>
       <r>    4.9565    0.0000 </r>
       <r>    5.1689    0.0000 </r>
       <r>    5.7978    0.0000 </r>
       <r>    6.0630    0.0000 </r>
       <r>    6.2560    0.0000 </r>
       <r>    7.0127    0.0000 </r>
       <r>    7.3991    0.0000 </r>
       <r>    8.5628    0.0000 </r>
       <r>    9.0438    0.0000 </r>
       <r>   10.0812    0.0000 </r>
       <r>   10.4048    0.0000 </r>
       <r>   11.0567    0.0000 </r>
       <r>   12.3345    0.0000 </r>
       <r>   13.3990    0.0000 </r>
       <r>   13.7659    0.0000 </r>
       <r>   14.5442    0.0000 </r>
      </set>
      <set comment="kpoint 21">
       <r>  -21.1862    1.0000 </r>
       <r>  -10.2602    1.0000 </r>
       <r>   -9.0109    1.0000 </r>
       <r>   -8.8967    1.0000 </r>
       <r>    2.1377    0.0000 </r>
       <r>    2.9270    0.0000 </r>
       <r>    3.1857    0.0000 </r>
       <r>    3.4906    0.0000 </r>
       <r>    3.7011    0.0000 </r>
       <r>    4.0753    0.0000 </r>
       <r>    4.3442    0.0000 </r>
       <r>    4.6316    0.0000 </r>
       <r>    5.5720    0.0000 </r>
       <r>    5.9087    0.0000 </r>
       <r>    6.3186    0.0000 </r>
       <r>    7.1507    0.0000 </r>
       <r>    7.6036    0.0000 </r>
       <r>    8.2816    0.0000 </r>
       <r>    9.0637    0.0000 </r>
       <r>    9.6112    0.0000 </r>
       <r>   11.2864    0.0000 </r>
       <r>   11.9676    0.0000 </r>
       <r>   12.8574    0.0000 </r>
       <r>   13.7149    0.0000 </r>
      </set>
      <set comment="kpoint 22">
       <r>  -21.9071    1.0000 </r>
       <r>   -9.8564    1.0000 </r>
       <r>   -8.6984    1.0000 </r>
       <r>   -7.7452    1.0000 </r>
       <r>    1.1465    0.0000 </r>
       <r>    1.9269    0.0000 </r>
       <r>    2.1656    0.0000 </r>
       <r>    2.4772    0.0000 </r>
       <r>    2.6845    0.0000 </r>
       <r>    3.3320    0.0000 </r>
       <r>    3.6198    0.0000 </r>
       <r>    4.5683    0.0000 </r>
       <r>    4.9148    0.0000 </r>
       <r>    5.6272    0.0000 </r>
       <r>    5.8348    0.0000 </r>
       <r>    6.1588    0.0000 </r>
       <r>    6.5980    0.0000 </r>
       <r>    7.4410    0.0000 </r>
       <r>    8.0898    0.0000 </r>
       <r>    8.6075    0.0000 </r>
       <r>   10.3542    0.0000 </r>
       <r>   10.9327    0.0000 </r>
       <r>   10.9731    0.0000 </r>
       <r>   12.9332    0.0000 </r>
      </set>
      <set comment="kpoint 23">
       <r>  -22.3099    1.0000 </r>
       <r>  -10.3338    1.0000 </r>
       <r>   -7.6117    1.0000 </r>
       <r>   -6.9368    1.0000 </r>
       <r>    0.5962    0.0000 </r>
       <r>    1.3695    0.0000 </r>
       <r>    1.5998    0.0000 </r>
       <r>    1.9141    0.0000 </r>
       <r>    2.1206    0.0000 </r>
       <r>    2.7709    0.0000 </r>
       <r>    3.0584    0.0000 </r>
       <r>    4.0100    0.0000 </r>
       <r>    4.3596    0.0000 </r>
       <r>    5.1820    0.0000 </r>
       <r>    5.6033    0.0000 </r>
       <r>    6.0356    0.0000 </r>
       <r>    6.6085    0.0000 </r>
       <r>    7.0053    0.0000 </r>
       <r>    7.5427    0.0000 </r>
       <r>    8.0479    0.0000 </r>
       <r>    9.8172    0.0000 </r>
       <r>    9.9696    0.0000 </r>
       <r>   10.4134    0.0000 </r>
       <r>   12.4199    0.0000 </r>
      </set>
      <set comment="kpoint 24">
       <r>  -22.3895    1.0000 </r>
       <r>  -10.4285    1.0000 </r>
       <r>   -7.2708    1.0000 </r>
       <r>   -6.8602    1.0000 </r>
       <r>    0.4879    0.0000 </r>
       <r>    1.2594    0.0000 </r>
       <r>    1.4882    0.0000 </r>
       <r>    1.8031    0.0000 </r>
       <r>    2.0094    0.0000 </r>
       <r>    2.6602    0.0000 </r>
       <r>    2.9479    0.0000 </r>
       <r>    3.8998    0.0000 </r>
       <r>    4.2511    0.0000 </r>
       <r>    5.2662    0.0000 </r>
       <r>    5.4940    0.0000 </r>
       <r>    5.9254    0.0000 </r>
       <r>    6.1396    0.0000 </r>
       <r>    7.2689    0.0000 </r>
       <r>    7.4331    0.0000 </r>
       <r>    7.9376    0.0000 </r>
       <r>    9.7099    0.0000 </r>
       <r>    9.8651    0.0000 </r>
       <r>   10.3028    0.0000 </r>
       <r>   12.3161    0.0000 </r>
      </set>
      <set comment="kpoint 25">
       <r>  -21.4116    1.0000 </r>
       <r>  -10.0335    1.0000 </r>
       <r>   -9.2750    1.0000 </r>
       <r>   -8.2025    1.0000 </r>
       <r>    1.8253    0.0000 </r>
       <r>    2.6108    0.0000 </r>
       <r>    2.8641    0.0000 </r>
       <r>    3.1706    0.0000 </r>
       <r>    3.3803    0.0000 </r>
       <r>    4.0179    0.0000 </r>
       <r>    4.3088    0.0000 </r>
       <r>    4.5853    0.0000 </r>
       <r>    4.9925    0.0000 </r>
       <r>    5.2652    0.0000 </r>
       <r>    5.6305    0.0000 </r>
       <r>    6.8446    0.0000 </r>
       <r>    7.2810    0.0000 </r>
       <r>    8.7665    0.0000 </r>
       <r>    9.2611    0.0000 </r>
       <r>    9.3230    0.0000 </r>
       <r>   11.0137    0.0000 </r>
       <r>   11.6438    0.0000 </r>
       <r>   11.8432    0.0000 </r>
       <r>   13.5480    0.0000 </r>
      </set>
      <set comment="kpoint 26">
       <r>  -20.6918    1.0000 </r>
       <r>  -11.1558    1.0000 </r>
       <r>   -9.4641    1.0000 </r>
       <r>   -8.4396    1.0000 </r>
       <r>    2.8207    0.0000 </r>
       <r>    3.0743    0.0000 </r>
       <r>    3.6243    0.0000 </r>
       <r>    3.8895    0.0000 </r>
       <r>    4.1914    0.0000 </r>
       <r>    4.4023    0.0000 </r>
       <r>    5.0375    0.0000 </r>
       <r>    5.3272    0.0000 </r>
       <r>    6.0884    0.0000 </r>
       <r>    6.2611    0.0000 </r>
       <r>    6.6469    0.0000 </r>
       <r>    7.8290    0.0000 </r>
       <r>    8.2890    0.0000 </r>
       <r>    9.1549    0.0000 </r>
       <r>    9.7189    0.0000 </r>
       <r>   10.3020    0.0000 </r>
       <r>   11.8696    0.0000 </r>
       <r>   12.6533    0.0000 </r>
       <r>   13.9008    0.0000 </r>
       <r>   13.9702    0.0000 </r>
      </set>
      <set comment="kpoint 27">
       <r>  -19.6698    1.0000 </r>
       <r>  -12.4085    1.0000 </r>
       <r>  -10.8957    1.0000 </r>
       <r>   -7.2793    1.0000 </r>
       <r>    1.3516    0.0000 </r>
       <r>    4.2496    0.0000 </r>
       <r>    5.0369    0.0000 </r>
       <r>    5.3690    0.0000 </r>
       <r>    5.6532    0.0000 </r>
       <r>    5.8761    0.0000 </r>
       <r>    6.4827    0.0000 </r>
       <r>    6.7945    0.0000 </r>
       <r>    7.6760    0.0000 </r>
       <r>    7.7934    0.0000 </r>
       <r>    8.1298    0.0000 </r>
       <r>    8.8928    0.0000 </r>
       <r>    9.1710    0.0000 </r>
       <r>    9.7477    0.0000 </r>
       <r>   10.8080    0.0000 </r>
       <r>   11.7425    0.0000 </r>
       <r>   12.1929    0.0000 </r>
       <r>   13.9173    0.0000 </r>
       <r>   14.0788    0.0000 </r>
       <r>   16.3365    0.0000 </r>
      </set>
      <set comment="kpoint 28">
       <r>  -18.3754    1.0000 </r>
       <r>  -14.0392    1.0000 </r>
       <r>  -11.7780    1.0000 </r>
       <r>   -5.8899    1.0000 </r>
       <r>   -0.4518    0.0000 </r>
       <r>    6.0925    0.0000 </r>
       <r>    6.7829    0.0000 </r>
       <r>    7.3021    0.0000 </r>
       <r>    7.5432    0.0000 </r>
       <r>    7.7946    0.0000 </r>
       <r>    8.1285    0.0000 </r>
       <r>    8.2931    0.0000 </r>
       <r>    8.7172    0.0000 </r>
       <r>    9.2668    0.0000 </r>
       <r>    9.9526    0.0000 </r>
       <r>   10.1583    0.0000 </r>
       <r>   10.2708    0.0000 </r>
       <r>   11.5748    0.0000 </r>
       <r>   11.6248    0.0000 </r>
       <r>   13.2966    0.0000 </r>
       <r>   13.4497    0.0000 </r>
       <r>   13.6309    0.0000 </r>
       <r>   14.0221    0.0000 </r>
       <r>   14.0951    0.0000 </r>
      </set>
      <set comment="kpoint 29">
       <r>  -16.9865    1.0000 </r>
       <r>  -15.6519    1.0000 </r>
       <r>  -12.1094    1.0000 </r>
       <r>   -4.7067    1.0000 </r>
       <r>   -1.8296    0.0000 </r>
       <r>    7.9720    0.0000 </r>
       <r>    8.0327    0.0000 </r>
       <r>    8.3078    0.0000 </r>
       <r>    9.3923    0.0000 </r>
       <r>    9.6701    0.0000 </r>
       <r>    9.6892    0.0000 </r>
       <r>   10.0680    0.0000 </r>
       <r>   10.1661    0.0000 </r>
       <r>   10.7658    0.0000 </r>
       <r>   11.0055    0.0000 </r>
       <r>   11.0388    0.0000 </r>
       <r>   11.1224    0.0000 </r>
       <r>   11.4441    0.0000 </r>
       <r>   11.4641    0.0000 </r>
       <r>   12.0879    0.0000 </r>
       <r>   12.1747    0.0000 </r>
       <r>   12.3042    0.0000 </r>
       <r>   12.4536    0.0000 </r>
       <r>   13.2114    0.0000 </r>
      </set>
      <set comment="kpoint 30">
       <r>  -17.6807    1.0000 </r>
       <r>  -14.8703    1.0000 </r>
       <r>  -12.0113    1.0000 </r>
       <r>   -5.2224    1.0000 </r>
       <r>   -1.2497    0.0000 </r>
       <r>    7.1123    0.0000 </r>
       <r>    7.5731    0.0000 </r>
       <r>    8.0597    0.0000 </r>
       <r>    8.4050    0.0000 </r>
       <r>    8.5824    0.0000 </r>
       <r>    8.8954    0.0000 </r>
       <r>    9.1478    0.0000 </r>
       <r>    9.7859    0.0000 </r>
       <r>    9.8901    0.0000 </r>
       <r>   10.2977    0.0000 </r>
       <r>   10.9735    0.0000 </r>
       <r>   11.0601    0.0000 </r>
       <r>   12.2574    0.0000 </r>
       <r>   12.4819    0.0000 </r>
       <r>   12.6069    0.0000 </r>
       <r>   12.6538    0.0000 </r>
       <r>   12.7825    0.0000 </r>
       <r>   12.9892    0.0000 </r>
       <r>   13.3076    0.0000 </r>
      </set>
      <set comment="kpoint 31">
       <r>  -19.0748    1.0000 </r>
       <r>  -13.1486    1.0000 </r>
       <r>  -11.4370    1.0000 </r>
       <r>   -6.6237    1.0000 </r>
       <r>    0.4578    0.0000 </r>
       <r>    5.0928    0.0000 </r>
       <r>    5.8581    0.0000 </r>
       <r>    6.2508    0.0000 </r>
       <r>    6.5199    0.0000 </r>
       <r>    6.7532    0.0000 </r>
       <r>    7.3281    0.0000 </r>
       <r>    7.6604    0.0000 </r>
       <r>    8.2006    0.0000 </r>
       <r>    8.4718    0.0000 </r>
       <r>    8.9670    0.0000 </r>
       <r>    9.5449    0.0000 </r>
       <r>    9.8009    0.0000 </r>
       <r>   10.6090    0.0000 </r>
       <r>   11.0351    0.0000 </r>
       <r>   12.5288    0.0000 </r>
       <r>   12.5919    0.0000 </r>
       <r>   14.5813    0.0000 </r>
       <r>   14.7842    0.0000 </r>
       <r>   14.9350    0.0000 </r>
      </set>
      <set comment="kpoint 32">
       <r>  -20.2337    1.0000 </r>
       <r>  -11.7403    1.0000 </r>
       <r>  -10.2071    1.0000 </r>
       <r>   -7.9147    1.0000 </r>
       <r>    2.2386    0.0000 </r>
       <r>    3.4600    0.0000 </r>
       <r>    4.2563    0.0000 </r>
       <r>    4.5510    0.0000 </r>
       <r>    4.8455    0.0000 </r>
       <r>    5.0614    0.0000 </r>
       <r>    5.6858    0.0000 </r>
       <r>    5.9843    0.0000 </r>
       <r>    6.8995    0.0000 </r>
       <r>    7.0403    0.0000 </r>
       <r>    7.3268    0.0000 </r>
       <r>    8.4469    0.0000 </r>
       <r>    8.9221    0.0000 </r>
       <r>    9.0532    0.0000 </r>
       <r>   10.2799    0.0000 </r>
       <r>   10.9475    0.0000 </r>
       <r>   12.1750    0.0000 </r>
       <r>   13.2933    0.0000 </r>
       <r>   13.6309    0.0000 </r>
       <r>   15.0357    0.0000 </r>
      </set>
      <set comment="kpoint 33">
       <r>  -21.1017    1.0000 </r>
       <r>  -10.6174    1.0000 </r>
       <r>   -8.9141    1.0000 </r>
       <r>   -8.7261    1.0000 </r>
       <r>    2.2531    0.0000 </r>
       <r>    3.0365    0.0000 </r>
       <r>    3.3051    0.0000 </r>
       <r>    3.6010    0.0000 </r>
       <r>    3.8198    0.0000 </r>
       <r>    3.8721    0.0000 </r>
       <r>    4.4672    0.0000 </r>
       <r>    4.7468    0.0000 </r>
       <r>    5.5164    0.0000 </r>
       <r>    5.6931    0.0000 </r>
       <r>    6.0703    0.0000 </r>
       <r>    7.2708    0.0000 </r>
       <r>    7.7156    0.0000 </r>
       <r>    9.1830    0.0000 </r>
       <r>    9.3678    0.0000 </r>
       <r>    9.7338    0.0000 </r>
       <r>   11.4056    0.0000 </r>
       <r>   12.0832    0.0000 </r>
       <r>   12.7139    0.0000 </r>
       <r>   13.8378    0.0000 </r>
      </set>
      <set comment="kpoint 34">
       <r>  -21.6598    1.0000 </r>
       <r>   -9.5660    1.0000 </r>
       <r>   -9.5335    1.0000 </r>
       <r>   -7.8081    1.0000 </r>
       <r>    1.4844    0.0000 </r>
       <r>    2.2678    0.0000 </r>
       <r>    2.5135    0.0000 </r>
       <r>    2.8227    0.0000 </r>
       <r>    3.0310    0.0000 </r>
       <r>    3.6751    0.0000 </r>
       <r>    3.9630    0.0000 </r>
       <r>    4.8946    0.0000 </r>
       <r>    4.9718    0.0000 </r>
       <r>    5.1812    0.0000 </r>
       <r>    5.2975    0.0000 </r>
       <r>    6.5042    0.0000 </r>
       <r>    6.9361    0.0000 </r>
       <r>    8.4302    0.0000 </r>
       <r>    8.8423    0.0000 </r>
       <r>    8.9477    0.0000 </r>
       <r>   10.6880    0.0000 </r>
       <r>   11.1950    0.0000 </r>
       <r>   11.3302    0.0000 </r>
       <r>   13.2535    0.0000 </r>
      </set>
      <set comment="kpoint 35">
       <r>  -21.8990    1.0000 </r>
       <r>   -9.8472    1.0000 </r>
       <r>   -8.7010    1.0000 </r>
       <r>   -7.7387    1.0000 </r>
       <r>    1.1574    0.0000 </r>
       <r>    1.9373    0.0000 </r>
       <r>    2.1762    0.0000 </r>
       <r>    2.4877    0.0000 </r>
       <r>    2.6951    0.0000 </r>
       <r>    3.3424    0.0000 </r>
       <r>    3.6305    0.0000 </r>
       <r>    4.5787    0.0000 </r>
       <r>    4.9258    0.0000 </r>
       <r>    5.6070    0.0000 </r>
       <r>    5.8421    0.0000 </r>
       <r>    6.1700    0.0000 </r>
       <r>    6.6073    0.0000 </r>
       <r>    7.2174    0.0000 </r>
       <r>    8.1005    0.0000 </r>
       <r>    8.6174    0.0000 </r>
       <r>   10.3650    0.0000 </r>
       <r>   10.9785    0.0000 </r>
       <r>   11.1183    0.0000 </r>
       <r>   12.9446    0.0000 </r>
      </set>
      <set comment="kpoint 36">
       <r>  -21.8159    1.0000 </r>
       <r>   -9.7492    1.0000 </r>
       <r>   -9.0063    1.0000 </r>
       <r>   -7.7382    1.0000 </r>
       <r>    1.2708    0.0000 </r>
       <r>    2.0521    0.0000 </r>
       <r>    2.2930    0.0000 </r>
       <r>    2.6038    0.0000 </r>
       <r>    2.8115    0.0000 </r>
       <r>    3.4580    0.0000 </r>
       <r>    3.7457    0.0000 </r>
       <r>    4.6925    0.0000 </r>
       <r>    5.0020    0.0000 </r>
       <r>    5.1931    0.0000 </r>
       <r>    5.6150    0.0000 </r>
       <r>    6.2868    0.0000 </r>
       <r>    6.7189    0.0000 </r>
       <r>    8.0174    0.0000 </r>
       <r>    8.2151    0.0000 </r>
       <r>    8.7319    0.0000 </r>
       <r>   10.4776    0.0000 </r>
       <r>   11.0735    0.0000 </r>
       <r>   11.1451    0.0000 </r>
       <r>   13.0536    0.0000 </r>
      </set>
      <set comment="kpoint 37">
       <r>  -20.3649    1.0000 </r>
       <r>  -12.2108    1.0000 </r>
       <r>   -9.0025    1.0000 </r>
       <r>   -8.0757    1.0000 </r>
       <r>    2.2950    0.0000 </r>
       <r>    3.2677    0.0000 </r>
       <r>    4.0984    0.0000 </r>
       <r>    4.3559    0.0000 </r>
       <r>    4.6331    0.0000 </r>
       <r>    4.6609    0.0000 </r>
       <r>    4.8794    0.0000 </r>
       <r>    5.5070    0.0000 </r>
       <r>    5.8026    0.0000 </r>
       <r>    6.7297    0.0000 </r>
       <r>    7.0969    0.0000 </r>
       <r>    8.2963    0.0000 </r>
       <r>    8.7487    0.0000 </r>
       <r>   10.1856    0.0000 </r>
       <r>   10.7519    0.0000 </r>
       <r>   11.7471    0.0000 </r>
       <r>   12.3388    0.0000 </r>
       <r>   13.1015    0.0000 </r>
       <r>   13.2335    0.0000 </r>
       <r>   14.3156    0.0000 </r>
      </set>
      <set comment="kpoint 38">
       <r>  -19.5027    1.0000 </r>
       <r>  -13.1762    1.0000 </r>
       <r>  -10.2441    1.0000 </r>
       <r>   -7.1121    1.0000 </r>
       <r>    0.9723    0.0000 </r>
       <r>    4.4783    0.0000 </r>
       <r>    5.2904    0.0000 </r>
       <r>    5.6094    0.0000 </r>
       <r>    5.8173    0.0000 </r>
       <r>    5.8979    0.0000 </r>
       <r>    6.1248    0.0000 </r>
       <r>    6.7298    0.0000 </r>
       <r>    7.0440    0.0000 </r>
       <r>    7.9275    0.0000 </r>
       <r>    8.3315    0.0000 </r>
       <r>    9.4347    0.0000 </r>
       <r>    9.9731    0.0000 </r>
       <r>   11.0262    0.0000 </r>
       <r>   11.1118    0.0000 </r>
       <r>   11.9819    0.0000 </r>
       <r>   12.4755    0.0000 </r>
       <r>   14.0530    0.0000 </r>
       <r>   14.2173    0.0000 </r>
       <r>   14.3521    0.0000 </r>
      </set>
      <set comment="kpoint 39">
       <r>  -18.3614    1.0000 </r>
       <r>  -13.9773    1.0000 </r>
       <r>  -11.8618    1.0000 </r>
       <r>   -5.8715    1.0000 </r>
       <r>   -0.4379    0.0000 </r>
       <r>    6.1072    0.0000 </r>
       <r>    6.7902    0.0000 </r>
       <r>    7.3178    0.0000 </r>
       <r>    7.5573    0.0000 </r>
       <r>    7.7807    0.0000 </r>
       <r>    7.8694    0.0000 </r>
       <r>    8.3036    0.0000 </r>
       <r>    8.7303    0.0000 </r>
       <r>    9.2692    0.0000 </r>
       <r>    9.9899    0.0000 </r>
       <r>   10.2735    0.0000 </r>
       <r>   10.4013    0.0000 </r>
       <r>   11.5899    0.0000 </r>
       <r>   11.6409    0.0000 </r>
       <r>   13.3324    0.0000 </r>
       <r>   13.5524    0.0000 </r>
       <r>   13.7352    0.0000 </r>
       <r>   14.1630    0.0000 </r>
       <r>   14.2789    0.0000 </r>
      </set>
      <set comment="kpoint 40">
       <r>  -17.0082    1.0000 </r>
       <r>  -14.8407    1.0000 </r>
       <r>  -13.1677    1.0000 </r>
       <r>   -4.4709    1.0000 </r>
       <r>   -1.8870    0.0000 </r>
       <r>    7.5647    0.0000 </r>
       <r>    8.0802    0.0000 </r>
       <r>    9.4768    0.0000 </r>
       <r>    9.4938    0.0000 </r>
       <r>    9.6972    0.0000 </r>
       <r>    9.9200    0.0000 </r>
       <r>    9.9236    0.0000 </r>
       <r>   10.0992    0.0000 </r>
       <r>   10.7511    0.0000 </r>
       <r>   10.8530    0.0000 </r>
[...]
       <r>   10.6601    0.0000 </r>
       <r>   11.3161    0.0000 </r>
       <r>   11.5019    0.0000 </r>
       <r>   12.4240    0.0000 </r>
       <r>   12.4931    0.0000 </r>
       <r>   12.7631    0.0000 </r>
       <r>   12.8344    0.0000 </r>
       <r>   13.4600    0.0000 </r>
      </set>
      <set comment="kpoint 69">
       <r>  -18.9548    1.0000 </r>
       <r>  -13.6606    1.0000 </r>
       <r>  -10.9742    1.0000 </r>
       <r>   -6.5167    1.0000 </r>
       <r>    0.2514    0.0000 </r>
       <r>    5.2574    0.0000 </r>
       <r>    6.0383    0.0000 </r>
       <r>    6.4201    0.0000 </r>
       <r>    6.6920    0.0000 </r>
       <r>    6.8597    0.0000 </r>
       <r>    6.9513    0.0000 </r>
       <r>    7.5033    0.0000 </r>
       <r>    7.8456    0.0000 </r>
       <r>    8.6539    0.0000 </r>
       <r>    9.1258    0.0000 </r>
       <r>   10.0003    0.0000 </r>
       <r>   10.3908    0.0000 </r>
       <r>   10.7857    0.0000 </r>
       <r>   11.2222    0.0000 </r>
       <r>   12.6553    0.0000 </r>
       <r>   12.7574    0.0000 </r>
       <r>   13.8531    0.0000 </r>
       <r>   14.3681    0.0000 </r>
       <r>   14.6056    0.0000 </r>
      </set>
      <set comment="kpoint 70">
       <r>  -19.0254    1.0000 </r>
       <r>  -13.1711    1.0000 </r>
       <r>  -11.4613    1.0000 </r>
       <r>   -6.5735    1.0000 </r>
       <r>    0.4436    0.0000 </r>
       <r>    5.1572    0.0000 </r>
       <r>    5.9166    0.0000 </r>
       <r>    6.3142    0.0000 </r>
       <r>    6.5821    0.0000 </r>
       <r>    6.8166    0.0000 </r>
       <r>    7.3886    0.0000 </r>
       <r>    7.7109    0.0000 </r>
       <r>    7.9306    0.0000 </r>
       <r>    8.5282    0.0000 </r>
       <r>    9.0219    0.0000 </r>
       <r>    9.4728    0.0000 </r>
       <r>    9.8442    0.0000 </r>
       <r>   10.6703    0.0000 </r>
       <r>   11.0682    0.0000 </r>
       <r>   12.5802    0.0000 </r>
       <r>   12.6554    0.0000 </r>
       <r>   14.6424    0.0000 </r>
       <r>   14.8684    0.0000 </r>
       <r>   15.0018    0.0000 </r>
      </set>
      <set comment="kpoint 71">
       <r>  -18.7911    1.0000 </r>
       <r>  -14.2110    1.0000 </r>
       <r>  -10.4887    1.0000 </r>
       <r>   -6.3755    1.0000 </r>
       <r>   -0.0541    0.0000 </r>
       <r>    5.4524    0.0000 </r>
       <r>    5.7223    0.0000 </r>
       <r>    6.2938    0.0000 </r>
       <r>    6.6625    0.0000 </r>
       <r>    6.9371    0.0000 </r>
       <r>    7.1662    0.0000 </r>
       <r>    7.7529    0.0000 </r>
       <r>    8.0826    0.0000 </r>
       <r>    8.9139    0.0000 </r>
       <r>    9.3639    0.0000 </r>
       <r>   10.2875    0.0000 </r>
       <r>   10.9666    0.0000 </r>
       <r>   11.1147    0.0000 </r>
       <r>   11.4650    0.0000 </r>
       <r>   12.7307    0.0000 </r>
       <r>   12.9794    0.0000 </r>
       <r>   13.4157    0.0000 </r>
       <r>   13.6024    0.0000 </r>
       <r>   13.6054    0.0000 </r>
      </set>
      <set comment="kpoint 72">
       <r>  -18.2674    1.0000 </r>
       <r>  -15.3478    1.0000 </r>
       <r>   -9.7114    1.0000 </r>
       <r>   -5.9744    1.0000 </r>
       <r>   -0.8308    0.0000 </r>
       <r>    4.2532    0.0000 </r>
       <r>    6.2699    0.0000 </r>
       <r>    7.1069    0.0000 </r>
       <r>    7.4644    0.0000 </r>
       <r>    7.7426    0.0000 </r>
       <r>    7.9639    0.0000 </r>
       <r>    8.5622    0.0000 </r>
       <r>    8.8754    0.0000 </r>
       <r>    9.7288    0.0000 </r>
       <r>   10.0525    0.0000 </r>
       <r>   10.1620    0.0000 </r>
       <r>   10.8116    0.0000 </r>
       <r>   11.3485    0.0000 </r>
       <r>   11.5887    0.0000 </r>
       <r>   11.7847    0.0000 </r>
       <r>   11.8256    0.0000 </r>
       <r>   12.0490    0.0000 </r>
       <r>   12.5044    0.0000 </r>
       <r>   13.0218    0.0000 </r>
      </set>
     </set>
    </set>
   </array>
  </eigenvalues>
  <separator name="orbital magnetization" >
   <v name="MAGDIPOLOUT">      0.00000000      0.00000000      0.00000000</v>
  </separator>
  <dos>
   <i name="efermi">     -3.56091860 </i>
   <total>
    <array>
     <dimension dim="1">gridpoints</dimension>
     <dimension dim="2">spin</dimension>
     <field>energy</field>
     <field>total</field>
     <field>integrated</field>
     <set>
      <set comment="spin 1">
       <r>   -24.5853     0.0000     0.0000 </r>
       <r>   -24.4424     0.0000     0.0000 </r>
       <r>   -24.2995     0.0000     0.0000 </r>
       <r>   -24.1566     0.0000     0.0000 </r>
       <r>   -24.0137     0.0000     0.0000 </r>
       <r>   -23.8708     0.0000     0.0000 </r>
       <r>   -23.7279     0.0000     0.0000 </r>
       <r>   -23.5850     0.0000     0.0000 </r>
       <r>   -23.4421     0.0000     0.0000 </r>
       <r>   -23.2992     0.0000     0.0000 </r>
       <r>   -23.1563     0.0000     0.0000 </r>
       <r>   -23.0134     0.0000     0.0000 </r>
       <r>   -22.8705     0.0000     0.0000 </r>
       <r>   -22.7276     0.0010     0.0001 </r>
       <r>   -22.5847     0.2184     0.0313 </r>
       <r>   -22.4418     0.1994     0.0598 </r>
       <r>   -22.2989     0.4778     0.1281 </r>
       <r>   -22.1560     0.2304     0.1610 </r>
       <r>   -22.0131     0.2341     0.1945 </r>
       <r>   -21.8702     0.3539     0.2451 </r>
       <r>   -21.7273     0.4271     0.3061 </r>
       <r>   -21.5844     0.2731     0.3451 </r>
       <r>   -21.4415     0.2099     0.3751 </r>
       <r>   -21.2986     0.2907     0.4167 </r>
       <r>   -21.1557     0.2947     0.4588 </r>
       <r>   -21.0128     0.4861     0.5282 </r>
       <r>   -20.8699     0.3699     0.5811 </r>
       <r>   -20.7270     0.1256     0.5990 </r>
       <r>   -20.5841     0.4727     0.6666 </r>
       <r>   -20.4412     0.0172     0.6691 </r>
       <r>   -20.2983     0.3727     0.7223 </r>
       <r>   -20.1554     0.5077     0.7949 </r>
       <r>   -20.0125     0.3470     0.8445 </r>
       <r>   -19.8696     0.3109     0.8889 </r>
       <r>   -19.7267     0.2749     0.9282 </r>
       <r>   -19.5838     0.3175     0.9736 </r>
       <r>   -19.4409     0.4523     1.0382 </r>
       <r>   -19.2980     0.1216     1.0556 </r>
       <r>   -19.1551     0.0039     1.0561 </r>
       <r>   -19.0122     0.6878     1.1544 </r>
       <r>   -18.8693     0.5329     1.2306 </r>
       <r>   -18.7264     0.3239     1.2768 </r>
       <r>   -18.5835     0.2476     1.3122 </r>
       <r>   -18.4406     0.1567     1.3346 </r>
       <r>   -18.2977     0.5750     1.4168 </r>
       <r>   -18.1548     0.2073     1.4464 </r>
       <r>   -18.0119     0.3644     1.4985 </r>
       <r>   -17.8690     0.2034     1.5275 </r>
       <r>   -17.7260     0.1593     1.5503 </r>
       <r>   -17.5831     0.7908     1.6633 </r>
       <r>   -17.4402     0.6693     1.7590 </r>
       <r>   -17.2973     0.4641     1.8253 </r>
       <r>   -17.1544     0.0564     1.8333 </r>
       <r>   -17.0115     0.1375     1.8530 </r>
       <r>   -16.8686     0.4328     1.9148 </r>
       <r>   -16.7257     0.0129     1.9167 </r>
       <r>   -16.5828     0.0036     1.9172 </r>
       <r>   -16.4399     0.1998     1.9457 </r>
       <r>   -16.2970     0.3633     1.9976 </r>
       <r>   -16.1541     0.5563     2.0771 </r>
       <r>   -16.0112     0.1900     2.1043 </r>
       <r>   -15.8683     0.2852     2.1450 </r>
       <r>   -15.7254     0.1561     2.1673 </r>
       <r>   -15.5825     0.5329     2.2435 </r>
       <r>   -15.4396     0.4177     2.3032 </r>
       <r>   -15.2967     0.7686     2.4130 </r>
       <r>   -15.1538     0.3130     2.4577 </r>
       <r>   -15.0109     0.1013     2.4722 </r>
       <r>   -14.8680     0.3111     2.5167 </r>
       <r>   -14.7251     0.6579     2.6107 </r>
       <r>   -14.5822     0.0029     2.6111 </r>
       <r>   -14.4393     0.1158     2.6277 </r>
       <r>   -14.2964     0.6440     2.7197 </r>
       <r>   -14.1535     0.3953     2.7762 </r>
       <r>   -14.0106     0.1986     2.8046 </r>
       <r>   -13.8677     0.3284     2.8515 </r>
       <r>   -13.7248     0.0741     2.8621 </r>
       <r>   -13.5819     0.3170     2.9074 </r>
       <r>   -13.4390     0.3524     2.9577 </r>
       <r>   -13.2961     0.4369     3.0202 </r>
       <r>   -13.1532     0.7417     3.1262 </r>
       <r>   -13.0103     0.2839     3.1667 </r>
       <r>   -12.8674     0.1730     3.1915 </r>
       <r>   -12.7245     0.3318     3.2389 </r>
       <r>   -12.5816     0.3043     3.2824 </r>
       <r>   -12.4387     0.2006     3.3110 </r>
       <r>   -12.2958     0.2640     3.3487 </r>
       <r>   -12.1529     0.8097     3.4645 </r>
       <r>   -12.0100     0.5395     3.5415 </r>
       <r>   -11.8671     0.1875     3.5683 </r>
       <r>   -11.7242     0.6791     3.6654 </r>
       <r>   -11.5813     0.2034     3.6945 </r>
       <r>   -11.4384     0.2463     3.7297 </r>
       <r>   -11.2955     0.5285     3.8052 </r>
       <r>   -11.1526     0.5137     3.8786 </r>
       <r>   -11.0097     0.3930     3.9347 </r>
       <r>   -10.8668     0.4165     3.9943 </r>
       <r>   -10.7239     0.3104     4.0386 </r>
       <r>   -10.5810     1.0526     4.1890 </r>
       <r>   -10.4381     0.5895     4.2733 </r>
       <r>   -10.2952     0.6452     4.3655 </r>
       <r>   -10.1523     1.1438     4.5289 </r>
       <r>   -10.0094     0.9505     4.6648 </r>
       <r>    -9.8665     0.6735     4.7610 </r>
       <r>    -9.7236     1.0890     4.9166 </r>
       <r>    -9.5807     0.6572     5.0105 </r>
       <r>    -9.4378     1.4528     5.2181 </r>
       <r>    -9.2948     0.8843     5.3445 </r>
       <r>    -9.1519     0.6679     5.4399 </r>
       <r>    -9.0090     0.5541     5.5191 </r>
       <r>    -8.8661     1.2402     5.6964 </r>
       <r>    -8.7232     0.6184     5.7847 </r>
       <r>    -8.5803     1.0816     5.9393 </r>
       <r>    -8.4374     0.5784     6.0219 </r>
       <r>    -8.2945     0.3949     6.0784 </r>
       <r>    -8.1516     0.3152     6.1234 </r>
       <r>    -8.0087     0.8679     6.2474 </r>
       <r>    -7.8658     0.3842     6.3023 </r>
       <r>    -7.7229     1.0155     6.4475 </r>
       <r>    -7.5800     0.8989     6.5759 </r>
       <r>    -7.4371     0.1246     6.5937 </r>
       <r>    -7.2942     0.6675     6.6891 </r>
       <r>    -7.1513     0.7030     6.7895 </r>
       <r>    -7.0084     0.4987     6.8608 </r>
       <r>    -6.8655     0.2825     6.9012 </r>
       <r>    -6.7226     0.4800     6.9698 </r>
       <r>    -6.5797     0.7086     7.0710 </r>
       <r>    -6.4368     0.8136     7.1873 </r>
       <r>    -6.2939     0.5893     7.2715 </r>
       <r>    -6.1510     0.4268     7.3325 </r>
       <r>    -6.0081     0.2067     7.3620 </r>
       <r>    -5.8652     0.4473     7.4260 </r>
       <r>    -5.7223     0.5293     7.5016 </r>
       <r>    -5.5794     0.3202     7.5474 </r>
       <r>    -5.4365     0.2589     7.5844 </r>
       <r>    -5.2936     0.3115     7.6289 </r>
       <r>    -5.1507     1.2056     7.8011 </r>
       <r>    -5.0078     0.2252     7.8333 </r>
       <r>    -4.8649     0.0000     7.8333 </r>
       <r>    -4.7220     0.0677     7.8430 </r>
       <r>    -4.5791     0.3154     7.8881 </r>
       <r>    -4.4362     0.1683     7.9121 </r>
       <r>    -4.2933     0.0322     7.9167 </r>
       <r>    -4.1504     0.1723     7.9414 </r>
       <r>    -4.0075     0.0216     7.9444 </r>
       <r>    -3.8646     0.1441     7.9650 </r>
       <r>    -3.7217     0.2433     7.9998 </r>
       <r>    -3.5788     0.0013     8.0000 </r>
       <r>    -3.4359     0.0000     8.0000 </r>
       <r>    -3.2930     0.0000     8.0000 </r>
       <r>    -3.1501     0.0000     8.0000 </r>
       <r>    -3.0072     0.0000     8.0000 </r>
       <r>    -2.8643     0.0000     8.0000 </r>
       <r>    -2.7214     0.0000     8.0000 </r>
       <r>    -2.5785     0.0294     8.0042 </r>
       <r>    -2.4356     0.3436     8.0533 </r>
       <r>    -2.2927     0.0204     8.0562 </r>
       <r>    -2.1498     0.1859     8.0828 </r>
       <r>    -2.0069     0.0038     8.0833 </r>
       <r>    -1.8640     0.2288     8.1160 </r>
       <r>    -1.7211     0.3540     8.1666 </r>
       <r>    -1.5782     0.0394     8.1723 </r>
       <r>    -1.4353     0.7592     8.2807 </r>
       <r>    -1.2924     0.6436     8.3727 </r>
       <r>    -1.1495     0.7111     8.4743 </r>
       <r>    -1.0066     0.1989     8.5028 </r>
       <r>    -0.8636     0.4773     8.5710 </r>
       <r>    -0.7207     0.2807     8.6111 </r>
       <r>    -0.5778     0.0003     8.6111 </r>
       <r>    -0.4349     0.4867     8.6807 </r>
       <r>    -0.2920     0.2907     8.7222 </r>
       <r>    -0.1491     0.0025     8.7226 </r>
       <r>    -0.0062     0.3726     8.7758 </r>
       <r>     0.1367     0.4465     8.8396 </r>
       <r>     0.2796     0.5346     8.9160 </r>
       <r>     0.4225     0.2983     8.9586 </r>
       <r>     0.5654     0.7300     9.0630 </r>
       <r>     0.7083     0.3366     9.1111 </r>
       <r>     0.8512     0.3272     9.1578 </r>
       <r>     0.9941     0.6094     9.2449 </r>
       <r>     1.1370     0.6314     9.3351 </r>
       <r>     1.2799     1.2732     9.5171 </r>
       <r>     1.4228     0.6932     9.6161 </r>
       <r>     1.5657     0.9847     9.7568 </r>
       <r>     1.7086     1.2930     9.9416 </r>
       <r>     1.8515     1.1928    10.1121 </r>
       <r>     1.9944     1.0474    10.2618 </r>
       <r>     2.1373     1.4044    10.4624 </r>
       <r>     2.2802     2.0381    10.7537 </r>
       <r>     2.4231     1.4310    10.9582 </r>
       <r>     2.5660     1.2242    11.1331 </r>
       <r>     2.7089     1.7290    11.3802 </r>
       <r>     2.8518     1.7181    11.6257 </r>
       <r>     2.9947     1.6529    11.8619 </r>
       <r>     3.1376     1.5736    12.0868 </r>
       <r>     3.2805     1.6963    12.3292 </r>
       <r>     3.4234     1.4902    12.5421 </r>
       <r>     3.5663     2.0201    12.8308 </r>
       <r>     3.7092     2.3356    13.1646 </r>
       <r>     3.8521     1.8532    13.4294 </r>
       <r>     3.9950     2.0918    13.7283 </r>
       <r>     4.1379     2.1801    14.0399 </r>
       <r>     4.2808     2.4761    14.3937 </r>
       <r>     4.4237     2.7198    14.7823 </r>
       <r>     4.5666     2.2099    15.0981 </r>
       <r>     4.7095     3.5951    15.6119 </r>
       <r>     4.8524     1.6328    15.8452 </r>
       <r>     4.9953     3.3331    16.3215 </r>
       <r>     5.1382     3.0998    16.7645 </r>
       <r>     5.2811     4.4232    17.3966 </r>
       <r>     5.4240     2.7306    17.7868 </r>
       <r>     5.5669     2.5327    18.1487 </r>
       <r>     5.7098     3.4261    18.6383 </r>
       <r>     5.8527     3.1108    19.0828 </r>
       <r>     5.9956     3.5588    19.5914 </r>
       <r>     6.1385     3.2922    20.0618 </r>
       <r>     6.2814     3.5476    20.5688 </r>
       <r>     6.4243     2.6269    20.9442 </r>
       <r>     6.5672     1.8057    21.2022 </r>
       <r>     6.7101     3.7332    21.7357 </r>
       <r>     6.8530     3.2036    22.1935 </r>
       <r>     6.9959     2.4963    22.5502 </r>
       <r>     7.1388     3.4082    23.0373 </r>
       <r>     7.2817     2.7564    23.4312 </r>
       <r>     7.4246     3.7389    23.9655 </r>
       <r>     7.5676     3.5121    24.4673 </r>
       <r>     7.7105     3.9365    25.0299 </r>
       <r>     7.8534     3.9096    25.5886 </r>
       <r>     7.9963     3.2157    26.0481 </r>
       <r>     8.1392     3.8277    26.5951 </r>
       <r>     8.2821     2.8216    26.9983 </r>
       <r>     8.4250     3.4355    27.4892 </r>
       <r>     8.5679     2.5631    27.8555 </r>
       <r>     8.7108     3.0737    28.2947 </r>
       <r>     8.8537     3.5036    28.7954 </r>
       <r>     8.9966     3.5569    29.3037 </r>
       <r>     9.1395     4.6443    29.9674 </r>
       <r>     9.2824     4.0364    30.5442 </r>
       <r>     9.4253     2.8626    30.9533 </r>
       <r>     9.5682     3.2678    31.4202 </r>
       <r>     9.7111     3.7080    31.9501 </r>
       <r>     9.8540     4.4381    32.5843 </r>
       <r>     9.9969     3.8304    33.1317 </r>
       <r>    10.1398     5.0212    33.8492 </r>
       <r>    10.2827     3.2449    34.3129 </r>
       <r>    10.4256     4.1415    34.9048 </r>
       <r>    10.5685     2.4735    35.2582 </r>
       <r>    10.7114     4.0427    35.8359 </r>
       <r>    10.8543     3.6510    36.3577 </r>
       <r>    10.9972     4.0472    36.9360 </r>
       <r>    11.1401     5.8472    37.7716 </r>
       <r>    11.2830     3.2685    38.2387 </r>
       <r>    11.4259     3.6933    38.7664 </r>
       <r>    11.5688     3.5211    39.2696 </r>
       <r>    11.7117     3.4848    39.7676 </r>
       <r>    11.8546     3.0250    40.1999 </r>
       <r>    11.9975     3.5389    40.7056 </r>
       <r>    12.1404     4.8378    41.3969 </r>
       <r>    12.2833     2.5273    41.7581 </r>
       <r>    12.4262     3.5307    42.2626 </r>
       <r>    12.5691     4.3789    42.8884 </r>
       <r>    12.7120     4.7600    43.5686 </r>
       <r>    12.8549     2.4381    43.9170 </r>
       <r>    12.9978     3.2122    44.3760 </r>
       <r>    13.1407     2.5327    44.7379 </r>
       <r>    13.2836     2.7359    45.1289 </r>
       <r>    13.4265     2.8658    45.5384 </r>
       <r>    13.5694     2.3380    45.8725 </r>
       <r>    13.7123     2.5305    46.2342 </r>
       <r>    13.8552     2.1404    46.5400 </r>
       <r>    13.9981     2.4919    46.8961 </r>
       <r>    14.1410     1.7464    47.1457 </r>
       <r>    14.2839     1.1440    47.3092 </r>
       <r>    14.4268     1.4868    47.5216 </r>
       <r>    14.5697     0.4922    47.5920 </r>
       <r>    14.7126     0.5313    47.6679 </r>
       <r>    14.8555     0.4690    47.7349 </r>
       <r>    14.9984     0.6052    47.8214 </r>
       <r>    15.1413     0.2801    47.8614 </r>
       <r>    15.2842     0.1852    47.8879 </r>
       <r>    15.4271     0.0071    47.8889 </r>
       <r>    15.5700     0.0000    47.8889 </r>
       <r>    15.7129     0.0180    47.8915 </r>
       <r>    15.8558     0.1757    47.9166 </r>
       <r>    15.9988     0.2379    47.9506 </r>
       <r>    16.1417     0.1514    47.9722 </r>
       <r>    16.2846     0.0138    47.9742 </r>
       <r>    16.4275     0.1796    47.9999 </r>
       <r>    16.5704     0.0010    48.0000 </r>
       <r>    16.7133     0.0000    48.0000 </r>
       <r>    16.8562     0.0000    48.0000 </r>
       <r>    16.9991     0.0000    48.0000 </r>
       <r>    17.1420     0.0000    48.0000 </r>
       <r>    17.2849     0.0000    48.0000 </r>
       <r>    17.4278     0.0000    48.0000 </r>
       <r>    17.5707     0.0000    48.0000 </r>
       <r>    17.7136     0.0000    48.0000 </r>
       <r>    17.8565     0.0000    48.0000 </r>
       <r>    17.9994     0.0000    48.0000 </r>
       <r>    18.1423     0.0000    48.0000 </r>
       <r>    18.2852     0.0000    48.0000 </r>
      </set>
     </set>
    </array>
   </total>
  </dos>
 </calculation>
 <structure name="finalpos" >
  <crystal>
   <varray name="basis" >
    <v>       1.24133263      -2.14182848       0.00000000 </v>
    <v>       1.22708120       2.13360043       0.00000000 </v>
    <v>       0.00000000       0.00000000      30.28239374 </v>
   </varray>
   <i name="volume">    159.79126713 </i>
   <varray name="rec_basis" >
    <v>       0.40434330      -0.23254685       0.00000000 </v>
    <v>       0.40590262       0.23524767       0.00000000 </v>
    <v>       0.00000000       0.00000000       0.03302249 </v>
   </varray>
  </crystal>
  <varray name="positions" >
   <v>       0.00033120       0.00028017       0.50000000 </v>
   <v>       0.66633880       0.33304983       0.50000000 </v>
  </varray>
 </structure>
</modeling>
