unknown system                          
           1
     1.241333   -2.141828    0.000000
     1.227081    2.133600    0.000000
     0.000000    0.000000   30.282394
   C 
   2
Direct configuration=     1
   0.00000262  0.99999738  0.50000000
   0.66666738  0.33333262  0.50000000
Direct configuration=     2
   0.00173717  0.00149022  0.50000000
   0.66493283  0.33183978  0.50000000
Direct configuration=     3
   0.00033120  0.00028017  0.50000000
   0.66633880  0.33304983  0.50000000
