   4   4   0   0
  0.1741852E+02  0.4041752E-09  0.4155953E-09  0.4154382E-09  0.2000000E-15
  1.000000000000000E-004
  CAR 
 unknown system                          
     20.10320101     -1.51544739  301      9.13539954      1.00000000
     -1.515  0.0000E+00  0.0000E+00
     -1.443  0.0000E+00  0.0000E+00
     -1.371  0.0000E+00  0.0000E+00
     -1.299  0.0000E+00  0.0000E+00
     -1.227  0.0000E+00  0.0000E+00
     -1.155  0.0000E+00  0.0000E+00
     -1.083  0.4108E-19  0.2961E-20
     -1.011  0.1018E-15  0.7337E-17
     -0.939  0.9143E-13  0.6596E-14
     -0.867  0.3060E-10  0.2212E-11
     -0.795  0.3939E-08  0.2861E-09
     -0.723  0.2047E-06  0.1504E-07
     -0.651  0.4583E-05  0.3453E-06
     -0.579  0.4730E-04  0.3754E-05
     -0.507  0.2389E-03  0.2097E-04
     -0.435  0.6294E-03  0.6633E-04
     -0.362  0.1018E-02  0.1397E-03
     -0.290  0.1420E-02  0.2420E-03
     -0.218  0.1794E-02  0.3714E-03
     -0.146  0.1802E-02  0.5012E-03
     -0.074  0.2044E-02  0.6485E-03
     -0.002  0.2551E-02  0.8323E-03
      0.070  0.2683E-02  0.1026E-02
      0.142  0.2748E-02  0.1224E-02
      0.214  0.2768E-02  0.1423E-02
      0.286  0.2892E-02  0.1632E-02
      0.358  0.3534E-02  0.1886E-02
      0.430  0.4011E-02  0.2175E-02
      0.502  0.3879E-02  0.2455E-02
      0.574  0.3428E-02  0.2702E-02
      0.646  0.3582E-02  0.2960E-02
      0.718  0.4480E-02  0.3283E-02
      0.791  0.5034E-02  0.3646E-02
      0.863  0.5027E-02  0.4008E-02
      0.935  0.4993E-02  0.4368E-02
      1.007  0.4949E-02  0.4724E-02
      1.079  0.5235E-02  0.5102E-02
      1.151  0.5602E-02  0.5505E-02
      1.223  0.5887E-02  0.5929E-02
      1.295  0.6732E-02  0.6415E-02
      1.367  0.7422E-02  0.6949E-02
      1.439  0.7233E-02  0.7471E-02
      1.511  0.7102E-02  0.7982E-02
      1.583  0.7556E-02  0.8527E-02
      1.655  0.8756E-02  0.9158E-02
      1.727  0.1001E-01  0.9879E-02
      1.799  0.1105E-01  0.1068E-01
      1.871  0.1295E-01  0.1161E-01
      1.944  0.1571E-01  0.1274E-01
      2.016  0.1897E-01  0.1411E-01
      2.088  0.2266E-01  0.1574E-01
      2.160  0.2576E-01  0.1760E-01
      2.232  0.2927E-01  0.1971E-01
      2.304  0.3369E-01  0.2213E-01
      2.376  0.3927E-01  0.2496E-01
      2.448  0.4550E-01  0.2824E-01
      2.520  0.5059E-01  0.3189E-01
      2.592  0.5692E-01  0.3599E-01
      2.664  0.6383E-01  0.4059E-01
      2.736  0.6968E-01  0.4561E-01
      2.808  0.7394E-01  0.5094E-01
      2.880  0.7438E-01  0.5630E-01
      2.952  0.7373E-01  0.6161E-01
      3.024  0.7352E-01  0.6691E-01
      3.097  0.6963E-01  0.7193E-01
      3.169  0.6655E-01  0.7672E-01
      3.241  0.6666E-01  0.8153E-01
      3.313  0.6530E-01  0.8623E-01
      3.385  0.6185E-01  0.9069E-01
      3.457  0.5727E-01  0.9482E-01
      3.529  0.5333E-01  0.9866E-01
      3.601  0.5393E-01  0.1025E+00
      3.673  0.5837E-01  0.1068E+00
      3.745  0.6432E-01  0.1114E+00
      3.817  0.7144E-01  0.1165E+00
      3.889  0.7868E-01  0.1222E+00
      3.961  0.8253E-01  0.1282E+00
      4.033  0.8506E-01  0.1343E+00
      4.105  0.8519E-01  0.1404E+00
      4.177  0.8516E-01  0.1466E+00
      4.250  0.8865E-01  0.1529E+00
      4.322  0.9156E-01  0.1595E+00
      4.394  0.8940E-01  0.1660E+00
      4.466  0.8622E-01  0.1722E+00
      4.538  0.8825E-01  0.1786E+00
      4.610  0.9436E-01  0.1854E+00
      4.682  0.1022E+00  0.1927E+00
      4.754  0.1049E+00  0.2003E+00
      4.826  0.1008E+00  0.2075E+00
      4.898  0.9682E-01  0.2145E+00
      4.970  0.9631E-01  0.2215E+00
      5.042  0.9773E-01  0.2285E+00
      5.114  0.9603E-01  0.2354E+00
      5.186  0.8773E-01  0.2417E+00
      5.258  0.7736E-01  0.2473E+00
      5.330  0.7175E-01  0.2525E+00
      5.403  0.6977E-01  0.2575E+00
      5.475  0.6990E-01  0.2626E+00
      5.547  0.7315E-01  0.2678E+00
      5.619  0.7751E-01  0.2734E+00
      5.691  0.8098E-01  0.2792E+00
      5.763  0.8482E-01  0.2854E+00
      5.835  0.8915E-01  0.2918E+00
      5.907  0.8930E-01  0.2982E+00
      5.979  0.8392E-01  0.3043E+00
      6.051  0.8017E-01  0.3100E+00
      6.123  0.8021E-01  0.3158E+00
      6.195  0.7883E-01  0.3215E+00
      6.267  0.7446E-01  0.3269E+00
      6.339  0.6963E-01  0.3319E+00
      6.411  0.6619E-01  0.3367E+00
      6.483  0.6807E-01  0.3416E+00
      6.556  0.7172E-01  0.3467E+00
      6.628  0.7111E-01  0.3519E+00
      6.700  0.7039E-01  0.3569E+00
      6.772  0.7607E-01  0.3624E+00
      6.844  0.8478E-01  0.3685E+00
      6.916  0.9133E-01  0.3751E+00
      6.988  0.1012E+00  0.3824E+00
      7.060  0.1110E+00  0.3904E+00
      7.132  0.1082E+00  0.3982E+00
      7.204  0.9313E-01  0.4049E+00
      7.276  0.7600E-01  0.4104E+00
      7.348  0.6057E-01  0.4147E+00
      7.420  0.4608E-01  0.4181E+00
      7.492  0.3347E-01  0.4205E+00
      7.564  0.2142E-01  0.4220E+00
      7.636  0.1314E-01  0.4230E+00
      7.709  0.1095E-01  0.4238E+00
      7.781  0.1139E-01  0.4246E+00
      7.853  0.1176E-01  0.4254E+00
      7.925  0.1150E-01  0.4263E+00
      7.997  0.1103E-01  0.4270E+00
      8.069  0.1067E-01  0.4278E+00
      8.141  0.1070E-01  0.4286E+00
      8.213  0.1181E-01  0.4294E+00
      8.285  0.1266E-01  0.4304E+00
      8.357  0.1214E-01  0.4312E+00
      8.429  0.1161E-01  0.4321E+00
      8.501  0.1108E-01  0.4329E+00
      8.573  0.1022E-01  0.4336E+00
      8.645  0.1066E-01  0.4344E+00
      8.717  0.1169E-01  0.4352E+00
      8.789  0.1201E-01  0.4361E+00
      8.862  0.1210E-01  0.4369E+00
      8.934  0.1171E-01  0.4378E+00
      9.006  0.1112E-01  0.4386E+00
      9.078  0.1078E-01  0.4394E+00
      9.150  0.1095E-01  0.4402E+00
      9.222  0.1110E-01  0.4410E+00
      9.294  0.1131E-01  0.4418E+00
      9.366  0.1230E-01  0.4427E+00
      9.438  0.1280E-01  0.4436E+00
      9.510  0.1171E-01  0.4444E+00
      9.582  0.1078E-01  0.4452E+00
      9.654  0.1027E-01  0.4459E+00
      9.726  0.9907E-02  0.4467E+00
      9.798  0.1026E-01  0.4474E+00
      9.870  0.1128E-01  0.4482E+00
      9.942  0.1237E-01  0.4491E+00
     10.014  0.1228E-01  0.4500E+00
     10.087  0.1178E-01  0.4508E+00
     10.159  0.1162E-01  0.4517E+00
     10.231  0.1111E-01  0.4525E+00
     10.303  0.1068E-01  0.4532E+00
     10.375  0.1053E-01  0.4540E+00
     10.447  0.1061E-01  0.4548E+00
     10.519  0.1110E-01  0.4556E+00
     10.591  0.1133E-01  0.4564E+00
     10.663  0.1101E-01  0.4572E+00
     10.735  0.1073E-01  0.4579E+00
     10.807  0.1088E-01  0.4587E+00
     10.879  0.1087E-01  0.4595E+00
     10.951  0.1058E-01  0.4603E+00
     11.023  0.1028E-01  0.4610E+00
     11.095  0.1031E-01  0.4618E+00
     11.167  0.1093E-01  0.4626E+00
     11.240  0.1108E-01  0.4633E+00
     11.312  0.1047E-01  0.4641E+00
     11.384  0.9984E-02  0.4648E+00
     11.456  0.9808E-02  0.4655E+00
     11.528  0.9622E-02  0.4662E+00
     11.600  0.9928E-02  0.4669E+00
     11.672  0.1178E-01  0.4678E+00
     11.744  0.1414E-01  0.4688E+00
     11.816  0.1462E-01  0.4699E+00
     11.888  0.1342E-01  0.4708E+00
     11.960  0.1220E-01  0.4717E+00
     12.032  0.1201E-01  0.4726E+00
     12.104  0.1267E-01  0.4735E+00
     12.176  0.1258E-01  0.4744E+00
     12.248  0.1172E-01  0.4752E+00
     12.320  0.1153E-01  0.4761E+00
     12.393  0.1232E-01  0.4770E+00
     12.465  0.1407E-01  0.4780E+00
     12.537  0.1470E-01  0.4790E+00
     12.609  0.1358E-01  0.4800E+00
     12.681  0.1325E-01  0.4810E+00
     12.753  0.1359E-01  0.4819E+00
     12.825  0.1311E-01  0.4829E+00
     12.897  0.1245E-01  0.4838E+00
     12.969  0.1208E-01  0.4847E+00
     13.041  0.1150E-01  0.4855E+00
     13.113  0.1036E-01  0.4862E+00
     13.185  0.9767E-02  0.4869E+00
     13.257  0.1051E-01  0.4877E+00
     13.329  0.1140E-01  0.4885E+00
     13.401  0.1112E-01  0.4893E+00
     13.473  0.1071E-01  0.4901E+00
     13.546  0.1136E-01  0.4909E+00
     13.618  0.1175E-01  0.4917E+00
     13.690  0.1073E-01  0.4925E+00
     13.762  0.1011E-01  0.4932E+00
     13.834  0.1125E-01  0.4941E+00
     13.906  0.1245E-01  0.4950E+00
     13.978  0.1251E-01  0.4959E+00
     14.050  0.1281E-01  0.4968E+00
     14.122  0.1369E-01  0.4978E+00
     14.194  0.1433E-01  0.4988E+00
     14.266  0.1429E-01  0.4998E+00
     14.338  0.1382E-01  0.5008E+00
     14.410  0.1420E-01  0.5018E+00
     14.482  0.1444E-01  0.5029E+00
     14.554  0.1366E-01  0.5039E+00
     14.626  0.1383E-01  0.5049E+00
     14.699  0.1511E-01  0.5060E+00
     14.771  0.1517E-01  0.5071E+00
     14.843  0.1410E-01  0.5081E+00
     14.915  0.1312E-01  0.5090E+00
     14.987  0.1239E-01  0.5099E+00
     15.059  0.1182E-01  0.5108E+00
     15.131  0.1211E-01  0.5116E+00
     15.203  0.1292E-01  0.5126E+00
     15.275  0.1299E-01  0.5135E+00
     15.347  0.1125E-01  0.5143E+00
     15.419  0.9154E-02  0.5150E+00
     15.491  0.8894E-02  0.5156E+00
     15.563  0.1006E-01  0.5163E+00
     15.635  0.1082E-01  0.5171E+00
     15.707  0.1116E-01  0.5179E+00
     15.779  0.1100E-01  0.5187E+00
     15.852  0.1074E-01  0.5195E+00
     15.924  0.1145E-01  0.5203E+00
     15.996  0.1244E-01  0.5212E+00
     16.068  0.1244E-01  0.5221E+00
     16.140  0.1178E-01  0.5230E+00
     16.212  0.1079E-01  0.5237E+00
     16.284  0.1000E-01  0.5245E+00
     16.356  0.9236E-02  0.5251E+00
     16.428  0.8172E-02  0.5257E+00
     16.500  0.8430E-02  0.5263E+00
     16.572  0.1024E-01  0.5271E+00
     16.644  0.1253E-01  0.5280E+00
     16.716  0.1366E-01  0.5289E+00
     16.788  0.1284E-01  0.5299E+00
     16.860  0.1155E-01  0.5307E+00
     16.932  0.1128E-01  0.5315E+00
     17.005  0.1124E-01  0.5323E+00
     17.077  0.1074E-01  0.5331E+00
     17.149  0.1019E-01  0.5338E+00
     17.221  0.9419E-02  0.5345E+00
     17.293  0.8458E-02  0.5351E+00
     17.365  0.7165E-02  0.5356E+00
     17.437  0.6140E-02  0.5361E+00
     17.509  0.6227E-02  0.5365E+00
     17.581  0.6258E-02  0.5370E+00
     17.653  0.5882E-02  0.5374E+00
     17.725  0.5965E-02  0.5378E+00
     17.797  0.5562E-02  0.5382E+00
     17.869  0.4227E-02  0.5385E+00
     17.941  0.3096E-02  0.5388E+00
     18.013  0.2718E-02  0.5390E+00
     18.085  0.2473E-02  0.5391E+00
     18.158  0.1896E-02  0.5393E+00
     18.230  0.1647E-02  0.5394E+00
     18.302  0.1791E-02  0.5395E+00
     18.374  0.1635E-02  0.5396E+00
     18.446  0.1101E-02  0.5397E+00
     18.518  0.7364E-03  0.5398E+00
     18.590  0.5999E-03  0.5398E+00
     18.662  0.4581E-03  0.5398E+00
     18.734  0.3833E-03  0.5399E+00
     18.806  0.4402E-03  0.5399E+00
     18.878  0.4375E-03  0.5399E+00
     18.950  0.3621E-03  0.5400E+00
     19.022  0.2612E-03  0.5400E+00
     19.094  0.1810E-03  0.5400E+00
     19.166  0.1167E-03  0.5400E+00
     19.238  0.4077E-04  0.5400E+00
     19.311  0.5948E-05  0.5400E+00
     19.383  0.3402E-06  0.5400E+00
     19.455  0.7447E-08  0.5400E+00
     19.527  0.6126E-10  0.5400E+00
     19.599  0.1868E-12  0.5400E+00
     19.671  0.2087E-15  0.5400E+00
     19.743  0.7304E-19  0.5400E+00
     19.815  0.0000E+00  0.5400E+00
     19.887  0.0000E+00  0.5400E+00
     19.959  0.0000E+00  0.5400E+00
     20.031  0.0000E+00  0.5400E+00
     20.103  0.0000E+00  0.5400E+00
