   8   8   0   0
  0.5647802E+01  0.3561693E-09  0.3561693E-09  0.3561693E-09  0.5000000E-15
  1.000000000000000E-004
  CAR 
 unknown system                          
     24.57656164    -12.15761894  301     11.23746232      1.00000000
    -12.158  0.0000E+00  0.0000E+00
    -12.035  0.0000E+00  0.0000E+00
    -11.913  0.0000E+00  0.0000E+00
    -11.790  0.0000E+00  0.0000E+00
    -11.668  0.0000E+00  0.0000E+00
    -11.545  0.0000E+00  0.0000E+00
    -11.423  0.0000E+00  0.0000E+00
    -11.300  0.0000E+00  0.0000E+00
    -11.178  0.0000E+00  0.0000E+00
    -11.056  0.0000E+00  0.0000E+00
    -10.933  0.0000E+00  0.0000E+00
    -10.811  0.0000E+00  0.0000E+00
    -10.688  0.3455E-11  0.4230E-12
    -10.566  0.6555E-05  0.8027E-06
    -10.443  0.5332E-03  0.6609E-04
    -10.321  0.1721E-02  0.2768E-03
    -10.198  0.2176E-02  0.5433E-03
    -10.076  0.3257E-02  0.9421E-03
     -9.954  0.2321E-02  0.1226E-02
     -9.831  0.4383E-02  0.1763E-02
     -9.709  0.3464E-02  0.2187E-02
     -9.586  0.3956E-02  0.2671E-02
     -9.464  0.4978E-02  0.3281E-02
     -9.341  0.4892E-02  0.3880E-02
     -9.219  0.5389E-02  0.4540E-02
     -9.096  0.3836E-02  0.5009E-02
     -8.974  0.6666E-02  0.5826E-02
     -8.852  0.6520E-02  0.6624E-02
     -8.729  0.5161E-02  0.7256E-02
     -8.607  0.5035E-02  0.7872E-02
     -8.484  0.7228E-02  0.8757E-02
     -8.362  0.8154E-02  0.9756E-02
     -8.239  0.5723E-02  0.1046E-01
     -8.117  0.7536E-02  0.1138E-01
     -7.994  0.6211E-02  0.1214E-01
     -7.872  0.8571E-02  0.1319E-01
     -7.750  0.5681E-02  0.1389E-01
     -7.627  0.9130E-02  0.1500E-01
     -7.505  0.1067E-01  0.1631E-01
     -7.382  0.5393E-02  0.1697E-01
     -7.260  0.8173E-02  0.1797E-01
     -7.137  0.7088E-02  0.1884E-01
     -7.015  0.1246E-01  0.2036E-01
     -6.892  0.8380E-02  0.2139E-01
     -6.770  0.9589E-02  0.2256E-01
     -6.647  0.7234E-02  0.2345E-01
     -6.525  0.1069E-01  0.2476E-01
     -6.403  0.8901E-02  0.2585E-01
     -6.280  0.1039E-01  0.2712E-01
     -6.158  0.1016E-01  0.2837E-01
     -6.035  0.1052E-01  0.2966E-01
     -5.913  0.1144E-01  0.3106E-01
     -5.790  0.1033E-01  0.3232E-01
     -5.668  0.1414E-01  0.3405E-01
     -5.545  0.6154E-02  0.3481E-01
     -5.423  0.9438E-02  0.3596E-01
     -5.301  0.1651E-01  0.3798E-01
     -5.178  0.1356E-01  0.3964E-01
     -5.056  0.1118E-01  0.4101E-01
     -4.933  0.1458E-01  0.4280E-01
     -4.811  0.1090E-01  0.4413E-01
     -4.688  0.1388E-01  0.4583E-01
     -4.566  0.1582E-01  0.4777E-01
     -4.443  0.1537E-01  0.4965E-01
     -4.321  0.1493E-01  0.5148E-01
     -4.199  0.1371E-01  0.5316E-01
     -4.076  0.1198E-01  0.5462E-01
     -3.954  0.2056E-01  0.5714E-01
     -3.831  0.1002E-01  0.5837E-01
     -3.709  0.1182E-01  0.5982E-01
     -3.586  0.1024E-01  0.6107E-01
     -3.464  0.9048E-02  0.6218E-01
     -3.341  0.1543E-01  0.6407E-01
     -3.219  0.1677E-01  0.6612E-01
     -3.097  0.5916E-02  0.6684E-01
     -2.974  0.1007E-01  0.6808E-01
     -2.852  0.1205E-01  0.6955E-01
     -2.729  0.1121E-01  0.7093E-01
     -2.607  0.1017E-01  0.7217E-01
     -2.484  0.5158E-02  0.7280E-01
     -2.362  0.7633E-02  0.7374E-01
     -2.239  0.1003E-01  0.7497E-01
     -2.117  0.1249E-01  0.7649E-01
     -1.994  0.1229E-01  0.7800E-01
     -1.872  0.1531E-01  0.7987E-01
     -1.750  0.1281E-01  0.8144E-01
     -1.627  0.5879E-02  0.8216E-01
     -1.505  0.8221E-02  0.8317E-01
     -1.382  0.1183E-01  0.8462E-01
     -1.260  0.8129E-02  0.8561E-01
     -1.137  0.8724E-02  0.8668E-01
     -1.015  0.1792E-01  0.8888E-01
     -0.892  0.1625E-01  0.9087E-01
     -0.770  0.1731E-01  0.9298E-01
     -0.648  0.2402E-01  0.9593E-01
     -0.525  0.2150E-01  0.9856E-01
     -0.403  0.2224E-01  0.1013E+00
     -0.280  0.1350E-01  0.1029E+00
     -0.158  0.2053E-01  0.1055E+00
     -0.035  0.2086E-01  0.1080E+00
      0.087  0.2751E-01  0.1114E+00
      0.210  0.1597E-01  0.1133E+00
      0.332  0.1595E-01  0.1153E+00
      0.454  0.7519E-02  0.1162E+00
      0.577  0.1025E-01  0.1175E+00
      0.699  0.1598E-01  0.1194E+00
      0.822  0.8155E-02  0.1204E+00
      0.944  0.1381E-01  0.1221E+00
      1.067  0.1204E-01  0.1236E+00
      1.189  0.1704E-01  0.1257E+00
      1.312  0.8839E-02  0.1267E+00
      1.434  0.8301E-02  0.1278E+00
      1.556  0.1289E-01  0.1293E+00
      1.679  0.1335E-01  0.1310E+00
      1.801  0.9977E-02  0.1322E+00
      1.924  0.1328E-01  0.1338E+00
      2.046  0.1678E-01  0.1359E+00
      2.169  0.2158E-01  0.1385E+00
      2.291  0.1881E-01  0.1408E+00
      2.414  0.2400E-01  0.1438E+00
      2.536  0.1978E-01  0.1462E+00
      2.659  0.2440E-01  0.1492E+00
      2.781  0.1882E-01  0.1515E+00
      2.903  0.1742E-01  0.1536E+00
      3.026  0.1281E-01  0.1552E+00
      3.148  0.2004E-01  0.1576E+00
      3.271  0.2878E-01  0.1612E+00
      3.393  0.3147E-01  0.1650E+00
      3.516  0.1012E-01  0.1663E+00
      3.638  0.1895E-01  0.1686E+00
      3.761  0.2200E-01  0.1713E+00
      3.883  0.2390E-01  0.1742E+00
      4.005  0.2691E-01  0.1775E+00
      4.128  0.2426E-01  0.1805E+00
      4.250  0.2393E-01  0.1834E+00
      4.373  0.1589E-01  0.1853E+00
      4.495  0.2959E-01  0.1890E+00
      4.618  0.3438E-01  0.1932E+00
      4.740  0.3329E-01  0.1972E+00
      4.863  0.2834E-01  0.2007E+00
      4.985  0.2856E-01  0.2042E+00
      5.107  0.2685E-01  0.2075E+00
      5.230  0.2708E-01  0.2108E+00
      5.352  0.4178E-01  0.2159E+00
      5.475  0.4212E-01  0.2211E+00
      5.597  0.2081E-01  0.2236E+00
      5.720  0.1645E-01  0.2256E+00
      5.842  0.3283E-01  0.2297E+00
      5.965  0.3202E-01  0.2336E+00
      6.087  0.4032E-01  0.2385E+00
      6.209  0.2307E-01  0.2414E+00
      6.332  0.2292E-01  0.2442E+00
      6.454  0.3217E-01  0.2481E+00
      6.577  0.2622E-01  0.2513E+00
      6.699  0.2508E-01  0.2544E+00
      6.822  0.3241E-01  0.2583E+00
      6.944  0.2676E-01  0.2616E+00
      7.067  0.2062E-01  0.2641E+00
      7.189  0.2912E-01  0.2677E+00
      7.311  0.3630E-01  0.2722E+00
      7.434  0.2113E-01  0.2747E+00
      7.556  0.1940E-01  0.2771E+00
      7.679  0.2944E-01  0.2807E+00
      7.801  0.1753E-01  0.2829E+00
      7.924  0.3838E-01  0.2876E+00
      8.046  0.2874E-01  0.2911E+00
      8.169  0.1580E-01  0.2930E+00
      8.291  0.1469E-01  0.2948E+00
      8.414  0.2727E-01  0.2982E+00
      8.536  0.1909E-01  0.3005E+00
      8.658  0.2031E-01  0.3030E+00
      8.781  0.1121E-01  0.3044E+00
      8.903  0.7249E-02  0.3053E+00
      9.026  0.1225E-01  0.3068E+00
      9.148  0.1801E-01  0.3090E+00
      9.271  0.1171E-01  0.3104E+00
      9.393  0.8770E-02  0.3115E+00
      9.516  0.7748E-02  0.3124E+00
      9.638  0.5526E-02  0.3131E+00
      9.760  0.1212E-01  0.3146E+00
      9.883  0.8514E-02  0.3156E+00
     10.005  0.4735E-02  0.3162E+00
     10.128  0.5748E-02  0.3169E+00
     10.250  0.4445E-02  0.3174E+00
     10.373  0.6832E-02  0.3183E+00
     10.495  0.3323E-02  0.3187E+00
     10.618  0.4573E-02  0.3192E+00
     10.740  0.2059E-02  0.3195E+00
     10.862  0.2662E-02  0.3198E+00
     10.985  0.1321E-02  0.3200E+00
     11.107  0.1104E-03  0.3200E+00
     11.230  0.1513E-08  0.3200E+00
     11.352  0.0000E+00  0.3200E+00
     11.475  0.0000E+00  0.3200E+00
     11.597  0.0000E+00  0.3200E+00
     11.720  0.0000E+00  0.3200E+00
     11.842  0.0000E+00  0.3200E+00
     11.964  0.0000E+00  0.3200E+00
     12.087  0.0000E+00  0.3200E+00
     12.209  0.0000E+00  0.3200E+00
     12.332  0.0000E+00  0.3200E+00
     12.454  0.0000E+00  0.3200E+00
     12.577  0.0000E+00  0.3200E+00
     12.699  0.0000E+00  0.3200E+00
     12.822  0.0000E+00  0.3200E+00
     12.944  0.0000E+00  0.3200E+00
     13.067  0.0000E+00  0.3200E+00
     13.189  0.0000E+00  0.3200E+00
     13.311  0.0000E+00  0.3200E+00
     13.434  0.0000E+00  0.3200E+00
     13.556  0.0000E+00  0.3200E+00
     13.679  0.0000E+00  0.3200E+00
     13.801  0.0000E+00  0.3200E+00
     13.924  0.0000E+00  0.3200E+00
     14.046  0.0000E+00  0.3200E+00
     14.169  0.0000E+00  0.3200E+00
     14.291  0.0000E+00  0.3200E+00
     14.413  0.0000E+00  0.3200E+00
     14.536  0.0000E+00  0.3200E+00
     14.658  0.0000E+00  0.3200E+00
     14.781  0.0000E+00  0.3200E+00
     14.903  0.0000E+00  0.3200E+00
     15.026  0.4514E-13  0.3200E+00
     15.148  0.1830E-05  0.3200E+00
     15.271  0.1766E-02  0.3202E+00
     15.393  0.3780E-02  0.3207E+00
     15.515  0.2598E-02  0.3210E+00
     15.638  0.3274E-02  0.3214E+00
     15.760  0.1064E-01  0.3227E+00
     15.883  0.8856E-02  0.3238E+00
     16.005  0.8761E-02  0.3249E+00
     16.128  0.7092E-02  0.3257E+00
     16.250  0.6007E-02  0.3265E+00
     16.373  0.1971E-01  0.3289E+00
     16.495  0.1648E-01  0.3309E+00
     16.617  0.1739E-01  0.3330E+00
     16.740  0.1596E-01  0.3350E+00
     16.862  0.1296E-01  0.3366E+00
     16.985  0.2019E-01  0.3390E+00
     17.107  0.1117E-01  0.3404E+00
     17.230  0.2037E-01  0.3429E+00
     17.352  0.2647E-01  0.3461E+00
     17.475  0.2487E-01  0.3492E+00
     17.597  0.2322E-01  0.3520E+00
     17.720  0.1398E-01  0.3537E+00
     17.842  0.1807E-01  0.3560E+00
     17.964  0.3362E-01  0.3601E+00
     18.087  0.2242E-01  0.3628E+00
     18.209  0.2545E-01  0.3659E+00
     18.332  0.1493E-01  0.3678E+00
     18.454  0.2766E-01  0.3711E+00
     18.577  0.3381E-01  0.3753E+00
     18.699  0.3556E-01  0.3796E+00
     18.822  0.3349E-01  0.3837E+00
     18.944  0.3583E-01  0.3881E+00
     19.066  0.3470E-01  0.3924E+00
     19.189  0.2895E-01  0.3959E+00
     19.311  0.3930E-01  0.4007E+00
     19.434  0.3504E-01  0.4050E+00
     19.556  0.3805E-01  0.4097E+00
     19.679  0.4143E-01  0.4148E+00
     19.801  0.5979E-01  0.4221E+00
     19.924  0.3903E-01  0.4269E+00
     20.046  0.2742E-01  0.4302E+00
     20.168  0.3603E-01  0.4346E+00
     20.291  0.2449E-01  0.4376E+00
     20.413  0.2662E-01  0.4409E+00
     20.536  0.2145E-01  0.4435E+00
     20.658  0.2097E-01  0.4461E+00
     20.781  0.4462E-01  0.4515E+00
     20.903  0.2865E-01  0.4550E+00
     21.026  0.3498E-01  0.4593E+00
     21.148  0.2037E-01  0.4618E+00
     21.270  0.2359E-01  0.4647E+00
     21.393  0.2758E-01  0.4681E+00
     21.515  0.1335E-01  0.4697E+00
     21.638  0.9581E-02  0.4709E+00
     21.760  0.1699E-01  0.4730E+00
     21.883  0.1848E-01  0.4752E+00
     22.005  0.1013E-01  0.4765E+00
     22.128  0.1437E-01  0.4782E+00
     22.250  0.4484E-02  0.4788E+00
     22.373  0.5951E-02  0.4795E+00
     22.495  0.7385E-03  0.4796E+00
     22.617  0.3142E-03  0.4797E+00
     22.740  0.4909E-07  0.4797E+00
     22.862  0.3142E-03  0.4797E+00
     22.985  0.2507E-02  0.4800E+00
     23.107  0.3632E-04  0.4800E+00
     23.230  0.1747E-10  0.4800E+00
     23.352  0.0000E+00  0.4800E+00
     23.475  0.0000E+00  0.4800E+00
     23.597  0.0000E+00  0.4800E+00
     23.719  0.0000E+00  0.4800E+00
     23.842  0.0000E+00  0.4800E+00
     23.964  0.0000E+00  0.4800E+00
     24.087  0.0000E+00  0.4800E+00
     24.209  0.0000E+00  0.4800E+00
     24.332  0.0000E+00  0.4800E+00
     24.454  0.0000E+00  0.4800E+00
     24.577  0.0000E+00  0.4800E+00
