       N       E                     dE             d eps       ncg     rms          rms(c)
DAV:   1     0.102617593310E+03    0.10262E+03   -0.26069E+04  4032   0.199E+03
DAV:   2    -0.725278251037E+02   -0.17515E+03   -0.17241E+03  6456   0.227E+02
DAV:   3    -0.753358014165E+02   -0.28080E+01   -0.28080E+01  4608   0.406E+01
DAV:   4    -0.753549667686E+02   -0.19165E-01   -0.19165E-01  7584   0.259E+00
DAV:   5    -0.753549694295E+02   -0.26609E-05   -0.26608E-05  4512   0.357E-02    0.167E+01
DAV:   6    -0.734724527660E+02    0.18825E+01   -0.14161E+00  4728   0.636E+00    0.110E+01
DAV:   7    -0.728420130517E+02    0.63044E+00   -0.18352E+00  5616   0.731E+00    0.235E+00
DAV:   8    -0.728403048576E+02    0.17082E-02   -0.24972E-02  6792   0.120E+00    0.120E-01
DAV:   9    -0.728404745874E+02   -0.16973E-03   -0.45393E-04  5544   0.141E-01    0.614E-02
DAV:  10    -0.728405966808E+02   -0.12209E-03   -0.11452E-04  6528   0.851E-02    0.482E-03
DAV:  11    -0.728405978341E+02   -0.11533E-05   -0.16916E-06  5904   0.103E-02    0.298E-03
DAV:  12    -0.728405981803E+02   -0.34623E-06   -0.66024E-08  6456   0.234E-03    0.161E-04
DAV:  13    -0.728405981891E+02   -0.88166E-08   -0.99700E-11  5976   0.801E-05
   1 F= -.72840598E+02 E0= -.72840598E+02  d E =-.728406E+02
