 vasp.5.4.4.18Apr17-6-g9f103f2a35 (build Jan 14 2019 14:48:31) complex          
  
 executed on             LinuxIFC date 2019.08.26  21:13:34
 running on   24 total cores
 distrk:  each k-point on   24 cores,    1 groups
 distr:  one band on NCORES_PER_BAND=   1 cores,   24 groups


--------------------------------------------------------------------------------------------------------


 INCAR:
 POTCAR:    PAW_PBE C_h 06Feb2004                 

 ----------------------------------------------------------------------------- 
|                                                                             |
|           W    W    AA    RRRRR   N    N  II  N    N   GGGG   !!!           |
|           W    W   A  A   R    R  NN   N  II  NN   N  G    G  !!!           |
|           W    W  A    A  R    R  N N  N  II  N N  N  G       !!!           |
|           W WW W  AAAAAA  RRRRR   N  N N  II  N  N N  G  GGG   !            |
|           WW  WW  A    A  R   R   N   NN  II  N   NN  G    G                |
|           W    W  A    A  R    R  N    N  II  N    N   GGGG   !!!           |
|                                                                             |
|      For optimal performance we recommend to set                            |
|        NCORE= 4 - approx SQRT( number of cores)                             |
|      NCORE specifies how many cores store one orbital (NPAR=cpu/NCORE).     |
|      This setting can  greatly improve the performance of VASP for DFT.     |
|      The default,   NCORE=1            might be grossly inefficient         |
|      on modern multi-core architectures or massively parallel machines.     |
|      Do your own testing !!!!                                               |
|      Unfortunately you need to use the default for GW and RPA calculations. |
|      (for HF NCORE is supported but not extensively tested yet)             |
|                                                                             |
 ----------------------------------------------------------------------------- 

 POTCAR:    PAW_PBE C_h 06Feb2004                 
   VRHFIN =C: s2p2                                                              
   LEXCH  = PE                                                                  
   EATOM  =   147.1560 eV,   10.8157 Ry                                         
                                                                                
   TITEL  = PAW_PBE C_h 06Feb2004                                               
   LULTRA =        F    use ultrasoft PP ?                                      
   IUNSCR =        1    unscreen: 0-lin 1-nonlin 2-no                           
   RPACOR =    0.800    partial core radius                                     
   POMASS =   12.011; ZVAL   =    4.000    mass and valenz                      
   RCORE  =    1.100    outmost cutoff radius                                   
   RWIGS  =    1.630; RWIGS  =    0.863    wigner-seitz radius (au A)           
   ENMAX  =  700.000; ENMIN  =  500.000 eV                                      
   ICORE  =        2    local potential                                         
   LCOR   =        T    correct aug charges                                     
   LPAW   =        T    paw PP                                                  
   EAUG   =  946.768                                                            
   DEXC   =    0.000                                                            
   RMAX   =    1.128    core radius for proj-oper                               
   RAUG   =    1.300    factor for augmentation sphere                          
   RDEP   =    1.162    radius for radial grids                                 
   RDEPT  =    1.088    core radius for aug-charge                              
                                                                                
   Atomic configuration                                                         
    4 entries                                                                   
     n  l   j            E        occ.                                          
     1  0  0.50      -273.3789   2.0000                                         
     2  0  0.50       -13.7508   2.0000                                         
     2  1  0.50        -5.2854   2.0000                                         
     3  2  1.50        -5.4423   0.0000                                         
   Description                                                                  
     l       E           TYP  RCUT    TYP  RCUT                                 
     0    -13.7508458     23  1.100                                             
     0     -8.2022199     23  1.100                                             
     1     -5.2854383     23  1.100                                             
     1      1.1560700     23  1.100                                             
     2     -5.4423304      7  1.100                                             
  local pseudopotential read in
  partial core-charges read in
  partial kinetic energy density read in
  atomic valenz-charges read in
  non local Contribution for L=           0  read in
    real space projection operators read in
  non local Contribution for L=           0  read in
    real space projection operators read in
  non local Contribution for L=           1  read in
    real space projection operators read in
  non local Contribution for L=           1  read in
    real space projection operators read in
    PAW grid and wavefunctions read in
 
   number of l-projection  operators is LMAX  =           4
   number of lm-projection operators is LMMAX =           8
 
  PAW_PBE C_h 06Feb2004                 :
 energy of atom  1       EATOM= -147.1560
 kinetic energy error for atom=    0.0044 (will be added to EATOM!!)
 
 
 POSCAR: C8                                      
  positions in direct lattice
  velocities in cartesian coordinates
 exchange correlation table for  LEXCH =        8
   RHO(1)=    0.500       N(1)  =     2000
   RHO(2)=  100.500       N(2)  =     4000

 VTST: version 3.1, (03/28/14)

 CHAIN: initializing optimizer
 
 OPT: Using VASP Conjugate-Gradient optimizer
 CHAIN: Read ICHAIN            0
 
 POSCAR: C8                                      
  positions in direct lattice
  velocities in cartesian coordinates
 


--------------------------------------------------------------------------------------------------------


 ion  position               nearest neighbor table
   1  0.250  0.250  0.250-   2 1.54   4 1.54   6 1.54   8 1.54
   2  0.000  0.000  0.000-   1 1.54   3 1.54   5 1.54   7 1.54
   3  0.250  0.750  0.750-   2 1.54   4 1.54   6 1.54   8 1.54
   4  0.000  0.500  0.500-   1 1.54   3 1.54   5 1.54   7 1.54
   5  0.750  0.250  0.750-   2 1.54   4 1.54   6 1.54   8 1.54
   6  0.500  0.000  0.500-   1 1.54   3 1.54   5 1.54   7 1.54
   7  0.750  0.750  0.250-   2 1.54   4 1.54   6 1.54   8 1.54
   8  0.500  0.500  0.000-   1 1.54   3 1.54   5 1.54   7 1.54
 
  LATTYP: Found a simple cubic cell.
 ALAT       =     3.5616930541
  
  Lattice vectors:
  
 A1 = (   3.5616930541,   0.0000000000,   0.0000000000)
 A2 = (   0.0000000000,   3.5616930541,   0.0000000000)
 A3 = (   0.0000000000,   0.0000000000,   3.5616930541)


Analysis of symmetry for initial positions (statically):
=====================================================================
 Subroutine PRICEL returns following result:
 
  LATTYP: Found a face centered cubic cell.
 ALAT       =     3.5616930541
  
  Lattice vectors:
  
 A1 = (   1.7808465270,   1.7808465270,   0.0000000000)
 A2 = (   1.7808465270,   0.0000000000,  -1.7808465270)
 A3 = (   0.0000000000,   1.7808465270,  -1.7808465270)
 
   4 primitive cells build up your supercell.
 

 Routine SETGRP: Setting up the symmetry group for a 
 simple cubic supercell.


 Subroutine GETGRP returns: Found 48 space group operations
 (whereof 24 operations were pure point group operations)
 out of a pool of 48 trial point group operations.


The static configuration has the point symmetry T_d .
 The point group associated with its full space group is O_h .


Analysis of symmetry for dynamics (positions and initial velocities):
=====================================================================
 Subroutine PRICEL returns following result:
 
  LATTYP: Found a face centered cubic cell.
 ALAT       =     3.5616930541
  
  Lattice vectors:
  
 A1 = (   1.7808465270,   1.7808465270,   0.0000000000)
 A2 = (   1.7808465270,   0.0000000000,  -1.7808465270)
 A3 = (   0.0000000000,   1.7808465270,  -1.7808465270)
 
   4 primitive cells build up your supercell.
 

 Routine SETGRP: Setting up the symmetry group for a 
 simple cubic supercell.


 Subroutine GETGRP returns: Found 48 space group operations
 (whereof 24 operations were pure point group operations)
 out of a pool of 48 trial point group operations.


The dynamic configuration has the point symmetry T_d .
 The point group associated with its full space group is O_h .


 Subroutine INISYM returns: Found 48 space group operations
 (whereof 24 operations are pure point group operations),
 and found     4 'primitive' translations

 
 
 KPOINTS: K-Mesh Generated with KP-Resolved Value 

Automatic generation of k-mesh.
Space group operators:
 irot       det(A)        alpha          n_x          n_y          n_z        tau_x        tau_y        tau_z
    1     1.000000     0.000000     1.000000     0.000000     0.000000     0.000000     0.000000     0.000000
    2     1.000000   120.000000    -0.577350    -0.577350    -0.577350     0.000000     0.000000     0.000000
    3     1.000000   120.000000     0.577350     0.577350     0.577350     0.000000     0.000000     0.000000
    4    -1.000000    90.000000     0.000000     0.000000    -1.000000     0.000000     0.000000     0.000000
    5    -1.000000   180.000000     0.000000     0.707107     0.707107     0.000000     0.000000     0.000000
    6    -1.000000    90.000000     0.000000     1.000000     0.000000     0.000000     0.000000     0.000000
    7     1.000000   180.000000     0.000000     0.000000     1.000000     0.000000     0.000000     0.000000
    8     1.000000   120.000000    -0.577350     0.577350     0.577350     0.000000     0.000000     0.000000
    9     1.000000   120.000000    -0.577350     0.577350    -0.577350     0.000000     0.000000     0.000000
   10    -1.000000    90.000000     0.000000     0.000000     1.000000     0.000000     0.000000     0.000000
   11    -1.000000    90.000000    -1.000000     0.000000     0.000000     0.000000     0.000000     0.000000
   12    -1.000000   180.000000     0.707107     0.000000     0.707107     0.000000     0.000000     0.000000
   13     1.000000   120.000000     0.577350    -0.577350     0.577350     0.000000     0.000000     0.000000
   14     1.000000   120.000000    -0.577350    -0.577350     0.577350     0.000000     0.000000     0.000000
   15     1.000000   180.000000     1.000000     0.000000     0.000000     0.000000     0.000000     0.000000
   16    -1.000000    90.000000     0.000000    -1.000000     0.000000     0.000000     0.000000     0.000000
   17    -1.000000   180.000000     0.707107     0.707107     0.000000     0.000000     0.000000     0.000000
   18    -1.000000    90.000000     1.000000     0.000000     0.000000     0.000000     0.000000     0.000000
   19     1.000000   120.000000     0.577350    -0.577350    -0.577350     0.000000     0.000000     0.000000
   20     1.000000   180.000000     0.000000     1.000000     0.000000     0.000000     0.000000     0.000000
   21     1.000000   120.000000     0.577350     0.577350    -0.577350     0.000000     0.000000     0.000000
   22    -1.000000   180.000000     0.000000    -0.707107     0.707107     0.000000     0.000000     0.000000
   23    -1.000000   180.000000     0.707107    -0.707107     0.000000     0.000000     0.000000     0.000000
   24    -1.000000   180.000000     0.707107     0.000000    -0.707107     0.000000     0.000000     0.000000
   25    -1.000000     0.000000     1.000000     0.000000     0.000000     0.750000     0.750000    -0.750000
   26    -1.000000   120.000000    -0.577350    -0.577350    -0.577350     0.750000     0.750000    -0.750000
   27    -1.000000   120.000000     0.577350     0.577350     0.577350     0.750000     0.750000    -0.750000
   28     1.000000    90.000000     0.000000     0.000000    -1.000000     0.750000     0.750000    -0.750000
   29     1.000000   180.000000     0.000000     0.707107     0.707107     0.750000     0.750000    -0.750000
   30     1.000000    90.000000     0.000000     1.000000     0.000000     0.750000     0.750000    -0.750000
   31    -1.000000   180.000000     0.000000     0.000000     1.000000     0.750000     0.750000    -0.750000
   32    -1.000000   120.000000    -0.577350     0.577350     0.577350     0.750000     0.750000    -0.750000
   33    -1.000000   120.000000    -0.577350     0.577350    -0.577350     0.750000     0.750000    -0.750000
   34     1.000000    90.000000     0.000000     0.000000     1.000000     0.750000     0.750000    -0.750000
   35     1.000000    90.000000    -1.000000     0.000000     0.000000     0.750000     0.750000    -0.750000
   36     1.000000   180.000000     0.707107     0.000000     0.707107     0.750000     0.750000    -0.750000
   37    -1.000000   120.000000     0.577350    -0.577350     0.577350     0.750000     0.750000    -0.750000
   38    -1.000000   120.000000    -0.577350    -0.577350     0.577350     0.750000     0.750000    -0.750000
   39    -1.000000   180.000000     1.000000     0.000000     0.000000     0.750000     0.750000    -0.750000
   40     1.000000    90.000000     0.000000    -1.000000     0.000000     0.750000     0.750000    -0.750000
   41     1.000000   180.000000     0.707107     0.707107     0.000000     0.750000     0.750000    -0.750000
   42     1.000000    90.000000     1.000000     0.000000     0.000000     0.750000     0.750000    -0.750000
   43    -1.000000   120.000000     0.577350    -0.577350    -0.577350     0.750000     0.750000    -0.750000
   44    -1.000000   180.000000     0.000000     1.000000     0.000000     0.750000     0.750000    -0.750000
   45    -1.000000   120.000000     0.577350     0.577350    -0.577350     0.750000     0.750000    -0.750000
   46     1.000000   180.000000     0.000000    -0.707107     0.707107     0.750000     0.750000    -0.750000
   47     1.000000   180.000000     0.707107    -0.707107     0.000000     0.750000     0.750000    -0.750000
   48     1.000000   180.000000     0.707107     0.000000    -0.707107     0.750000     0.750000    -0.750000
 
 Subroutine IBZKPT returns following result:
 ===========================================
 
 Found     84 irreducible k-points:
 
 Following reciprocal coordinates:
            Coordinates               Weight
  0.035714  0.035714  0.035714      8.000000
  0.107143  0.035714  0.035714     24.000000
  0.178571  0.035714  0.035714     24.000000
  0.250000  0.035714  0.035714     24.000000
  0.321429  0.035714  0.035714     24.000000
  0.392857  0.035714  0.035714     24.000000
  0.464286  0.035714  0.035714     24.000000
  0.107143  0.107143  0.035714     24.000000
  0.178571  0.107143  0.035714     48.000000
  0.250000  0.107143  0.035714     48.000000
  0.321429  0.107143  0.035714     48.000000
  0.392857  0.107143  0.035714     48.000000
  0.464286  0.107143  0.035714     48.000000
  0.178571  0.178571  0.035714     24.000000
  0.250000  0.178571  0.035714     48.000000
  0.321429  0.178571  0.035714     48.000000
  0.392857  0.178571  0.035714     48.000000
  0.464286  0.178571  0.035714     48.000000
  0.250000  0.250000  0.035714     24.000000
  0.321429  0.250000  0.035714     48.000000
  0.392857  0.250000  0.035714     48.000000
  0.464286  0.250000  0.035714     48.000000
  0.321429  0.321429  0.035714     24.000000
  0.392857  0.321429  0.035714     48.000000
  0.464286  0.321429  0.035714     48.000000
  0.392857  0.392857  0.035714     24.000000
  0.464286  0.392857  0.035714     48.000000
  0.464286  0.464286  0.035714     24.000000
  0.107143  0.107143  0.107143      8.000000
  0.178571  0.107143  0.107143     24.000000
  0.250000  0.107143  0.107143     24.000000
  0.321429  0.107143  0.107143     24.000000
  0.392857  0.107143  0.107143     24.000000
  0.464286  0.107143  0.107143     24.000000
  0.178571  0.178571  0.107143     24.000000
  0.250000  0.178571  0.107143     48.000000
  0.321429  0.178571  0.107143     48.000000
  0.392857  0.178571  0.107143     48.000000
  0.464286  0.178571  0.107143     48.000000
  0.250000  0.250000  0.107143     24.000000
  0.321429  0.250000  0.107143     48.000000
  0.392857  0.250000  0.107143     48.000000
  0.464286  0.250000  0.107143     48.000000
  0.321429  0.321429  0.107143     24.000000
  0.392857  0.321429  0.107143     48.000000
  0.464286  0.321429  0.107143     48.000000
  0.392857  0.392857  0.107143     24.000000
  0.464286  0.392857  0.107143     48.000000
  0.464286  0.464286  0.107143     24.000000
  0.178571  0.178571  0.178571      8.000000
  0.250000  0.178571  0.178571     24.000000
  0.321429  0.178571  0.178571     24.000000
  0.392857  0.178571  0.178571     24.000000
  0.464286  0.178571  0.178571     24.000000
  0.250000  0.250000  0.178571     24.000000
  0.321429  0.250000  0.178571     48.000000
  0.392857  0.250000  0.178571     48.000000
  0.464286  0.250000  0.178571     48.000000
  0.321429  0.321429  0.178571     24.000000
  0.392857  0.321429  0.178571     48.000000
  0.464286  0.321429  0.178571     48.000000
  0.392857  0.392857  0.178571     24.000000
  0.464286  0.392857  0.178571     48.000000
  0.464286  0.464286  0.178571     24.000000
  0.250000  0.250000  0.250000      8.000000
  0.321429  0.250000  0.250000     24.000000
  0.392857  0.250000  0.250000     24.000000
  0.464286  0.250000  0.250000     24.000000
  0.321429  0.321429  0.250000     24.000000
  0.392857  0.321429  0.250000     48.000000
  0.464286  0.321429  0.250000     48.000000
  0.392857  0.392857  0.250000     24.000000
  0.464286  0.392857  0.250000     48.000000
  0.464286  0.464286  0.250000     24.000000
  0.321429  0.321429  0.321429      8.000000
  0.392857  0.321429  0.321429     24.000000
  0.464286  0.321429  0.321429     24.000000
  0.392857  0.392857  0.321429     24.000000
  0.464286  0.392857  0.321429     48.000000
  0.464286  0.464286  0.321429     24.000000
  0.392857  0.392857  0.392857      8.000000
  0.464286  0.392857  0.392857     24.000000
  0.464286  0.464286  0.392857     24.000000
  0.464286  0.464286  0.464286      8.000000
 
 Following cartesian coordinates:
            Coordinates               Weight
  0.010027  0.010027  0.010027      8.000000
  0.030082  0.010027  0.010027     24.000000
  0.050137  0.010027  0.010027     24.000000
  0.070191  0.010027  0.010027     24.000000
  0.090246  0.010027  0.010027     24.000000
  0.110301  0.010027  0.010027     24.000000
  0.130355  0.010027  0.010027     24.000000
  0.030082  0.030082  0.010027     24.000000
  0.050137  0.030082  0.010027     48.000000
  0.070191  0.030082  0.010027     48.000000
  0.090246  0.030082  0.010027     48.000000
  0.110301  0.030082  0.010027     48.000000
  0.130355  0.030082  0.010027     48.000000
  0.050137  0.050137  0.010027     24.000000
  0.070191  0.050137  0.010027     48.000000
  0.090246  0.050137  0.010027     48.000000
  0.110301  0.050137  0.010027     48.000000
  0.130355  0.050137  0.010027     48.000000
  0.070191  0.070191  0.010027     24.000000
  0.090246  0.070191  0.010027     48.000000
  0.110301  0.070191  0.010027     48.000000
  0.130355  0.070191  0.010027     48.000000
  0.090246  0.090246  0.010027     24.000000
  0.110301  0.090246  0.010027     48.000000
  0.130355  0.090246  0.010027     48.000000
  0.110301  0.110301  0.010027     24.000000
  0.130355  0.110301  0.010027     48.000000
  0.130355  0.130355  0.010027     24.000000
  0.030082  0.030082  0.030082      8.000000
  0.050137  0.030082  0.030082     24.000000
  0.070191  0.030082  0.030082     24.000000
  0.090246  0.030082  0.030082     24.000000
  0.110301  0.030082  0.030082     24.000000
  0.130355  0.030082  0.030082     24.000000
  0.050137  0.050137  0.030082     24.000000
  0.070191  0.050137  0.030082     48.000000
  0.090246  0.050137  0.030082     48.000000
  0.110301  0.050137  0.030082     48.000000
  0.130355  0.050137  0.030082     48.000000
  0.070191  0.070191  0.030082     24.000000
  0.090246  0.070191  0.030082     48.000000
  0.110301  0.070191  0.030082     48.000000
  0.130355  0.070191  0.030082     48.000000
  0.090246  0.090246  0.030082     24.000000
  0.110301  0.090246  0.030082     48.000000
  0.130355  0.090246  0.030082     48.000000
  0.110301  0.110301  0.030082     24.000000
  0.130355  0.110301  0.030082     48.000000
  0.130355  0.130355  0.030082     24.000000
  0.050137  0.050137  0.050137      8.000000
  0.070191  0.050137  0.050137     24.000000
  0.090246  0.050137  0.050137     24.000000
  0.110301  0.050137  0.050137     24.000000
  0.130355  0.050137  0.050137     24.000000
  0.070191  0.070191  0.050137     24.000000
  0.090246  0.070191  0.050137     48.000000
  0.110301  0.070191  0.050137     48.000000
  0.130355  0.070191  0.050137     48.000000
  0.090246  0.090246  0.050137     24.000000
  0.110301  0.090246  0.050137     48.000000
  0.130355  0.090246  0.050137     48.000000
  0.110301  0.110301  0.050137     24.000000
  0.130355  0.110301  0.050137     48.000000
  0.130355  0.130355  0.050137     24.000000
  0.070191  0.070191  0.070191      8.000000
  0.090246  0.070191  0.070191     24.000000
  0.110301  0.070191  0.070191     24.000000
  0.130355  0.070191  0.070191     24.000000
  0.090246  0.090246  0.070191     24.000000
  0.110301  0.090246  0.070191     48.000000
  0.130355  0.090246  0.070191     48.000000
  0.110301  0.110301  0.070191     24.000000
  0.130355  0.110301  0.070191     48.000000
  0.130355  0.130355  0.070191     24.000000
  0.090246  0.090246  0.090246      8.000000
  0.110301  0.090246  0.090246     24.000000
  0.130355  0.090246  0.090246     24.000000
  0.110301  0.110301  0.090246     24.000000
  0.130355  0.110301  0.090246     48.000000
  0.130355  0.130355  0.090246     24.000000
  0.110301  0.110301  0.110301      8.000000
  0.130355  0.110301  0.110301     24.000000
  0.130355  0.130355  0.110301     24.000000
  0.130355  0.130355  0.130355      8.000000
 


--------------------------------------------------------------------------------------------------------




 Dimension of arrays:
   k-points           NKPTS =     84   k-points in BZ     NKDIM =     84   number of bands    NBANDS=     24
   number of dos      NEDOS =    301   number of ions     NIONS =      8
   non local maximal  LDIM  =      4   non local SUM 2l+1 LMDIM =      8
   total plane-waves  NPLWV =  46656
   max r-space proj   IRMAX =      1   max aug-charges    IRDMAX=  16435
   dimension x,y,z NGX =    36 NGY =   36 NGZ =   36
   dimension x,y,z NGXF=    48 NGYF=   48 NGZF=   48
   support grid    NGXF=    96 NGYF=   96 NGZF=   96
   ions per type =               8
   NGX,Y,Z   is equivalent  to a cutoff of  16.80, 16.80, 16.80 a.u.
   NGXF,Y,Z  is equivalent  to a cutoff of  22.40, 22.40, 22.40 a.u.

 SYSTEM =  unknown system                          
 POSCAR =  C8                                      

 Startparameter for this run:
   NWRITE =      2    write-flag & timer
   PREC   = high      normal or accurate (medium, high low for compatibility)
   ISTART =      0    job   : 0-new  1-cont  2-samecut
   ICHARG =      2    charge: 1-file 2-atom 10-const
   ISPIN  =      1    spin polarized calculation?
   LNONCOLLINEAR =      F non collinear calculations
   LSORBIT =      F    spin-orbit coupling
   INIWAV =      1    electr: 0-lowe 1-rand  2-diag
   LASPH  =      F    aspherical Exc in radial PAW
   METAGGA=      F    non-selfconsistent MetaGGA calc.

 Electronic Relaxation 1
   ENCUT  =  875.0 eV  64.31 Ry    8.02 a.u.   8.59  8.59  8.59*2*pi/ulx,y,z
   ENINI  =  875.0     initial cutoff
   ENAUG  =  946.8 eV  augmentation charge cutoff
   NELM   =     40;   NELMIN=  4; NELMDL= -5     # of ELM steps 
   EDIFF  = 0.1E-07   stopping-criterion for ELM
   LREAL  =      F    real-space projection
   NLSPLINE    = F    spline interpolate recip. space projectors
   LCOMPAT=      F    compatible to vasp.4.4
   GGA_COMPAT  = T    GGA compatible to vasp.4.4-vasp.4.6
   LMAXPAW     = -100 max onsite density
   LMAXMIX     =    2 max onsite mixed and CHGCAR
   VOSKOWN=      0    Vosko Wilk Nusair interpolation
   ROPT   =    0.00000
 Ionic relaxation
   EDIFFG = -.1E-01   stopping-criterion for IOM
   NSW    =    100    number of steps for IOM
   NBLOCK =      1;   KBLOCK =    100    inner block; outer block 
   IBRION =      2    ionic relax: 0-MD 1-quasi-New 2-CG
   NFREE  =      1    steps in history (QN), initial steepest desc. (CG)
   ISIF   =      2    stress and relaxation
   IWAVPR =     11    prediction:  0-non 1-charg 2-wave 3-comb
   ISYM   =      2    0-nonsym 1-usesym 2-fastsym
   LCORR  =      T    Harris-Foulkes like correction to forces

   POTIM  = 0.5000    time-step for ionic-motion
   TEIN   =    0.0    initial temperature
   TEBEG  =    0.0;   TEEND  =   0.0 temperature during run
   SMASS  =  -3.00    Nose mass-parameter (am)
   estimated Nose-frequenzy (Omega)   =  0.10E-29 period in steps =****** mass=  -0.290E-27a.u.
   SCALEE = 1.0000    scale energy and forces
   NPACO  =    256;   APACO  = 16.0  distance and # of slots for P.C.
   PSTRESS=    0.0 pullay stress

  Mass of Ions in am
   POMASS =  12.01
  Ionic Valenz
   ZVAL   =   4.00
  Atomic Wigner-Seitz radii
   RWIGS  =  -1.00
  virtual crystal weights 
   VCA    =   1.00
   NELECT =      32.0000    total number of electrons
   NUPDOWN=      -1.0000    fix difference up-down

 DOS related values:
   EMIN   =  10.00;   EMAX   =-10.00  energy-range for DOS
   EFERMI =   0.00
   ISMEAR =     0;   SIGMA  =   0.05  broadening in eV -4-tet -1-fermi 0-gaus

 Electronic relaxation 2 (details)
   IALGO  =     38    algorithm
   LDIAG  =      T    sub-space diagonalisation (order eigenvalues)
   LSUBROT=      F    optimize rotation matrix (better conditioning)
   TURBO    =      0    0=normal 1=particle mesh
   IRESTART =      0    0=no restart 2=restart with 2 vectors
   NREBOOT  =      0    no. of reboots
   NMIN     =      0    reboot dimension
   EREF     =   0.00    reference energy to select bands
   IMIX   =      4    mixing-type and parameters
     AMIX     =   0.40;   BMIX     =  1.00
     AMIX_MAG =   1.60;   BMIX_MAG =  1.00
     AMIN     =   0.10
     WC   =   100.;   INIMIX=   1;  MIXPRE=   1;  MAXMIX= -45

 Intra band minimization:
   WEIMIN = 0.0010     energy-eigenvalue tresh-hold
   EBREAK =  0.10E-09  absolut break condition
   DEPER  =   0.30     relativ break condition  

   TIME   =   0.40     timestep for ELM

  volume/ion in A,a.u.               =       5.65        38.11
  Fermi-wavevector in a.u.,A,eV,Ry     =   1.459268  2.757616 28.973097  2.129463
  Thomas-Fermi vector in A             =   2.575855
 
 Write flags
   LWAVE        =      F    write WAVECAR
   LDOWNSAMPLE  =      F    k-point downsampling of WAVECAR
   LCHARG       =      F    write CHGCAR
   LVTOT        =      F    write LOCPOT, total local potential
   LVHAR        =      F    write LOCPOT, Hartree potential only
   LELF         =      F    write electronic localiz. function (ELF)
   LORBIT       =      0    0 simple, 1 ext, 2 COOP (PROOUT), +10 PAW based schemes


 Dipole corrections
   LMONO  =      F    monopole corrections only (constant potential shift)
   LDIPOL =      F    correct potential (dipole corrections)
   IDIPOL =      0    1-x, 2-y, 3-z, 4-all directions 
   EPSILON=  1.0000000 bulk dielectric constant

 Exchange correlation treatment:
   GGA     =    --    GGA type
   LEXCH   =     8    internal setting for exchange type
   VOSKOWN=      0    Vosko Wilk Nusair interpolation
   LHFCALC =     F    Hartree Fock is set to
   LHFONE  =     F    Hartree Fock one center treatment
   AEXX    =    0.0000 exact exchange contribution

 Linear response parameters
   LEPSILON=     F    determine dielectric tensor
   LRPA    =     F    only Hartree local field effects (RPA)
   LNABLA  =     F    use nabla operator in PAW spheres
   LVEL    =     F    velocity operator in full k-point grid
   LINTERFAST=   F  fast interpolation
   KINTER  =     0    interpolate to denser k-point grid
   CSHIFT  =0.1000    complex shift for real part using Kramers Kronig
   OMEGAMAX=  -1.0    maximum frequency
   DEG_THRESHOLD= 0.2000000E-02 threshold for treating states as degnerate
   RTIME   =   -0.100 relaxation time in fs
  (WPLASMAI=    0.000 imaginary part of plasma frequency in eV, 0.658/RTIME)
   DFIELD  = 0.0000000 0.0000000 0.0000000 field for delta impulse in time
 
 Orbital magnetization related:
   ORBITALMAG=     F  switch on orbital magnetization
   LCHIMAG   =     F  perturbation theory with respect to B field
   DQ        =  0.001000  dq finite difference perturbation B field
   LLRAUG    =     F  two centre corrections for induced B field



--------------------------------------------------------------------------------------------------------


 conjugate gradient relaxation of ions
 charge density and potential will be updated during run
 non-spin polarized calculation
 Variant of blocked Davidson
 Davidson routine will perform the subspace rotation
 perform sub-space diagonalisation
    after iterative eigenvector-optimisation
 modified Broyden-mixing scheme, WC =      100.0
 initial mixing is a Kerker type mixing with AMIX =  0.4000 and BMIX =      1.0000
 Hartree-type preconditioning will be used
 using additional bands            8
 reciprocal scheme for non local part
 use partial core corrections
 calculate Harris-corrections to forces 
   (improved forces if not selfconsistent)
 use gradient corrections 
 use of overlap-Matrix (Vanderbilt PP)
 Gauss-broadening in eV      SIGMA  =   0.05


--------------------------------------------------------------------------------------------------------


  energy-cutoff  :      875.00
  volume of cell :       45.18
      direct lattice vectors                 reciprocal lattice vectors
     3.561693054  0.000000000  0.000000000     0.280765351  0.000000000  0.000000000
     0.000000000  3.561693054  0.000000000     0.000000000  0.280765351  0.000000000
     0.000000000  0.000000000  3.561693054     0.000000000  0.000000000  0.280765351

  length of vectors
     3.561693054  3.561693054  3.561693054     0.280765351  0.280765351  0.280765351


 
 k-points in units of 2pi/SCALE and weight: K-Mesh Generated with KP-Resolved Value 
   0.01002733  0.01002733  0.01002733       0.003
   0.03008200  0.01002733  0.01002733       0.009
   0.05013667  0.01002733  0.01002733       0.009
   0.07019134  0.01002733  0.01002733       0.009
   0.09024601  0.01002733  0.01002733       0.009
   0.11030067  0.01002733  0.01002733       0.009
   0.13035534  0.01002733  0.01002733       0.009
   0.03008200  0.03008200  0.01002733       0.009
   0.05013667  0.03008200  0.01002733       0.017
   0.07019134  0.03008200  0.01002733       0.017
   0.09024601  0.03008200  0.01002733       0.017
   0.11030067  0.03008200  0.01002733       0.017
   0.13035534  0.03008200  0.01002733       0.017
   0.05013667  0.05013667  0.01002733       0.009
   0.07019134  0.05013667  0.01002733       0.017
   0.09024601  0.05013667  0.01002733       0.017
   0.11030067  0.05013667  0.01002733       0.017
   0.13035534  0.05013667  0.01002733       0.017
   0.07019134  0.07019134  0.01002733       0.009
   0.09024601  0.07019134  0.01002733       0.017
   0.11030067  0.07019134  0.01002733       0.017
   0.13035534  0.07019134  0.01002733       0.017
   0.09024601  0.09024601  0.01002733       0.009
   0.11030067  0.09024601  0.01002733       0.017
   0.13035534  0.09024601  0.01002733       0.017
   0.11030067  0.11030067  0.01002733       0.009
   0.13035534  0.11030067  0.01002733       0.017
   0.13035534  0.13035534  0.01002733       0.009
   0.03008200  0.03008200  0.03008200       0.003
   0.05013667  0.03008200  0.03008200       0.009
   0.07019134  0.03008200  0.03008200       0.009
   0.09024601  0.03008200  0.03008200       0.009
   0.11030067  0.03008200  0.03008200       0.009
   0.13035534  0.03008200  0.03008200       0.009
   0.05013667  0.05013667  0.03008200       0.009
   0.07019134  0.05013667  0.03008200       0.017
   0.09024601  0.05013667  0.03008200       0.017
   0.11030067  0.05013667  0.03008200       0.017
   0.13035534  0.05013667  0.03008200       0.017
   0.07019134  0.07019134  0.03008200       0.009
   0.09024601  0.07019134  0.03008200       0.017
   0.11030067  0.07019134  0.03008200       0.017
   0.13035534  0.07019134  0.03008200       0.017
   0.09024601  0.09024601  0.03008200       0.009
   0.11030067  0.09024601  0.03008200       0.017
   0.13035534  0.09024601  0.03008200       0.017
   0.11030067  0.11030067  0.03008200       0.009
   0.13035534  0.11030067  0.03008200       0.017
   0.13035534  0.13035534  0.03008200       0.009
   0.05013667  0.05013667  0.05013667       0.003
   0.07019134  0.05013667  0.05013667       0.009
   0.09024601  0.05013667  0.05013667       0.009
   0.11030067  0.05013667  0.05013667       0.009
   0.13035534  0.05013667  0.05013667       0.009
   0.07019134  0.07019134  0.05013667       0.009
   0.09024601  0.07019134  0.05013667       0.017
   0.11030067  0.07019134  0.05013667       0.017
   0.13035534  0.07019134  0.05013667       0.017
   0.09024601  0.09024601  0.05013667       0.009
   0.11030067  0.09024601  0.05013667       0.017
   0.13035534  0.09024601  0.05013667       0.017
   0.11030067  0.11030067  0.05013667       0.009
   0.13035534  0.11030067  0.05013667       0.017
   0.13035534  0.13035534  0.05013667       0.009
   0.07019134  0.07019134  0.07019134       0.003
   0.09024601  0.07019134  0.07019134       0.009
   0.11030067  0.07019134  0.07019134       0.009
   0.13035534  0.07019134  0.07019134       0.009
   0.09024601  0.09024601  0.07019134       0.009
   0.11030067  0.09024601  0.07019134       0.017
   0.13035534  0.09024601  0.07019134       0.017
   0.11030067  0.11030067  0.07019134       0.009
   0.13035534  0.11030067  0.07019134       0.017
   0.13035534  0.13035534  0.07019134       0.009
   0.09024601  0.09024601  0.09024601       0.003
   0.11030067  0.09024601  0.09024601       0.009
   0.13035534  0.09024601  0.09024601       0.009
   0.11030067  0.11030067  0.09024601       0.009
   0.13035534  0.11030067  0.09024601       0.017
   0.13035534  0.13035534  0.09024601       0.009
   0.11030067  0.11030067  0.11030067       0.003
   0.13035534  0.11030067  0.11030067       0.009
   0.13035534  0.13035534  0.11030067       0.009
   0.13035534  0.13035534  0.13035534       0.003
 
 k-points in reciprocal lattice and weights: K-Mesh Generated with KP-Resolved Value 
   0.03571429  0.03571429  0.03571429       0.003
   0.10714286  0.03571429  0.03571429       0.009
   0.17857143  0.03571429  0.03571429       0.009
   0.25000000  0.03571429  0.03571429       0.009
   0.32142857  0.03571429  0.03571429       0.009
   0.39285714  0.03571429  0.03571429       0.009
   0.46428571  0.03571429  0.03571429       0.009
   0.10714286  0.10714286  0.03571429       0.009
   0.17857143  0.10714286  0.03571429       0.017
   0.25000000  0.10714286  0.03571429       0.017
   0.32142857  0.10714286  0.03571429       0.017
   0.39285714  0.10714286  0.03571429       0.017
   0.46428571  0.10714286  0.03571429       0.017
   0.17857143  0.17857143  0.03571429       0.009
   0.25000000  0.17857143  0.03571429       0.017
   0.32142857  0.17857143  0.03571429       0.017
   0.39285714  0.17857143  0.03571429       0.017
   0.46428571  0.17857143  0.03571429       0.017
   0.25000000  0.25000000  0.03571429       0.009
   0.32142857  0.25000000  0.03571429       0.017
   0.39285714  0.25000000  0.03571429       0.017
   0.46428571  0.25000000  0.03571429       0.017
   0.32142857  0.32142857  0.03571429       0.009
   0.39285714  0.32142857  0.03571429       0.017
   0.46428571  0.32142857  0.03571429       0.017
   0.39285714  0.39285714  0.03571429       0.009
   0.46428571  0.39285714  0.03571429       0.017
   0.46428571  0.46428571  0.03571429       0.009
   0.10714286  0.10714286  0.10714286       0.003
   0.17857143  0.10714286  0.10714286       0.009
   0.25000000  0.10714286  0.10714286       0.009
   0.32142857  0.10714286  0.10714286       0.009
   0.39285714  0.10714286  0.10714286       0.009
   0.46428571  0.10714286  0.10714286       0.009
   0.17857143  0.17857143  0.10714286       0.009
   0.25000000  0.17857143  0.10714286       0.017
   0.32142857  0.17857143  0.10714286       0.017
   0.39285714  0.17857143  0.10714286       0.017
   0.46428571  0.17857143  0.10714286       0.017
   0.25000000  0.25000000  0.10714286       0.009
   0.32142857  0.25000000  0.10714286       0.017
   0.39285714  0.25000000  0.10714286       0.017
   0.46428571  0.25000000  0.10714286       0.017
   0.32142857  0.32142857  0.10714286       0.009
   0.39285714  0.32142857  0.10714286       0.017
   0.46428571  0.32142857  0.10714286       0.017
   0.39285714  0.39285714  0.10714286       0.009
   0.46428571  0.39285714  0.10714286       0.017
   0.46428571  0.46428571  0.10714286       0.009
   0.17857143  0.17857143  0.17857143       0.003
   0.25000000  0.17857143  0.17857143       0.009
   0.32142857  0.17857143  0.17857143       0.009
   0.39285714  0.17857143  0.17857143       0.009
   0.46428571  0.17857143  0.17857143       0.009
   0.25000000  0.25000000  0.17857143       0.009
   0.32142857  0.25000000  0.17857143       0.017
   0.39285714  0.25000000  0.17857143       0.017
   0.46428571  0.25000000  0.17857143       0.017
   0.32142857  0.32142857  0.17857143       0.009
   0.39285714  0.32142857  0.17857143       0.017
   0.46428571  0.32142857  0.17857143       0.017
   0.39285714  0.39285714  0.17857143       0.009
   0.46428571  0.39285714  0.17857143       0.017
   0.46428571  0.46428571  0.17857143       0.009
   0.25000000  0.25000000  0.25000000       0.003
   0.32142857  0.25000000  0.25000000       0.009
   0.39285714  0.25000000  0.25000000       0.009
   0.46428571  0.25000000  0.25000000       0.009
   0.32142857  0.32142857  0.25000000       0.009
   0.39285714  0.32142857  0.25000000       0.017
   0.46428571  0.32142857  0.25000000       0.017
   0.39285714  0.39285714  0.25000000       0.009
   0.46428571  0.39285714  0.25000000       0.017
   0.46428571  0.46428571  0.25000000       0.009
   0.32142857  0.32142857  0.32142857       0.003
   0.39285714  0.32142857  0.32142857       0.009
   0.46428571  0.32142857  0.32142857       0.009
   0.39285714  0.39285714  0.32142857       0.009
   0.46428571  0.39285714  0.32142857       0.017
   0.46428571  0.46428571  0.32142857       0.009
   0.39285714  0.39285714  0.39285714       0.003
   0.46428571  0.39285714  0.39285714       0.009
   0.46428571  0.46428571  0.39285714       0.009
   0.46428571  0.46428571  0.46428571       0.003
 
 position of ions in fractional coordinates (direct lattice) 
   0.25000000  0.25000000  0.25000000
   0.00000000  0.00000000  0.00000000
   0.25000000  0.75000000  0.75000000
   0.00000000  0.50000000  0.50000000
   0.75000000  0.25000000  0.75000000
   0.50000000  0.00000000  0.50000000
   0.75000000  0.75000000  0.25000000
   0.50000000  0.50000000  0.00000000
 
 position of ions in cartesian coordinates  (Angst):
   0.89042326  0.89042326  0.89042326
   0.00000000  0.00000000  0.00000000
   0.89042326  2.67126979  2.67126979
   0.00000000  1.78084653  1.78084653
   2.67126979  0.89042326  2.67126979
   1.78084653  0.00000000  1.78084653
   2.67126979  2.67126979  0.89042326
   1.78084653  1.78084653  0.00000000
 


--------------------------------------------------------------------------------------------------------


 k-point  1 :   0.0357 0.0357 0.0357  plane waves:    2646
 k-point  2 :   0.1071 0.0357 0.0357  plane waves:    2640
 k-point  3 :   0.1786 0.0357 0.0357  plane waves:    2655
 k-point  4 :   0.2500 0.0357 0.0357  plane waves:    2670
 k-point  5 :   0.3214 0.0357 0.0357  plane waves:    2660
 k-point  6 :   0.3929 0.0357 0.0357  plane waves:    2657
 k-point  7 :   0.4643 0.0357 0.0357  plane waves:    2672
 k-point  8 :   0.1071 0.1071 0.0357  plane waves:    2654
 k-point  9 :   0.1786 0.1071 0.0357  plane waves:    2660
 k-point 10 :   0.2500 0.1071 0.0357  plane waves:    2671
 k-point 11 :   0.3214 0.1071 0.0357  plane waves:    2669
 k-point 12 :   0.3929 0.1071 0.0357  plane waves:    2663
 k-point 13 :   0.4643 0.1071 0.0357  plane waves:    2665
 k-point 14 :   0.1786 0.1786 0.0357  plane waves:    2667
 k-point 15 :   0.2500 0.1786 0.0357  plane waves:    2665
 k-point 16 :   0.3214 0.1786 0.0357  plane waves:    2660
 k-point 17 :   0.3929 0.1786 0.0357  plane waves:    2664
 k-point 18 :   0.4643 0.1786 0.0357  plane waves:    2660
 k-point 19 :   0.2500 0.2500 0.0357  plane waves:    2659
 k-point 20 :   0.3214 0.2500 0.0357  plane waves:    2657
 k-point 21 :   0.3929 0.2500 0.0357  plane waves:    2653
 k-point 22 :   0.4643 0.2500 0.0357  plane waves:    2655
 k-point 23 :   0.3214 0.3214 0.0357  plane waves:    2658
 k-point 24 :   0.3929 0.3214 0.0357  plane waves:    2654
 k-point 25 :   0.4643 0.3214 0.0357  plane waves:    2647
 k-point 26 :   0.3929 0.3929 0.0357  plane waves:    2650
 k-point 27 :   0.4643 0.3929 0.0357  plane waves:    2650
 k-point 28 :   0.4643 0.4643 0.0357  plane waves:    2667
 k-point 29 :   0.1071 0.1071 0.1071  plane waves:    2647
 k-point 30 :   0.1786 0.1071 0.1071  plane waves:    2660
 k-point 31 :   0.2500 0.1071 0.1071  plane waves:    2660
 k-point 32 :   0.3214 0.1071 0.1071  plane waves:    2666
 k-point 33 :   0.3929 0.1071 0.1071  plane waves:    2659
 k-point 34 :   0.4643 0.1071 0.1071  plane waves:    2663
 k-point 35 :   0.1786 0.1786 0.1071  plane waves:    2667
 k-point 36 :   0.2500 0.1786 0.1071  plane waves:    2664
 k-point 37 :   0.3214 0.1786 0.1071  plane waves:    2663
 k-point 38 :   0.3929 0.1786 0.1071  plane waves:    2662
 k-point 39 :   0.4643 0.1786 0.1071  plane waves:    2663
 k-point 40 :   0.2500 0.2500 0.1071  plane waves:    2659
 k-point 41 :   0.3214 0.2500 0.1071  plane waves:    2658
 k-point 42 :   0.3929 0.2500 0.1071  plane waves:    2651
 k-point 43 :   0.4643 0.2500 0.1071  plane waves:    2657
 k-point 44 :   0.3214 0.3214 0.1071  plane waves:    2661
 k-point 45 :   0.3929 0.3214 0.1071  plane waves:    2651
 k-point 46 :   0.4643 0.3214 0.1071  plane waves:    2651
 k-point 47 :   0.3929 0.3929 0.1071  plane waves:    2650
 k-point 48 :   0.4643 0.3929 0.1071  plane waves:    2644
 k-point 49 :   0.4643 0.4643 0.1071  plane waves:    2646
 k-point 50 :   0.1786 0.1786 0.1786  plane waves:    2659
 k-point 51 :   0.2500 0.1786 0.1786  plane waves:    2662
 k-point 52 :   0.3214 0.1786 0.1786  plane waves:    2655
 k-point 53 :   0.3929 0.1786 0.1786  plane waves:    2661
 k-point 54 :   0.4643 0.1786 0.1786  plane waves:    2660
 k-point 55 :   0.2500 0.2500 0.1786  plane waves:    2652
 k-point 56 :   0.3214 0.2500 0.1786  plane waves:    2656
 k-point 57 :   0.3929 0.2500 0.1786  plane waves:    2655
 k-point 58 :   0.4643 0.2500 0.1786  plane waves:    2651
 k-point 59 :   0.3214 0.3214 0.1786  plane waves:    2655
 k-point 60 :   0.3929 0.3214 0.1786  plane waves:    2654
 k-point 61 :   0.4643 0.3214 0.1786  plane waves:    2648
 k-point 62 :   0.3929 0.3929 0.1786  plane waves:    2647
 k-point 63 :   0.4643 0.3929 0.1786  plane waves:    2647
 k-point 64 :   0.4643 0.4643 0.1786  plane waves:    2654
 k-point 65 :   0.2500 0.2500 0.2500  plane waves:    2671
 k-point 66 :   0.3214 0.2500 0.2500  plane waves:    2653
 k-point 67 :   0.3929 0.2500 0.2500  plane waves:    2659
 k-point 68 :   0.4643 0.2500 0.2500  plane waves:    2653
 k-point 69 :   0.3214 0.3214 0.2500  plane waves:    2656
 k-point 70 :   0.3929 0.3214 0.2500  plane waves:    2649
 k-point 71 :   0.4643 0.3214 0.2500  plane waves:    2647
 k-point 72 :   0.3929 0.3929 0.2500  plane waves:    2642
 k-point 73 :   0.4643 0.3929 0.2500  plane waves:    2645
 k-point 74 :   0.4643 0.4643 0.2500  plane waves:    2650
 k-point 75 :   0.3214 0.3214 0.3214  plane waves:    2650
 k-point 76 :   0.3929 0.3214 0.3214  plane waves:    2659
 k-point 77 :   0.4643 0.3214 0.3214  plane waves:    2641
 k-point 78 :   0.3929 0.3929 0.3214  plane waves:    2644
 k-point 79 :   0.4643 0.3929 0.3214  plane waves:    2648
 k-point 80 :   0.4643 0.4643 0.3214  plane waves:    2644
 k-point 81 :   0.3929 0.3929 0.3929  plane waves:    2647
 k-point 82 :   0.4643 0.3929 0.3929  plane waves:    2640
 k-point 83 :   0.4643 0.4643 0.3929  plane waves:    2633
 k-point 84 :   0.4643 0.4643 0.4643  plane waves:    2626

 maximum and minimum number of plane-waves per node :      2672     2626

 maximum number of plane-waves:      2672
 maximum index in each direction: 
   IXMAX=    8   IYMAX=    8   IZMAX=    8
   IXMIN=   -9   IYMIN=   -9   IZMIN=   -9


 serial   3D FFT for wavefunctions
 parallel 3D FFT for charge:
    minimum data exchange during FFTs selected (reduces bandwidth)


 total amount of memory used by VASP MPI-rank0    51546. kBytes
=======================================================================

   base      :      30000. kBytes
   nonl-proj :      14794. kBytes
   fftplans  :        905. kBytes
   grid      :       2114. kBytes
   one-center:         24. kBytes
   wavefun   :       3709. kBytes
 
     INWAV:  cpu time    0.0000: real time    0.0000
 Broyden mixing: mesh for mixing (old mesh)
   NGX = 17   NGY = 17   NGZ = 17
  (NGX  = 48   NGY  = 48   NGZ  = 48)
  gives a total of   4913 points

 initial charge density was supplied:
 charge density of overlapping atoms calculated
 number of electron      32.0000000 magnetization 
 keeping initial charge density in first step


--------------------------------------------------------------------------------------------------------


 Maximum index for augmentation-charges          757 (set IRDMAX)


--------------------------------------------------------------------------------------------------------


 First call to EWALD:  gamma=   0.498
 Maximum number of real-space cells 3x 3x 3
 Maximum number of reciprocal cells 3x 3x 3

    FEWALD:  cpu time    0.0020: real time    0.0071


--------------------------------------- Iteration      1(   1)  ---------------------------------------


    POTLOK:  cpu time    0.0170: real time    0.0396
    SETDIJ:  cpu time    0.0140: real time    0.0227
     EDDAV:  cpu time    1.3488: real time    1.4869
       DOS:  cpu time    0.0030: real time    0.0141
    --------------------------------------------
      LOOP:  cpu time    1.3828: real time    1.5634

 eigenvalue-minimisations  :  4032
 total energy-change (2. order) : 0.1026176E+03  (-0.2606854E+04)
 number of electron      32.0000000 magnetization 
 augmentation part       32.0000000 magnetization 

 Free energy of the ion-electron system (eV)
  ---------------------------------------------------
  alpha Z        PSCENC =        77.65249803
  Ewald energy   TEWEN  =     -1393.83149091
  -Hartree energ DENC   =       -69.60382104
  -exchange      EXHF   =         0.00000000
  -V(xc)+E(xc)   XCENC  =        62.29508544
  PAW double counting   =       914.77613359     -872.73161751
  entropy T*S    EENTRO =        -0.00039390
  eigenvalues    EBANDS =       206.84842695
  atomic energy  EATOM  =      1177.21277265
  Solvation  Ediel_sol  =         0.00000000
  ---------------------------------------------------
  free energy    TOTEN  =       102.61759331 eV

  energy without entropy =      102.61798721  energy(sigma->0) =      102.61779026


--------------------------------------------------------------------------------------------------------




--------------------------------------- Iteration      1(   2)  ---------------------------------------


     EDDAV:  cpu time    2.2677: real time    2.2980
       DOS:  cpu time    0.0000: real time    0.0006
    --------------------------------------------
      LOOP:  cpu time    2.2677: real time    2.2986

 eigenvalue-minimisations  :  6456
 total energy-change (2. order) :-0.1751454E+03  (-0.1724065E+03)
 number of electron      32.0000000 magnetization 
 augmentation part       32.0000000 magnetization 

 Free energy of the ion-electron system (eV)
  ---------------------------------------------------
  alpha Z        PSCENC =        77.65249803
  Ewald energy   TEWEN  =     -1393.83149091
  -Hartree energ DENC   =       -69.60382104
  -exchange      EXHF   =         0.00000000
  -V(xc)+E(xc)   XCENC  =        62.29508544
  PAW double counting   =       914.77613359     -872.73161751
  entropy T*S    EENTRO =        -0.00000000
  eigenvalues    EBANDS =        31.70261463
  atomic energy  EATOM  =      1177.21277265
  Solvation  Ediel_sol  =         0.00000000
  ---------------------------------------------------
  free energy    TOTEN  =       -72.52782510 eV

  energy without entropy =      -72.52782510  energy(sigma->0) =      -72.52782510


--------------------------------------------------------------------------------------------------------




--------------------------------------- Iteration      1(   3)  ---------------------------------------


     EDDAV:  cpu time    1.5718: real time    1.5877
       DOS:  cpu time    0.0010: real time    0.0006
    --------------------------------------------
      LOOP:  cpu time    1.5728: real time    1.5883

 eigenvalue-minimisations  :  4608
 total energy-change (2. order) :-0.2807976E+01  (-0.2807976E+01)
 number of electron      32.0000000 magnetization 
 augmentation part       32.0000000 magnetization 

 Free energy of the ion-electron system (eV)
  ---------------------------------------------------
  alpha Z        PSCENC =        77.65249803
  Ewald energy   TEWEN  =     -1393.83149091
  -Hartree energ DENC   =       -69.60382104
  -exchange      EXHF   =         0.00000000
  -V(xc)+E(xc)   XCENC  =        62.29508544
  PAW double counting   =       914.77613359     -872.73161751
  entropy T*S    EENTRO =        -0.00000000
  eigenvalues    EBANDS =        28.89463832
  atomic energy  EATOM  =      1177.21277265
  Solvation  Ediel_sol  =         0.00000000
  ---------------------------------------------------
  free energy    TOTEN  =       -75.33580142 eV

  energy without entropy =      -75.33580142  energy(sigma->0) =      -75.33580142


--------------------------------------------------------------------------------------------------------




--------------------------------------- Iteration      1(   4)  ---------------------------------------


     EDDAV:  cpu time    2.8636: real time    2.8804
       DOS:  cpu time    0.0010: real time    0.0006
    --------------------------------------------
      LOOP:  cpu time    2.8646: real time    2.8810

 eigenvalue-minimisations  :  7584
 total energy-change (2. order) :-0.1916535E-01  (-0.1916535E-01)
 number of electron      32.0000000 magnetization 
 augmentation part       32.0000000 magnetization 

 Free energy of the ion-electron system (eV)
  ---------------------------------------------------
  alpha Z        PSCENC =        77.65249803
  Ewald energy   TEWEN  =     -1393.83149091
  -Hartree energ DENC   =       -69.60382104
  -exchange      EXHF   =         0.00000000
  -V(xc)+E(xc)   XCENC  =        62.29508544
  PAW double counting   =       914.77613359     -872.73161751
  entropy T*S    EENTRO =        -0.00000000
  eigenvalues    EBANDS =        28.87547297
  atomic energy  EATOM  =      1177.21277265
  Solvation  Ediel_sol  =         0.00000000
  ---------------------------------------------------
  free energy    TOTEN  =       -75.35496677 eV

  energy without entropy =      -75.35496677  energy(sigma->0) =      -75.35496677


--------------------------------------------------------------------------------------------------------




--------------------------------------- Iteration      1(   5)  ---------------------------------------


     EDDAV:  cpu time    1.5358: real time    1.5507
       DOS:  cpu time    0.0010: real time    0.0007
    CHARGE:  cpu time    0.0790: real time    0.1107
    MIXING:  cpu time    0.0050: real time    0.0155
    --------------------------------------------
      LOOP:  cpu time    1.6208: real time    1.6776

 eigenvalue-minimisations  :  4512
 total energy-change (2. order) :-0.2660875E-05  (-0.2660807E-05)
 number of electron      32.0000000 magnetization 
 augmentation part       -0.0679900 magnetization 

 Broyden mixing:
  rms(total) = 0.16733E+01    rms(broyden)= 0.16732E+01
  rms(prec ) = 0.26555E+01
  weight for this iteration     100.00

 Free energy of the ion-electron system (eV)
  ---------------------------------------------------
  alpha Z        PSCENC =        77.65249803
  Ewald energy   TEWEN  =     -1393.83149091
  -Hartree energ DENC   =       -69.60382104
  -exchange      EXHF   =         0.00000000
  -V(xc)+E(xc)   XCENC  =        62.29508544
  PAW double counting   =       914.77613359     -872.73161751
  entropy T*S    EENTRO =        -0.00000000
  eigenvalues    EBANDS =        28.87547031
  atomic energy  EATOM  =      1177.21277265
  Solvation  Ediel_sol  =         0.00000000
  ---------------------------------------------------
  free energy    TOTEN  =       -75.35496943 eV

  energy without entropy =      -75.35496943  energy(sigma->0) =      -75.35496943


--------------------------------------------------------------------------------------------------------




--------------------------------------- Iteration      1(   6)  ---------------------------------------


    POTLOK:  cpu time    0.0050: real time    0.0125
    SETDIJ:  cpu time    0.0030: real time    0.0035
     EDDAV:  cpu time    1.5948: real time    1.5991
       DOS:  cpu time    0.0010: real time    0.0007
    CHARGE:  cpu time    0.0740: real time    0.0737
    MIXING:  cpu time    0.0020: real time    0.0170
    --------------------------------------------
      LOOP:  cpu time    1.6797: real time    1.7065

 eigenvalue-minimisations  :  4728
 total energy-change (2. order) : 0.1882517E+01  (-0.1416090E+00)
 number of electron      32.0000000 magnetization 
 augmentation part       -0.0708009 magnetization 

 Broyden mixing:
  rms(total) = 0.11003E+01    rms(broyden)= 0.11003E+01
  rms(prec ) = 0.15652E+01
  weight for this iteration     100.00

 eigenvalues of (default mixing * dielectric matrix)
  average eigenvalue GAMMA=   2.7458
  2.7458

 Free energy of the ion-electron system (eV)
  ---------------------------------------------------
  alpha Z        PSCENC =        77.65249803
  Ewald energy   TEWEN  =     -1393.83149091
  -Hartree energ DENC   =       -84.89008182
  -exchange      EXHF   =         0.00000000
  -V(xc)+E(xc)   XCENC  =        63.55994359
  PAW double counting   =      3750.81286073    -3709.13744380
  entropy T*S    EENTRO =        -0.00000000
  eigenvalues    EBANDS =        45.14848875
  atomic energy  EATOM  =      1177.21277265
  Solvation  Ediel_sol  =         0.00000000
  ---------------------------------------------------
  free energy    TOTEN  =       -73.47245277 eV

  energy without entropy =      -73.47245277  energy(sigma->0) =      -73.47245277


--------------------------------------------------------------------------------------------------------




--------------------------------------- Iteration      1(   7)  ---------------------------------------


    POTLOK:  cpu time    0.0060: real time    0.0124
    SETDIJ:  cpu time    0.0040: real time    0.0035
     EDDAV:  cpu time    1.9507: real time    1.9558
       DOS:  cpu time    0.0010: real time    0.0007
    CHARGE:  cpu time    0.0740: real time    0.0736
    MIXING:  cpu time    0.0020: real time    0.0081
    --------------------------------------------
      LOOP:  cpu time    2.0377: real time    2.0541

 eigenvalue-minimisations  :  5616
 total energy-change (2. order) : 0.6304397E+00  (-0.1835232E+00)
 number of electron      32.0000000 magnetization 
 augmentation part       -0.0745829 magnetization 

 Broyden mixing:
  rms(total) = 0.23517E+00    rms(broyden)= 0.23517E+00
  rms(prec ) = 0.25994E+00
  weight for this iteration     100.00

 eigenvalues of (default mixing * dielectric matrix)
  average eigenvalue GAMMA=   2.1777
  1.9357  2.4197

 Free energy of the ion-electron system (eV)
  ---------------------------------------------------
  alpha Z        PSCENC =        77.65249803
  Ewald energy   TEWEN  =     -1393.83149091
  -Hartree energ DENC   =      -106.09519418
  -exchange      EXHF   =         0.00000000
  -V(xc)+E(xc)   XCENC  =        65.40059113
  PAW double counting   =     12599.80772531   -12558.42897940
  entropy T*S    EENTRO =        -0.00000000
  eigenvalues    EBANDS =        65.44006431
  atomic energy  EATOM  =      1177.21277265
  Solvation  Ediel_sol  =         0.00000000
  ---------------------------------------------------
  free energy    TOTEN  =       -72.84201305 eV

  energy without entropy =      -72.84201305  energy(sigma->0) =      -72.84201305


--------------------------------------------------------------------------------------------------------




--------------------------------------- Iteration      1(   8)  ---------------------------------------


    POTLOK:  cpu time    0.0050: real time    0.0125
    SETDIJ:  cpu time    0.0040: real time    0.0036
     EDDAV:  cpu time    2.4966: real time    2.5019
       DOS:  cpu time    0.0000: real time    0.0006
    CHARGE:  cpu time    0.0740: real time    0.0736
    MIXING:  cpu time    0.0020: real time    0.0040
    --------------------------------------------
      LOOP:  cpu time    2.5816: real time    2.5963

 eigenvalue-minimisations  :  6792
 total energy-change (2. order) : 0.1708194E-02  (-0.2497236E-02)
 number of electron      32.0000000 magnetization 
 augmentation part       -0.0744541 magnetization 

 Broyden mixing:
  rms(total) = 0.12035E-01    rms(broyden)= 0.12035E-01
  rms(prec ) = 0.19443E-01
  weight for this iteration     100.00

 eigenvalues of (default mixing * dielectric matrix)
  average eigenvalue GAMMA=   2.0166
  1.5222  2.2637  2.2637

 Free energy of the ion-electron system (eV)
  ---------------------------------------------------
  alpha Z        PSCENC =        77.65249803
  Ewald energy   TEWEN  =     -1393.83149091
  -Hartree energ DENC   =      -105.11194494
  -exchange      EXHF   =         0.00000000
  -V(xc)+E(xc)   XCENC  =        65.35588622
  PAW double counting   =     14962.42723807   -14920.93225942
  entropy T*S    EENTRO =        -0.00000000
  eigenvalues    EBANDS =        64.38699544
  atomic energy  EATOM  =      1177.21277265
  Solvation  Ediel_sol  =         0.00000000
  ---------------------------------------------------
  free energy    TOTEN  =       -72.84030486 eV

  energy without entropy =      -72.84030486  energy(sigma->0) =      -72.84030486


--------------------------------------------------------------------------------------------------------




--------------------------------------- Iteration      1(   9)  ---------------------------------------


    POTLOK:  cpu time    0.0050: real time    0.0121
    SETDIJ:  cpu time    0.0040: real time    0.0035
     EDDAV:  cpu time    1.9757: real time    1.9827
       DOS:  cpu time    0.0010: real time    0.0007
    CHARGE:  cpu time    0.0740: real time    0.0738
    MIXING:  cpu time    0.0000: real time    0.0005
    --------------------------------------------
      LOOP:  cpu time    2.0607: real time    2.0733

 eigenvalue-minimisations  :  5544
 total energy-change (2. order) :-0.1697298E-03  (-0.4539337E-04)
 number of electron      32.0000000 magnetization 
 augmentation part       -0.0743503 magnetization 

 Broyden mixing:
  rms(total) = 0.61446E-02    rms(broyden)= 0.61445E-02
  rms(prec ) = 0.94038E-02
  weight for this iteration     100.00

 eigenvalues of (default mixing * dielectric matrix)
  average eigenvalue GAMMA=   1.9708
  0.9831  2.0257  2.4372  2.4372

 Free energy of the ion-electron system (eV)
  ---------------------------------------------------
  alpha Z        PSCENC =        77.65249803
  Ewald energy   TEWEN  =     -1393.83149091
  -Hartree energ DENC   =      -104.91946236
  -exchange      EXHF   =         0.00000000
  -V(xc)+E(xc)   XCENC  =        65.34038806
  PAW double counting   =     14895.95915443   -14854.45436229
  entropy T*S    EENTRO =        -0.00000000
  eigenvalues    EBANDS =        64.20002779
  atomic energy  EATOM  =      1177.21277265
  Solvation  Ediel_sol  =         0.00000000
  ---------------------------------------------------
  free energy    TOTEN  =       -72.84047459 eV

  energy without entropy =      -72.84047459  energy(sigma->0) =      -72.84047459


--------------------------------------------------------------------------------------------------------




--------------------------------------- Iteration      1(  10)  ---------------------------------------


    POTLOK:  cpu time    0.0080: real time    0.0181
    SETDIJ:  cpu time    0.0030: real time    0.0035
     EDDAV:  cpu time    2.4076: real time    2.4130
       DOS:  cpu time    0.0010: real time    0.0007
    CHARGE:  cpu time    0.0730: real time    0.0737
    MIXING:  cpu time    0.0010: real time    0.0005
    --------------------------------------------
      LOOP:  cpu time    2.4926: real time    2.5095

 eigenvalue-minimisations  :  6528
 total energy-change (2. order) :-0.1220934E-03  (-0.1145247E-04)
 number of electron      32.0000000 magnetization 
 augmentation part       -0.0743187 magnetization 

 Broyden mixing:
  rms(total) = 0.48209E-03    rms(broyden)= 0.48201E-03
  rms(prec ) = 0.81887E-03
  weight for this iteration     100.00

 eigenvalues of (default mixing * dielectric matrix)
  average eigenvalue GAMMA=   1.9231
  2.8207  2.4158  2.0136  1.0282  1.3371

 Free energy of the ion-electron system (eV)
  ---------------------------------------------------
  alpha Z        PSCENC =        77.65249803
  Ewald energy   TEWEN  =     -1393.83149091
  -Hartree energ DENC   =      -105.00695382
  -exchange      EXHF   =         0.00000000
  -V(xc)+E(xc)   XCENC  =        65.34751664
  PAW double counting   =     14828.94851487   -14787.44138547
  entropy T*S    EENTRO =        -0.00000000
  eigenvalues    EBANDS =        64.27793132
  atomic energy  EATOM  =      1177.21277265
  Solvation  Ediel_sol  =         0.00000000
  ---------------------------------------------------
  free energy    TOTEN  =       -72.84059668 eV

  energy without entropy =      -72.84059668  energy(sigma->0) =      -72.84059668


--------------------------------------------------------------------------------------------------------




--------------------------------------- Iteration      1(  11)  ---------------------------------------


    POTLOK:  cpu time    0.0070: real time    0.0147
    SETDIJ:  cpu time    0.0030: real time    0.0037
     EDDAV:  cpu time    2.1357: real time    2.1396
       DOS:  cpu time    0.0000: real time    0.0006
    CHARGE:  cpu time    0.0740: real time    0.0737
    MIXING:  cpu time    0.0010: real time    0.0006
    --------------------------------------------
      LOOP:  cpu time    2.2207: real time    2.2329

 eigenvalue-minimisations  :  5904
 total energy-change (2. order) :-0.1153294E-05  (-0.1691603E-06)
 number of electron      32.0000000 magnetization 
 augmentation part       -0.0743163 magnetization 

 Broyden mixing:
  rms(total) = 0.29819E-03    rms(broyden)= 0.29819E-03
  rms(prec ) = 0.33681E-03
  weight for this iteration     100.00

 eigenvalues of (default mixing * dielectric matrix)
  average eigenvalue GAMMA=   2.0014
  2.9056  2.6140  2.4167  2.0609  1.0055  1.0055

 Free energy of the ion-electron system (eV)
  ---------------------------------------------------
  alpha Z        PSCENC =        77.65249803
  Ewald energy   TEWEN  =     -1393.83149091
  -Hartree energ DENC   =      -105.01524994
  -exchange      EXHF   =         0.00000000
  -V(xc)+E(xc)   XCENC  =        65.34824348
  PAW double counting   =     14828.04796559   -14786.54062525
  entropy T*S    EENTRO =        -0.00000000
  eigenvalues    EBANDS =        64.28528851
  atomic energy  EATOM  =      1177.21277265
  Solvation  Ediel_sol  =         0.00000000
  ---------------------------------------------------
  free energy    TOTEN  =       -72.84059783 eV

  energy without entropy =      -72.84059783  energy(sigma->0) =      -72.84059783


--------------------------------------------------------------------------------------------------------




--------------------------------------- Iteration      1(  12)  ---------------------------------------


    POTLOK:  cpu time    0.0060: real time    0.0170
    SETDIJ:  cpu time    0.0030: real time    0.0035
     EDDAV:  cpu time    2.3826: real time    2.3875
       DOS:  cpu time    0.0010: real time    0.0007
    CHARGE:  cpu time    0.0730: real time    0.0736
    MIXING:  cpu time    0.0010: real time    0.0006
    --------------------------------------------
      LOOP:  cpu time    2.4666: real time    2.4830

 eigenvalue-minimisations  :  6456
 total energy-change (2. order) :-0.3462319E-06  (-0.6602420E-08)
 number of electron      32.0000000 magnetization 
 augmentation part       -0.0743170 magnetization 

 Broyden mixing:
  rms(total) = 0.16075E-04    rms(broyden)= 0.16075E-04
  rms(prec ) = 0.16420E-04
  weight for this iteration     100.00

 eigenvalues of (default mixing * dielectric matrix)
  average eigenvalue GAMMA=   1.9323
  2.8609  2.6752  2.4113  2.0516  1.0089  0.9725  1.5457

 Free energy of the ion-electron system (eV)
  ---------------------------------------------------
  alpha Z        PSCENC =        77.65249803
  Ewald energy   TEWEN  =     -1393.83149091
  -Hartree energ DENC   =      -105.01635393
  -exchange      EXHF   =         0.00000000
  -V(xc)+E(xc)   XCENC  =        65.34835116
  PAW double counting   =     14830.28816656   -14788.78092828
  entropy T*S    EENTRO =        -0.00000000
  eigenvalues    EBANDS =        64.28638654
  atomic energy  EATOM  =      1177.21277265
  Solvation  Ediel_sol  =         0.00000000
  ---------------------------------------------------
  free energy    TOTEN  =       -72.84059818 eV

  energy without entropy =      -72.84059818  energy(sigma->0) =      -72.84059818


--------------------------------------------------------------------------------------------------------




--------------------------------------- Iteration      1(  13)  ---------------------------------------


    POTLOK:  cpu time    0.0070: real time    0.0139
    SETDIJ:  cpu time    0.0030: real time    0.0036
     EDDAV:  cpu time    2.1807: real time    2.1848
       DOS:  cpu time    0.0010: real time    0.0006
    --------------------------------------------
      LOOP:  cpu time    2.1917: real time    2.2028

 eigenvalue-minimisations  :  5976
 total energy-change (2. order) :-0.8816642E-08  (-0.9969961E-11)
 number of electron      32.0000000 magnetization 
 augmentation part       -0.0743170 magnetization 

 Free energy of the ion-electron system (eV)
  ---------------------------------------------------
  alpha Z        PSCENC =        77.65249803
  Ewald energy   TEWEN  =     -1393.83149091
  -Hartree energ DENC   =      -105.01632597
  -exchange      EXHF   =         0.00000000
  -V(xc)+E(xc)   XCENC  =        65.34834902
  PAW double counting   =     14830.18043121   -14788.67319583
  entropy T*S    EENTRO =        -0.00000000
  eigenvalues    EBANDS =        64.28636360
  atomic energy  EATOM  =      1177.21277265
  Solvation  Ediel_sol  =         0.00000000
  ---------------------------------------------------
  free energy    TOTEN  =       -72.84059819 eV

  energy without entropy =      -72.84059819  energy(sigma->0) =      -72.84059819


--------------------------------------------------------------------------------------------------------




 average (electrostatic) potential at core
  the test charge radii are     0.5770
  (the norm of the test charge is              1.0000)
       1 -71.5104       2 -71.5104       3 -71.5104       4 -71.5104       5 -71.5104
       6 -71.5104       7 -71.5104       8 -71.5104
 
 
 
 E-fermi :  11.2375     XC(G=0): -13.4008     alpha+bet :-18.7166


 k-point     1 :       0.0357    0.0357    0.0357
  band No.  band energies     occupation 
      1     -10.4879      2.00000
      2      -2.3367      2.00000
      3      -2.3367      2.00000
      4      -2.3367      2.00000
      5      -1.1928      2.00000
      6      -1.1928      2.00000
      7      -1.1928      2.00000
      8       4.5719      2.00000
      9       4.5719      2.00000
     10       4.5719      2.00000
     11       4.7166      2.00000
     12       4.7166      2.00000
     13       4.7166      2.00000
     14      10.7517      2.00000
     15      10.9426      2.00000
     16      10.9426      2.00000
     17      15.7006      0.00000
     18      15.7006      0.00000
     19      15.7006      0.00000
     20      16.0840      0.00000
     21      16.0840      0.00000
     22      16.0840      0.00000
     23      16.7045      0.00000
     24      16.7045      0.00000

 k-point     2 :       0.1071    0.0357    0.0357
  band No.  band energies     occupation 
      1     -10.3935      2.00000
      2      -3.4313      2.00000
      3      -2.2714      2.00000
      4      -2.2714      2.00000
      5      -1.1405      2.00000
      6      -1.1405      2.00000
      7      -0.0125      2.00000
      8       4.2441      2.00000
      9       4.2441      2.00000
     10       4.6517      2.00000
     11       4.6517      2.00000
     12       4.6674      2.00000
     13       4.8085      2.00000
     14      10.2957      2.00000
     15      10.5776      2.00000
     16      10.8271      2.00000
     17      15.4666      0.00000
     18      15.9887      0.00000
     19      15.9887      0.00000
     20      16.5375      0.00000
     21      16.5500      0.00000
     22      16.5500      0.00000
     23      16.6354      0.00000
     24      17.1495      0.00000

 k-point     3 :       0.1786    0.0357    0.0357
  band No.  band energies     occupation 
      1     -10.2048      2.00000
      2      -4.4665      2.00000
      3      -2.1454      2.00000
      4      -2.1454      2.00000
      5      -1.0427      2.00000
      6      -1.0427      2.00000
      7       1.1894      2.00000
      8       3.7989      2.00000
      9       3.7989      2.00000
     10       4.4057      2.00000
     11       4.4057      2.00000
     12       4.8583      2.00000
     13       4.9917      2.00000
     14       9.6593      2.00000
     15       9.9792      2.00000
     16      10.4506      2.00000
     17      15.3194      0.00000
     18      16.4971      0.00000
     19      16.6012      0.00000
     20      16.6012      0.00000
     21      17.1235      0.00000
     22      17.3513      0.00000
     23      17.3513      0.00000
     24      17.9076      0.00000

 k-point     4 :       0.2500    0.0357    0.0357
  band No.  band energies     occupation 
      1      -9.9225      2.00000
      2      -5.4345      2.00000
      3      -1.9692      2.00000
      4      -1.9692      2.00000
      5      -0.9147      2.00000
      6      -0.9147      2.00000
      7       2.3941      2.00000
      8       3.3154      2.00000
      9       3.3154      2.00000
     10       4.0467      2.00000
     11       4.0467      2.00000
     12       5.1458      2.00000
     13       5.2649      2.00000
     14       8.9349      2.00000
     15       9.2775      2.00000
     16       9.8697      2.00000
     17      15.2571      0.00000
     18      16.3106      0.00000
     19      17.4935      0.00000
     20      17.4935      0.00000
     21      17.8424      0.00000
     22      18.3871      0.00000
     23      18.3871      0.00000
     24      18.8429      0.00000

 k-point     5 :       0.3214    0.0357    0.0357
  band No.  band energies     occupation 
      1      -9.5472      2.00000
      2      -6.3286      2.00000
      3      -1.7630      2.00000
      4      -1.7630      2.00000
      5      -0.7825      2.00000
      6      -0.7825      2.00000
      7       2.8706      2.00000
      8       2.8706      2.00000
      9       3.5789      2.00000
     10       3.6559      2.00000
     11       3.6559      2.00000
     12       5.5328      2.00000
     13       5.6256      2.00000
     14       8.1806      2.00000
     15       8.5524      2.00000
     16       9.1377      2.00000
     17      15.2711      0.00000
     18      16.0967      0.00000
     19      18.5903      0.00000
     20      18.5903      0.00000
     21      18.6972      0.00000
     22      19.5742      0.00000
     23      19.5743      0.00000
     24      19.8743      0.00000

 k-point     6 :       0.3929    0.0357    0.0357
  band No.  band energies     occupation 
      1      -9.0800      2.00000
      2      -7.1438      2.00000
      3      -1.5637      2.00000
      4      -1.5637      2.00000
      5      -0.6801      2.00000
      6      -0.6801      2.00000
      7       2.5349      2.00000
      8       2.5349      2.00000
      9       3.3161      2.00000
     10       3.3161      2.00000
     11       4.7118      2.00000
     12       6.0292      2.00000
     13       6.0703      2.00000
     14       7.4197      2.00000
     15       7.8481      2.00000
     16       8.3052      2.00000
     17      15.3515      0.00000
     18      15.8758      0.00000
     19      19.6839      0.00000
     20      19.8039      0.00000
     21      19.8039      0.00000
     22      20.8139      0.00000
     23      20.8924      0.00000
     24      20.9564      0.00000

 k-point     7 :       0.4643    0.0357    0.0357
  band No.  band energies     occupation 
      1      -8.5223      2.00000
      2      -7.8761      2.00000
      3      -1.4319      2.00000
      4      -1.4319      2.00000
      5      -0.6309      2.00000
      6      -0.6309      2.00000
      7       2.3587      2.00000
      8       2.3587      2.00000
      9       3.1126      2.00000
     10       3.1126      2.00000
     11       5.7440      2.00000
     12       6.5941      2.00000
     13       6.6322      2.00000
     14       6.6595      2.00000
     15       7.1901      2.00000
     16       7.4423      2.00000
     17      15.4876      0.00000
     18      15.6672      0.00000
     19      20.7822      0.00000
     20      20.9665      0.00000
     21      20.9665      0.00000
     22      21.7825      0.00000
     23      21.7841      0.00000
     24      21.9645      0.00000

 k-point     8 :       0.1071    0.1071    0.0357
  band No.  band energies     occupation 
      1     -10.2991      2.00000
      2      -3.3570      2.00000
      3      -3.3570      2.00000
      4      -2.2121      2.00000
      5      -1.0922      2.00000
      6       0.0182      2.00000
      7       0.0182      2.00000
      8       3.7185      2.00000
      9       4.3477      2.00000
     10       4.3477      2.00000
     11       4.7481      2.00000
     12       4.7481      2.00000
     13       4.8738      2.00000
     14       9.7430      2.00000
     15      10.2977      2.00000
     16      10.8306      2.00000
     17      15.8146      0.00000
     18      15.8146      0.00000
     19      15.9456      0.00000
     20      16.8890      0.00000
     21      16.9396      0.00000
     22      16.9396      0.00000
     23      17.2628      0.00000
     24      17.2655      0.00000

 k-point     9 :       0.1786    0.1071    0.0357
  band No.  band energies     occupation 
      1     -10.1107      2.00000
      2      -4.3863      2.00000
      3      -3.2112      2.00000
      4      -2.1015      2.00000
      5      -1.0024      2.00000
      6       0.0678      2.00000
      7       1.1849      2.00000
      8       3.1543      2.00000
      9       3.9125      2.00000
     10       4.5203      2.00000
     11       4.5564      2.00000
     12       4.8872      2.00000
     13       4.9428      2.00000
     14       9.0548      2.00000
     15       9.7300      2.00000
     16      10.6136      2.00000
     17      15.6885      0.00000
     18      16.2597      0.00000
     19      16.4814      0.00000
     20      16.8507      0.00000
     21      17.4968      0.00000
     22      17.6786      0.00000
     23      17.9076      0.00000
     24      18.0899      0.00000

 k-point    10 :       0.2500    0.1071    0.0357
  band No.  band energies     occupation 
      1      -9.8286      2.00000
      2      -5.3501      2.00000
      3      -3.0001      2.00000
      4      -1.9604      2.00000
      5      -0.8844      2.00000
      6       0.1101      2.00000
      7       2.3302      2.00000
      8       2.6336      2.00000
      9       3.4363      2.00000
     10       4.2029      2.00000
     11       4.7204      2.00000
     12       4.8729      2.00000
     13       5.2416      2.00000
     14       8.3069      2.00000
     15       9.0485      2.00000
     16      10.1513      2.00000
     17      15.6372      0.00000
     18      16.6837      0.00000
     19      16.9191      0.00000
     20      17.4105      0.00000
     21      18.1931      0.00000
     22      18.6638      0.00000
     23      18.8201      0.00000
     24      18.8739      0.00000

 k-point    11 :       0.3214    0.1071    0.0357
  band No.  band energies     occupation 
      1      -9.4538      2.00000
      2      -6.2414      2.00000
      3      -2.7351      2.00000
      4      -1.8325      2.00000
      5      -0.7499      2.00000
      6       0.1055      2.00000
      7       2.2390      2.00000
      8       2.9812      2.00000
      9       3.4138      2.00000
     10       3.8957      2.00000
     11       4.4405      2.00000
     12       5.2949      2.00000
     13       5.6629      2.00000
     14       7.5426      2.00000
     15       8.3360      2.00000
     16       9.4977      2.00000
     17      15.6575      0.00000
     18      16.4786      0.00000
     19      17.8526      0.00000
     20      18.5323      0.00000
     21      19.0263      0.00000
     22      19.7850      0.00000
     23      19.7983      0.00000
     24      19.8481      0.00000

 k-point    12 :       0.3929    0.1071    0.0357
  band No.  band energies     occupation 
      1      -8.9872      2.00000
      2      -7.0545      2.00000
      3      -2.4366      2.00000
      4      -1.7928      2.00000
      5      -0.5905      2.00000
      6       0.0153      2.00000
      7       2.0411      2.00000
      8       2.5834      2.00000
      9       3.7023      2.00000
     10       4.1251      2.00000
     11       4.3910      2.00000
     12       5.8016      2.00000
     13       6.2453      2.00000
     14       6.7826      2.00000
     15       7.6372      2.00000
     16       8.7125      2.00000
     17      15.7414      0.00000
     18      16.2630      0.00000
     19      18.9691      0.00000
     20      19.7657      0.00000
     21      19.9905      0.00000
     22      20.7703      0.00000
     23      20.9259      0.00000
     24      20.9335      0.00000

 k-point    13 :       0.4643    0.1071    0.0357
  band No.  band energies     occupation 
      1      -8.4304      2.00000
      2      -7.7853      2.00000
      3      -2.1399      2.00000
      4      -1.9023      2.00000
[...]
     11       6.1866      2.00000
     12       7.2070      2.00000
     13       7.3168      2.00000
     14       7.3168      2.00000
     15       7.6762      2.00000
     16       8.8016      2.00000
     17      18.3566      0.00000
     18      18.7674      0.00000
     19      18.7674      0.00000
     20      19.2780      0.00000
     21      19.6586      0.00000
     22      20.1156      0.00000
     23      20.5574      0.00000
     24      20.5574      0.00000

 k-point    73 :       0.4643    0.3929    0.2500
  band No.  band energies     occupation 
      1      -6.6357      2.00000
      2      -6.0299      2.00000
      3      -4.9086      2.00000
      4      -4.4498      2.00000
      5      -1.4511      2.00000
      6      -1.0065      2.00000
      7       0.0731      2.00000
      8       0.6568      2.00000
      9       5.6162      2.00000
     10       5.9238      2.00000
     11       6.7433      2.00000
     12       7.2286      2.00000
     13       7.4129      2.00000
     14       7.4407      2.00000
     15       7.9556      2.00000
     16       8.4868      2.00000
     17      18.8000      0.00000
     18      19.0265      0.00000
     19      19.2486      0.00000
     20      19.2768      0.00000
     21      19.7988      0.00000
     22      20.0798      0.00000
     23      20.1079      0.00000
     24      20.6755      0.00000

 k-point    74 :       0.4643    0.4643    0.2500
  band No.  band energies     occupation 
      1      -6.1194      2.00000
      2      -5.5369      2.00000
      3      -5.5369      2.00000
      4      -4.9959      2.00000
      5      -1.0811      2.00000
      6      -0.5584      2.00000
      7      -0.5584      2.00000
      8       0.0032      2.00000
      9       6.0148      2.00000
     10       6.3929      2.00000
     11       6.3929      2.00000
     12       6.8260      2.00000
     13       7.8033      2.00000
     14       7.9878      2.00000
     15       7.9878      2.00000
     16       8.3554      2.00000
     17      18.9739      0.00000
     18      19.3226      0.00000
     19      19.3226      0.00000
     20      19.4570      0.00000
     21      19.8360      0.00000
     22      20.0096      0.00000
     23      20.0096      0.00000
     24      20.6321      0.00000

 k-point    75 :       0.3214    0.3214    0.3214
  band No.  band energies     occupation 
      1      -7.7056      2.00000
      2      -4.7307      2.00000
      3      -4.7307      2.00000
      4      -4.7307      2.00000
      5      -0.8720      2.00000
      6      -0.8720      2.00000
      7      -0.8720      2.00000
      8       1.9972      2.00000
      9       5.7522      2.00000
     10       5.7522      2.00000
     11       5.7522      2.00000
     12       6.8947      2.00000
     13       6.8947      2.00000
     14       6.8947      2.00000
     15       8.7500      2.00000
     16       8.7500      2.00000
     17      17.9782      0.00000
     18      17.9782      0.00000
     19      17.9782      0.00000
     20      19.2682      0.00000
     21      19.2682      0.00000
     22      19.5861      0.00000
     23      22.0506      0.00000
     24      22.0506      0.00000

 k-point    76 :       0.3929    0.3214    0.3214
  band No.  band energies     occupation 
      1      -7.2564      2.00000
      2      -5.4456      2.00000
      3      -4.4434      2.00000
      4      -4.4434      2.00000
      5      -1.4655      2.00000
      6      -1.4655      2.00000
      7      -0.4968      2.00000
      8       1.2522      2.00000
      9       5.9491      2.00000
     10       5.9491      2.00000
     11       6.7506      2.00000
     12       7.0924      2.00000
     13       7.0924      2.00000
     14       7.2145      2.00000
     15       8.3629      2.00000
     16       8.6715      2.00000
     17      18.2711      0.00000
     18      18.4251      0.00000
     19      18.4251      0.00000
     20      19.0862      0.00000
     21      19.6710      0.00000
     22      19.8030      0.00000
     23      21.2071      0.00000
     24      21.2077      0.00000

 k-point    77 :       0.4643    0.3214    0.3214
  band No.  band energies     occupation 
      1      -6.7249      2.00000
      2      -6.1176      2.00000
      3      -4.2364      2.00000
      4      -4.2364      2.00000
      5      -1.8274      2.00000
      6      -1.8274      2.00000
      7      -0.0060      2.00000
      8       0.5810      2.00000
      9       6.0531      2.00000
     10       6.0531      2.00000
     11       7.1838      2.00000
     12       7.1838      2.00000
     13       7.5759      2.00000
     14       7.6145      2.00000
     15       7.9645      2.00000
     16       8.2772      2.00000
     17      18.5708      0.00000
     18      18.8502      0.00000
     19      19.0436      0.00000
     20      19.0436      0.00000
     21      20.1631      0.00000
     22      20.2621      0.00000
     23      20.3143      0.00000
     24      20.3143      0.00000

 k-point    78 :       0.3929    0.3929    0.3214
  band No.  band energies     occupation 
      1      -6.8151      2.00000
      2      -5.0776      2.00000
      3      -5.0776      2.00000
      4      -4.3188      2.00000
      5      -1.9118      2.00000
      6      -1.1724      2.00000
      7      -1.1724      2.00000
      8       0.5096      2.00000
      9       6.2879      2.00000
     10       6.8117      2.00000
     11       6.8117      2.00000
     12       7.4096      2.00000
     13       7.4510      2.00000
     14       7.4510      2.00000
     15       8.1804      2.00000
     16       8.6188      2.00000
     17      18.5971      0.00000
     18      18.6997      0.00000
     19      18.6997      0.00000
     20      19.3131      0.00000
     21      19.5819      0.00000
     22      19.8484      0.00000
     23      20.6299      0.00000
     24      20.6299      0.00000

 k-point    79 :       0.4643    0.3929    0.3214
  band No.  band energies     occupation 
      1      -6.2961      2.00000
      2      -5.7101      2.00000
      3      -4.6995      2.00000
      4      -4.4036      2.00000
      5      -1.9925      2.00000
      6      -1.7030      2.00000
      7      -0.7206      2.00000
      8      -0.1528      2.00000
      9       6.5398      2.00000
     10       6.7191      2.00000
     11       7.4181      2.00000
     12       7.5898      2.00000
     13       7.6000      2.00000
     14       7.8364      2.00000
     15       7.9329      2.00000
     16       8.3860      2.00000
     17      18.9726      0.00000
     18      19.0005      0.00000
     19      19.2091      0.00000
     20      19.2265      0.00000
     21      19.8027      0.00000
     22      19.9714      0.00000
     23      20.1537      0.00000
     24      20.2102      0.00000

 k-point    80 :       0.4643    0.4643    0.3214
  band No.  band energies     occupation 
      1      -5.7985      2.00000
      2      -5.2518      2.00000
      3      -5.2518      2.00000
      4      -4.7851      2.00000
      5      -1.7839      2.00000
      6      -1.3285      2.00000
      7      -1.3285      2.00000
      8      -0.7971      2.00000
      9       6.8987      2.00000
     10       7.1861      2.00000
     11       7.1861      2.00000
     12       7.5453      2.00000
     13       7.9107      2.00000
     14       8.0388      2.00000
     15       8.0388      2.00000
     16       8.3325      2.00000
     17      19.1498      0.00000
     18      19.3782      0.00000
     19      19.3782      0.00000
     20      19.5253      0.00000
     21      19.6216      0.00000
     22      19.7915      0.00000
     23      19.7915      0.00000
     24      20.2183      0.00000

 k-point    81 :       0.3929    0.3929    0.3929
  band No.  band energies     occupation 
      1      -6.3852      2.00000
      2      -4.7832      2.00000
      3      -4.7832      2.00000
      4      -4.7832      2.00000
      5      -1.7882      2.00000
      6      -1.7882      2.00000
      7      -1.7882      2.00000
      8      -0.2297      2.00000
      9       7.1692      2.00000
     10       7.1692      2.00000
     11       7.1692      2.00000
     12       7.6437      2.00000
     13       7.6437      2.00000
     14       7.6437      2.00000
     15       8.3989      2.00000
     16       8.3989      2.00000
     17      18.8559      0.00000
     18      18.8559      0.00000
     19      18.8559      0.00000
     20      19.4481      0.00000
     21      19.4481      0.00000
     22      19.8060      0.00000
     23      20.5189      0.00000
     24      20.5189      0.00000

 k-point    82 :       0.4643    0.3929    0.3929
  band No.  band energies     occupation 
      1      -5.8861      2.00000
      2      -5.3376      2.00000
      3      -4.5696      2.00000
      4      -4.5696      2.00000
      5      -2.1639      2.00000
      6      -2.1639      2.00000
      7      -1.4122      2.00000
      8      -0.8780      2.00000
      9       7.2942      2.00000
     10       7.2942      2.00000
     11       7.8069      2.00000
     12       7.8069      2.00000
     13       7.8604      2.00000
     14       7.8966      2.00000
     15       8.1535      2.00000
     16       8.2888      2.00000
     17      19.1019      0.00000
     18      19.2043      0.00000
     19      19.2043      0.00000
     20      19.3029      0.00000
     21      19.6970      0.00000
     22      19.9711      0.00000
     23      19.9716      0.00000
     24      19.9724      0.00000

 k-point    83 :       0.4643    0.4643    0.3929
  band No.  band energies     occupation 
      1      -5.4245      2.00000
      2      -4.9539      2.00000
      3      -4.9539      2.00000
      4      -4.6535      2.00000
      5      -2.2494      2.00000
      6      -1.9542      2.00000
      7      -1.9542      2.00000
      8      -1.4936      2.00000
      9       7.6100      2.00000
     10       7.7770      2.00000
     11       7.7770      2.00000
     12       8.0235      2.00000
     13       8.0339      2.00000
     14       8.0820      2.00000
     15       8.0820      2.00000
     16       8.2885      2.00000
     17      19.3148      0.00000
     18      19.3788      0.00000
     19      19.3788      0.00000
     20      19.4967      0.00000
     21      19.5368      0.00000
     22      19.7141      0.00000
     23      19.7141      0.00000
     24      19.8694      0.00000

 k-point    84 :       0.4643    0.4643    0.4643
  band No.  band energies     occupation 
      1      -5.0390      2.00000
      2      -4.7370      2.00000
      3      -4.7370      2.00000
      4      -4.7370      2.00000
      5      -2.3362      2.00000
      6      -2.3362      2.00000
      7      -2.3362      2.00000
      8      -2.0393      2.00000
      9       8.0720      2.00000
     10       8.0720      2.00000
     11       8.0720      2.00000
     12       8.1302      2.00000
     13       8.1302      2.00000
     14       8.1302      2.00000
     15       8.2207      2.00000
     16       8.2207      2.00000
     17      19.4309      0.00000
     18      19.4309      0.00000
     19      19.4309      0.00000
     20      19.4907      0.00000
     21      19.4907      0.00000
     22      19.6150      0.00000
     23      19.6150      0.00000
     24      19.6153      0.00000


--------------------------------------------------------------------------------------------------------


 soft charge-density along one line, spin component           1
         0         1         2         3         4         5         6         7         8         9
 total charge-density along one line
 
 pseudopotential strength for first ion, spin component:           1
 12.164  20.458  -0.000   0.000   0.000  -0.000   0.000   0.000
 20.458  34.404  -0.000   0.000   0.000  -0.000   0.000   0.000
 -0.000  -0.000  -2.967   0.000   0.000  -5.301   0.000   0.000
  0.000   0.000   0.000  -2.967   0.000   0.000  -5.301   0.000
  0.000   0.000   0.000   0.000  -2.967   0.000   0.000  -5.301
 -0.000  -0.000  -5.301   0.000   0.000  -9.450   0.000   0.000
  0.000   0.000   0.000  -5.301   0.000   0.000  -9.450   0.000
  0.000   0.000   0.000   0.000  -5.301   0.000   0.000  -9.450
 total augmentation occupancy for first ion, spin component:           1
  7.285  -2.551   0.000   0.000  -0.000  -0.000  -0.000  -0.000
 -2.551   0.948   0.000   0.000   0.000  -0.000   0.000  -0.000
  0.000   0.000   5.750   0.000   0.000  -1.868  -0.000  -0.000
  0.000   0.000   0.000   5.750   0.000   0.000  -1.868  -0.000
 -0.000   0.000   0.000   0.000   5.750   0.000   0.000  -1.868
  0.000  -0.000  -1.868   0.000  -0.000   0.625  -0.000  -0.000
  0.000   0.000  -0.000  -1.868  -0.000  -0.000   0.625  -0.000
 -0.000  -0.000  -0.000  -0.000  -1.868   0.000  -0.000   0.625


------------------------ aborting loop because EDIFF is reached ----------------------------------------


    CHARGE:  cpu time    0.0740: real time    0.0737
    FORLOC:  cpu time    0.0010: real time    0.0035
    FORNL :  cpu time    0.1970: real time    0.2066
    STRESS:  cpu time    1.1908: real time    1.2050
    FORCOR:  cpu time    0.0050: real time    0.0095
    FORHAR:  cpu time    0.0020: real time    0.0028
    MIXING:  cpu time    0.0000: real time    0.0005
    OFIELD:  cpu time    0.0010: real time    0.0027

  FORCE on cell =-STRESS in cart. coord.  units (eV):
  Direction    XX          YY          ZZ          XY          YZ          ZX
  --------------------------------------------------------------------------------------
  Alpha Z    77.65250    77.65250    77.65250
  Ewald    -464.61129  -464.61129  -464.61129    -0.00000    -0.00000    -0.00000
  Hartree    35.00545    35.00545    35.00545    -0.00000    -0.00000    -0.00000
  E(xc)    -132.34093  -132.34093  -132.34093     0.00000     0.00000     0.00000
  Local    -126.02785  -126.02785  -126.02785    -0.00000     0.00000    -0.00000
  n-local    28.72379    27.95641    28.40219     0.58408     0.78679     0.38153
  augment     0.48048     0.48048     0.48048     0.00000    -0.00000    -0.00000
  Kinetic   571.04291   588.19901   587.75513    -5.99948    -7.90592    -4.27703
  Fock        0.00000     0.00000     0.00000     0.00000     0.00000     0.00000
  -------------------------------------------------------------------------------------
  Total       0.85149     0.85149     0.85149     0.00000     0.00000     0.00000
  in kB      30.19415    30.19415    30.19415     0.00000     0.00000     0.00000
  external pressure =       30.19 kB  Pullay stress =        0.00 kB


 VOLUME and BASIS-vectors are now :
 -----------------------------------------------------------------------------
  energy-cutoff  :      875.00
  volume of cell :       45.18
      direct lattice vectors                 reciprocal lattice vectors
     3.561693054  0.000000000  0.000000000     0.280765351  0.000000000  0.000000000
     0.000000000  3.561693054  0.000000000     0.000000000  0.280765351  0.000000000
     0.000000000  0.000000000  3.561693054     0.000000000  0.000000000  0.280765351

  length of vectors
     3.561693054  3.561693054  3.561693054     0.280765351  0.280765351  0.280765351


 FORCES acting on ions
    electron-ion (+dipol)            ewald-force                    non-local-force                 convergence-correction
 -----------------------------------------------------------------------------------------------
   -.120E-13 0.219E-12 0.130E-13   0.497E-13 0.000E+00 -.711E-14   -.598E-16 -.408E-16 -.416E-16   0.248E-14 0.264E-14 0.215E-14
   0.698E-14 -.245E-14 -.268E-14   0.289E-13 0.662E-14 -.709E-14   0.442E-16 -.364E-16 0.173E-16   0.371E-15 -.458E-15 0.303E-14
   -.748E-14 0.256E-12 0.322E-13   0.213E-13 -.142E-13 -.213E-13   -.867E-18 -.217E-16 -.312E-16   0.236E-14 0.161E-14 0.216E-14
   0.130E-13 0.236E-13 0.307E-13   0.596E-15 -.711E-14 -.204E-13   0.590E-16 0.520E-17 0.338E-16   0.154E-14 -.124E-15 -.318E-14
   0.394E-13 -.180E-12 -.339E-12   -.711E-14 0.711E-14 0.213E-13   -.651E-16 0.113E-16 -.382E-16   -.104E-14 0.178E-14 0.244E-14
   0.444E-13 -.552E-15 -.724E-12   -.214E-13 0.152E-13 0.222E-13   0.104E-16 0.156E-16 0.304E-16   -.236E-14 0.219E-15 -.302E-14
   0.464E-13 -.530E-12 -.917E-14   -.355E-13 -.711E-14 0.711E-14   -.338E-16 0.217E-16 -.208E-16   -.780E-15 0.206E-14 0.119E-14
   0.145E-13 -.373E-12 -.405E-12   -.498E-13 0.535E-16 0.703E-14   0.512E-16 0.295E-16 0.382E-16   -.243E-14 -.622E-17 0.301E-14
 -----------------------------------------------------------------------------------------------
   0.145E-12 -.587E-12 -.140E-11   -.133E-13 0.547E-15 0.173E-14   0.520E-17 -.156E-16 -.121E-16   0.140E-15 0.773E-14 0.777E-14
 
 
 POSITION                                       TOTAL-FORCE (eV/Angst)
 -----------------------------------------------------------------------------------
      0.89042      0.89042      0.89042         0.000000      0.000000      0.000000
      0.00000      0.00000      0.00000         0.000000     -0.000000     -0.000000
      0.89042      2.67127      2.67127         0.000000     -0.000000      0.000000
      0.00000      1.78085      1.78085        -0.000000      0.000000     -0.000000
      2.67127      0.89042      2.67127         0.000000     -0.000000      0.000000
      1.78085      0.00000      1.78085        -0.000000      0.000000     -0.000000
      2.67127      2.67127      0.89042        -0.000000      0.000000      0.000000
      1.78085      1.78085      0.00000        -0.000000     -0.000000     -0.000000
 -----------------------------------------------------------------------------------
    total drift:                                0.000000     -0.000000     -0.000000


--------------------------------------------------------------------------------------------------------



  FREE ENERGIE OF THE ION-ELECTRON SYSTEM (eV)
  ---------------------------------------------------
  free  energy   TOTEN  =       -72.84059819 eV

  energy  without entropy=      -72.84059819  energy(sigma->0) =      -72.84059819
 


--------------------------------------------------------------------------------------------------------


    POTLOK:  cpu time    0.0120: real time    0.0153


--------------------------------------------------------------------------------------------------------


 stress matrix after NEB project (eV)
      0.85149      0.00000      0.00000
      0.00000      0.85149      0.00000
     -0.00000      0.00000      0.85149
  FORCES: max atom, RMS     0.000000    0.000000
  FORCE total and by dimension    0.000000    0.000000
  Stress total and by dimension    1.474831    0.851494


--------------------------------------------------------------------------------------------------------


  
 reached required accuracy - stopping structural energy minimisation
     LOOP+:  cpu time   29.0196: real time   29.5175
    4ORBIT:  cpu time    0.0000: real time    0.0000

 total amount of memory used by VASP MPI-rank0    51546. kBytes
=======================================================================

   base      :      30000. kBytes
   nonl-proj :      14794. kBytes
   fftplans  :        905. kBytes
   grid      :       2114. kBytes
   one-center:         24. kBytes
   wavefun   :       3709. kBytes
 
  
  
 General timing and accounting informations for this job:
 ========================================================
  
                  Total CPU time used (sec):       31.492
                            User time (sec):       30.463
                          System time (sec):        1.029
                         Elapsed time (sec):       33.020
  
                   Maximum memory used (kb):      127212.
                   Average memory used (kb):           0.
  
                          Minor page faults:        31856
                          Major page faults:          372
                 Voluntary context switches:         9227
