 running on   24 total cores
 distrk:  each k-point on   24 cores,    1 groups
 distr:  one band on    1 cores,   24 groups
 using from now: INCAR     
 vasp.5.4.4.18Apr17-6-g9f103f2a35 (build Jan 14 2019 14:48:31) complex          
  
 POSCAR found type information on POSCAR  C 
 POSCAR found :  1 types and       8 ions
 scaLAPACK will be used

 ----------------------------------------------------------------------------- 
|                                                                             |
|           W    W    AA    RRRRR   N    N  II  N    N   GGGG   !!!           |
|           W    W   A  A   R    R  NN   N  II  NN   N  G    G  !!!           |
|           W    W  A    A  R    R  N N  N  II  N N  N  G       !!!           |
|           W WW W  AAAAAA  RRRRR   N  N N  II  N  N N  G  GGG   !            |
|           WW  WW  A    A  R   R   N   NN  II  N   NN  G    G                |
|           W    W  A    A  R    R  N    N  II  N    N   GGGG   !!!           |
|                                                                             |
|      For optimal performance we recommend to set                            |
|        NCORE= 4 - approx SQRT( number of cores)                             |
|      NCORE specifies how many cores store one orbital (NPAR=cpu/NCORE).     |
|      This setting can  greatly improve the performance of VASP for DFT.     |
|      The default,   NCORE=1            might be grossly inefficient         |
|      on modern multi-core architectures or massively parallel machines.     |
|      Do your own testing !!!!                                               |
|      Unfortunately you need to use the default for GW and RPA calculations. |
|      (for HF NCORE is supported but not extensively tested yet)             |
|                                                                             |
 ----------------------------------------------------------------------------- 

 WARNING: for PREC=h ENMAX is automatically increase by 25 %
        this was not the case for versions prior to vasp.4.4
 LDA part: xc-table for Pade appr. of Perdew
 POSCAR found type information on POSCAR  C 
 POSCAR found :  1 types and       8 ions
 POSCAR, INCAR and KPOINTS ok, starting setup
 FFT: planning ...
 WAVECAR not read
 entering main loop
       N       E                     dE             d eps       ncg     rms          rms(c)
DAV:   1     0.102617593310E+03    0.10262E+03   -0.26069E+04  4032   0.199E+03
DAV:   2    -0.725278251037E+02   -0.17515E+03   -0.17241E+03  6456   0.227E+02
DAV:   3    -0.753358014165E+02   -0.28080E+01   -0.28080E+01  4608   0.406E+01
DAV:   4    -0.753549667686E+02   -0.19165E-01   -0.19165E-01  7584   0.259E+00
DAV:   5    -0.753549694295E+02   -0.26609E-05   -0.26608E-05  4512   0.357E-02    0.167E+01
DAV:   6    -0.734724527660E+02    0.18825E+01   -0.14161E+00  4728   0.636E+00    0.110E+01
DAV:   7    -0.728420130517E+02    0.63044E+00   -0.18352E+00  5616   0.731E+00    0.235E+00
DAV:   8    -0.728403048576E+02    0.17082E-02   -0.24972E-02  6792   0.120E+00    0.120E-01
DAV:   9    -0.728404745874E+02   -0.16973E-03   -0.45393E-04  5544   0.141E-01    0.614E-02
DAV:  10    -0.728405966808E+02   -0.12209E-03   -0.11452E-04  6528   0.851E-02    0.482E-03
DAV:  11    -0.728405978341E+02   -0.11533E-05   -0.16916E-06  5904   0.103E-02    0.298E-03
DAV:  12    -0.728405981803E+02   -0.34623E-06   -0.66024E-08  6456   0.234E-03    0.161E-04
DAV:  13    -0.728405981891E+02   -0.88166E-08   -0.99700E-11  5976   0.801E-05
   1 F= -.72840598E+02 E0= -.72840598E+02  d E =-.728406E+02
 curvature:   0.00 expect dE= 0.000E+00 dE for cont linesearch  0.000E+00
 trial: gam= 0.00000 g(F)=  0.735E-59 g(S)=  0.000E+00 ort = 0.000E+00 (trialstep = 0.100E+01)
 search vector abs. value=  0.100E-09
 reached required accuracy - stopping structural energy minimisation
