<?xml version="1.0" encoding="ISO-8859-1"?>
<modeling>
 <generator>
  <i name="program" type="string">vasp </i>
  <i name="version" type="string">5.4.4.18Apr17-6-g9f103f2a35  </i>
  <i name="subversion" type="string">(build Jan 14 2019 14:48:31) complex            parallel </i>
  <i name="platform" type="string">LinuxIFC </i>
  <i name="date" type="string">2019 08 26 </i>
  <i name="time" type="string">21:13:34 </i>
 </generator>
 <incar>
  <i type="int" name="ISTART">     0</i>
  <i type="string" name="PREC">high     (precision level)</i>
  <i type="logical" name="ADDGRID"> T  </i>
  <i type="int" name="NELM">    40</i>
  <i type="int" name="NELMIN">     4</i>
  <i type="int" name="IBRION">     2</i>
  <i name="EDIFF">      0.00000001</i>
  <i name="EDIFFG">     -0.01000000</i>
  <i type="int" name="NSW">   100</i>
  <i type="int" name="ISIF">     2</i>
  <i type="logical" name="LREAL"> F  </i>
  <i type="int" name="ISMEAR">     0</i>
  <i name="SIGMA">      0.05000000</i>
  <i type="logical" name="LWAVE"> F  </i>
  <i type="logical" name="LCHARG"> F  </i>
  <v type="int" name="KPOINT_BSE">    -1     0     0     0</v>
  <i type="int" name="NELM">    40</i>
 </incar>
 <structure name="primitive_cell" >
  <crystal>
   <varray name="basis" >
    <v>       1.78084653       1.78084653       0.00000000 </v>
    <v>       1.78084653       0.00000000      -1.78084653 </v>
    <v>       0.00000000       1.78084653      -1.78084653 </v>
   </varray>
   <i name="volume">     11.29560447 </i>
   <varray name="rec_basis" >
    <v>       0.28076535       0.28076535       0.28076535 </v>
    <v>       0.28076535      -0.28076535      -0.28076535 </v>
    <v>      -0.28076535       0.28076535      -0.28076535 </v>
   </varray>
  </crystal>
  <varray name="positions" >
   <v>      -0.25000000      -0.25000000      -0.25000000 </v>
   <v>       0.00000000       0.00000000       0.00000000 </v>
  </varray>
 </structure>
 <varray name="primitive_index" >
  <v type="int" >        1 </v>
  <v type="int" >        2 </v>
 </varray>
 <kpoints>
  <generation param="Monkhorst-Pack">
   <v type="int" name="divisions">      14       14       14 </v>
   <v name="usershift">      0.00000000       0.00000000       0.00000000 </v>
   <v name="genvec1">      0.07142857       0.00000000       0.00000000 </v>
   <v name="genvec2">      0.00000000       0.07142857       0.00000000 </v>
   <v name="genvec3">      0.00000000       0.00000000       0.07142857 </v>
   <v name="shift">      0.50000000       0.50000000       0.50000000 </v>
  </generation>
  <varray name="kpointlist" >
   <v>       0.03571429       0.03571429       0.03571429 </v>
   <v>       0.10714286       0.03571429       0.03571429 </v>
   <v>       0.17857143       0.03571429       0.03571429 </v>
   <v>       0.25000000       0.03571429       0.03571429 </v>
   <v>       0.32142857       0.03571429       0.03571429 </v>
   <v>       0.39285714       0.03571429       0.03571429 </v>
   <v>       0.46428571       0.03571429       0.03571429 </v>
   <v>       0.10714286       0.10714286       0.03571429 </v>
   <v>       0.17857143       0.10714286       0.03571429 </v>
   <v>       0.25000000       0.10714286       0.03571429 </v>
   <v>       0.32142857       0.10714286       0.03571429 </v>
   <v>       0.39285714       0.10714286       0.03571429 </v>
   <v>       0.46428571       0.10714286       0.03571429 </v>
   <v>       0.17857143       0.17857143       0.03571429 </v>
   <v>       0.25000000       0.17857143       0.03571429 </v>
   <v>       0.32142857       0.17857143       0.03571429 </v>
   <v>       0.39285714       0.17857143       0.03571429 </v>
   <v>       0.46428571       0.17857143       0.03571429 </v>
   <v>       0.25000000       0.25000000       0.03571429 </v>
   <v>       0.32142857       0.25000000       0.03571429 </v>
   <v>       0.39285714       0.25000000       0.03571429 </v>
   <v>       0.46428571       0.25000000       0.03571429 </v>
   <v>       0.32142857       0.32142857       0.03571429 </v>
   <v>       0.39285714       0.32142857       0.03571429 </v>
   <v>       0.46428571       0.32142857       0.03571429 </v>
   <v>       0.39285714       0.39285714       0.03571429 </v>
   <v>       0.46428571       0.39285714       0.03571429 </v>
   <v>       0.46428571       0.46428571       0.03571429 </v>
   <v>       0.10714286       0.10714286       0.10714286 </v>
   <v>       0.17857143       0.10714286       0.10714286 </v>
   <v>       0.25000000       0.10714286       0.10714286 </v>
   <v>       0.32142857       0.10714286       0.10714286 </v>
   <v>       0.39285714       0.10714286       0.10714286 </v>
   <v>       0.46428571       0.10714286       0.10714286 </v>
   <v>       0.17857143       0.17857143       0.10714286 </v>
   <v>       0.25000000       0.17857143       0.10714286 </v>
   <v>       0.32142857       0.17857143       0.10714286 </v>
   <v>       0.39285714       0.17857143       0.10714286 </v>
   <v>       0.46428571       0.17857143       0.10714286 </v>
   <v>       0.25000000       0.25000000       0.10714286 </v>
   <v>       0.32142857       0.25000000       0.10714286 </v>
   <v>       0.39285714       0.25000000       0.10714286 </v>
   <v>       0.46428571       0.25000000       0.10714286 </v>
   <v>       0.32142857       0.32142857       0.10714286 </v>
   <v>       0.39285714       0.32142857       0.10714286 </v>
   <v>       0.46428571       0.32142857       0.10714286 </v>
   <v>       0.39285714       0.39285714       0.10714286 </v>
   <v>       0.46428571       0.39285714       0.10714286 </v>
   <v>       0.46428571       0.46428571       0.10714286 </v>
   <v>       0.17857143       0.17857143       0.17857143 </v>
   <v>       0.25000000       0.17857143       0.17857143 </v>
   <v>       0.32142857       0.17857143       0.17857143 </v>
   <v>       0.39285714       0.17857143       0.17857143 </v>
   <v>       0.46428571       0.17857143       0.17857143 </v>
   <v>       0.25000000       0.25000000       0.17857143 </v>
   <v>       0.32142857       0.25000000       0.17857143 </v>
   <v>       0.39285714       0.25000000       0.17857143 </v>
   <v>       0.46428571       0.25000000       0.17857143 </v>
   <v>       0.32142857       0.32142857       0.17857143 </v>
   <v>       0.39285714       0.32142857       0.17857143 </v>
   <v>       0.46428571       0.32142857       0.17857143 </v>
   <v>       0.39285714       0.39285714       0.17857143 </v>
   <v>       0.46428571       0.39285714       0.17857143 </v>
   <v>       0.46428571       0.46428571       0.17857143 </v>
   <v>       0.25000000       0.25000000       0.25000000 </v>
   <v>       0.32142857       0.25000000       0.25000000 </v>
   <v>       0.39285714       0.25000000       0.25000000 </v>
   <v>       0.46428571       0.25000000       0.25000000 </v>
   <v>       0.32142857       0.32142857       0.25000000 </v>
   <v>       0.39285714       0.32142857       0.25000000 </v>
   <v>       0.46428571       0.32142857       0.25000000 </v>
   <v>       0.39285714       0.39285714       0.25000000 </v>
   <v>       0.46428571       0.39285714       0.25000000 </v>
   <v>       0.46428571       0.46428571       0.25000000 </v>
   <v>       0.32142857       0.32142857       0.32142857 </v>
   <v>       0.39285714       0.32142857       0.32142857 </v>
   <v>       0.46428571       0.32142857       0.32142857 </v>
   <v>       0.39285714       0.39285714       0.32142857 </v>
   <v>       0.46428571       0.39285714       0.32142857 </v>
   <v>       0.46428571       0.46428571       0.32142857 </v>
   <v>       0.39285714       0.39285714       0.39285714 </v>
   <v>       0.46428571       0.39285714       0.39285714 </v>
   <v>       0.46428571       0.46428571       0.39285714 </v>
   <v>       0.46428571       0.46428571       0.46428571 </v>
  </varray>
  <varray name="weights" >
   <v>       0.00291545 </v>
   <v>       0.00874636 </v>
   <v>       0.00874636 </v>
   <v>       0.00874636 </v>
   <v>       0.00874636 </v>
   <v>       0.00874636 </v>
   <v>       0.00874636 </v>
   <v>       0.00874636 </v>
   <v>       0.01749271 </v>
   <v>       0.01749271 </v>
   <v>       0.01749271 </v>
   <v>       0.01749271 </v>
   <v>       0.01749271 </v>
   <v>       0.00874636 </v>
   <v>       0.01749271 </v>
   <v>       0.01749271 </v>
   <v>       0.01749271 </v>
   <v>       0.01749271 </v>
   <v>       0.00874636 </v>
   <v>       0.01749271 </v>
   <v>       0.01749271 </v>
   <v>       0.01749271 </v>
   <v>       0.00874636 </v>
   <v>       0.01749271 </v>
   <v>       0.01749271 </v>
   <v>       0.00874636 </v>
   <v>       0.01749271 </v>
   <v>       0.00874636 </v>
   <v>       0.00291545 </v>
   <v>       0.00874636 </v>
   <v>       0.00874636 </v>
   <v>       0.00874636 </v>
   <v>       0.00874636 </v>
   <v>       0.00874636 </v>
   <v>       0.00874636 </v>
   <v>       0.01749271 </v>
   <v>       0.01749271 </v>
   <v>       0.01749271 </v>
   <v>       0.01749271 </v>
   <v>       0.00874636 </v>
   <v>       0.01749271 </v>
   <v>       0.01749271 </v>
   <v>       0.01749271 </v>
   <v>       0.00874636 </v>
   <v>       0.01749271 </v>
   <v>       0.01749271 </v>
   <v>       0.00874636 </v>
   <v>       0.01749271 </v>
   <v>       0.00874636 </v>
   <v>       0.00291545 </v>
   <v>       0.00874636 </v>
   <v>       0.00874636 </v>
   <v>       0.00874636 </v>
   <v>       0.00874636 </v>
   <v>       0.00874636 </v>
   <v>       0.01749271 </v>
   <v>       0.01749271 </v>
   <v>       0.01749271 </v>
   <v>       0.00874636 </v>
   <v>       0.01749271 </v>
   <v>       0.01749271 </v>
   <v>       0.00874636 </v>
   <v>       0.01749271 </v>
   <v>       0.00874636 </v>
   <v>       0.00291545 </v>
   <v>       0.00874636 </v>
   <v>       0.00874636 </v>
   <v>       0.00874636 </v>
   <v>       0.00874636 </v>
   <v>       0.01749271 </v>
   <v>       0.01749271 </v>
   <v>       0.00874636 </v>
   <v>       0.01749271 </v>
   <v>       0.00874636 </v>
   <v>       0.00291545 </v>
   <v>       0.00874636 </v>
   <v>       0.00874636 </v>
   <v>       0.00874636 </v>
   <v>       0.01749271 </v>
   <v>       0.00874636 </v>
   <v>       0.00291545 </v>
   <v>       0.00874636 </v>
   <v>       0.00874636 </v>
   <v>       0.00291545 </v>
  </varray>
 </kpoints>
 <parameters>
  <separator name="general" >
   <i type="string" name="SYSTEM">unknown system</i>
   <i type="logical" name="LCOMPAT"> F  </i>
  </separator>
  <separator name="electronic" >
   <i type="string" name="PREC">high</i>
   <i name="ENMAX">    875.00000000</i>
   <i name="ENAUG">    946.76800000</i>
   <i name="EDIFF">      0.00000001</i>
   <i type="int" name="IALGO">    38</i>
   <i type="int" name="IWAVPR">    11</i>
   <i type="int" name="NBANDS">    24</i>
   <i name="NELECT">     32.00000000</i>
   <i type="int" name="TURBO">     0</i>
   <i type="int" name="IRESTART">     0</i>
   <i type="int" name="NREBOOT">     0</i>
   <i type="int" name="NMIN">     0</i>
   <i name="EREF">      0.00000000</i>
   <separator name="electronic smearing" >
    <i type="int" name="ISMEAR">     0</i>
    <i name="SIGMA">      0.05000000</i>
    <i name="KSPACING">      0.50000000</i>
    <i type="logical" name="KGAMMA"> T  </i>
   </separator>
   <separator name="electronic projectors" >
    <i type="logical" name="LREAL"> F  </i>
    <v name="ROPT">      0.00000000</v>
    <i type="int" name="LMAXPAW">  -100</i>
    <i type="int" name="LMAXMIX">     2</i>
    <i type="logical" name="NLSPLINE"> F  </i>
   </separator>
   <separator name="electronic startup" >
    <i type="int" name="ISTART">     0</i>
    <i type="int" name="ICHARG">     2</i>
    <i type="int" name="INIWAV">     1</i>
   </separator>
   <separator name="electronic spin" >
    <i type="int" name="ISPIN">     1</i>
    <i type="logical" name="LNONCOLLINEAR"> F  </i>
    <v name="MAGMOM">      1.00000000      1.00000000      1.00000000      1.00000000      1.00000000      1.00000000      1.00000000      1.00000000</v>
    <i name="NUPDOWN">     -1.00000000</i>
    <i type="logical" name="LSORBIT"> F  </i>
    <v name="SAXIS">      0.00000000      0.00000000      1.00000000</v>
    <i type="logical" name="LSPIRAL"> F  </i>
    <v name="QSPIRAL">      0.00000000      0.00000000      0.00000000</v>
    <i type="logical" name="LZEROZ"> F  </i>
   </separator>
   <separator name="electronic exchange-correlation" >
    <i type="logical" name="LASPH"> F  </i>
    <i type="logical" name="LMETAGGA"> F  </i>
   </separator>
   <separator name="electronic convergence" >
    <i type="int" name="NELM">    40</i>
    <i type="int" name="NELMDL">    -5</i>
    <i type="int" name="NELMIN">     4</i>
    <i name="ENINI">    875.00000000</i>
    <separator name="electronic convergence detail" >
     <i type="logical" name="LDIAG"> T  </i>
     <i type="logical" name="LSUBROT"> F  </i>
     <i name="WEIMIN">      0.00100000</i>
     <i name="EBREAK">      0.00000000</i>
     <i name="DEPER">      0.30000000</i>
     <i type="int" name="NRMM">     4</i>
     <i name="TIME">      0.40000000</i>
    </separator>
   </separator>
   <separator name="electronic mixer" >
    <i name="AMIX">      0.40000000</i>
    <i name="BMIX">      1.00000000</i>
    <i name="AMIN">      0.10000000</i>
    <i name="AMIX_MAG">      1.60000000</i>
    <i name="BMIX_MAG">      1.00000000</i>
    <separator name="electronic mixer details" >
     <i type="int" name="IMIX">     4</i>
     <i type="logical" name="MIXFIRST"> F  </i>
     <i type="int" name="MAXMIX">   -45</i>
     <i name="WC">    100.00000000</i>
     <i type="int" name="INIMIX">     1</i>
     <i type="int" name="MIXPRE">     1</i>
     <i type="int" name="MREMOVE">     5</i>
    </separator>
   </separator>
   <separator name="electronic dipolcorrection" >
    <i type="logical" name="LDIPOL"> F  </i>
    <i type="logical" name="LMONO"> F  </i>
    <i type="int" name="IDIPOL">     0</i>
    <i name="EPSILON">      1.00000000</i>
    <v name="DIPOL">   -100.00000000   -100.00000000   -100.00000000</v>
    <i name="EFIELD">      0.00000000</i>
   </separator>
  </separator>
  <separator name="grids" >
   <i type="int" name="NGX">    36</i>
   <i type="int" name="NGY">    36</i>
   <i type="int" name="NGZ">    36</i>
   <i type="int" name="NGXF">    48</i>
   <i type="int" name="NGYF">    48</i>
   <i type="int" name="NGZF">    48</i>
   <i type="logical" name="ADDGRID"> T  </i>
  </separator>
  <separator name="ionic" >
   <i type="int" name="NSW">   100</i>
   <i type="int" name="IBRION">     2</i>
   <i type="int" name="MDALGO">     0</i>
   <i type="int" name="ISIF">     2</i>
   <i name="PSTRESS">      0.00000000</i>
   <i name="EDIFFG">     -0.01000000</i>
   <i type="int" name="NFREE">     1</i>
   <i name="POTIM">      0.50000000</i>
   <i name="SMASS">     -3.00000000</i>
   <i name="SCALEE">      1.00000000</i>
  </separator>
  <separator name="ionic md" >
   <i name="TEBEG">      0.00010000</i>
   <i name="TEEND">      0.00010000</i>
   <i type="int" name="NBLOCK">     1</i>
   <i type="int" name="KBLOCK">   100</i>
   <i type="int" name="NPACO">   256</i>
   <i name="APACO">     16.00000000</i>
  </separator>
  <separator name="symmetry" >
   <i type="int" name="ISYM">     2</i>
   <i name="SYMPREC">      0.00001000</i>
  </separator>
  <separator name="dos" >
   <i type="int" name="LORBIT">     0</i>
   <v name="RWIGS">     -1.00000000</v>
   <i type="int" name="NEDOS">   301</i>
   <i name="EMIN">     10.00000000</i>
   <i name="EMAX">    -10.00000000</i>
   <i name="EFERMI">      0.00000000</i>
  </separator>
  <separator name="writing" >
   <i type="int" name="NWRITE">     2</i>
   <i type="logical" name="LWAVE"> F  </i>
   <i type="logical" name="LDOWNSAMPLE"> F  </i>
   <i type="logical" name="LCHARG"> F  </i>
   <i type="logical" name="LPARD"> F  </i>
   <i type="logical" name="LVTOT"> F  </i>
   <i type="logical" name="LVHAR"> F  </i>
   <i type="logical" name="LELF"> F  </i>
   <i type="logical" name="LOPTICS"> F  </i>
   <v name="STM">      0.00000000      0.00000000      0.00000000      0.00000000      0.00000000      0.00000000      0.00000000</v>
  </separator>
  <separator name="performance" >
   <i type="int" name="NPAR">    24</i>
   <i type="int" name="NSIM">     4</i>
   <i type="int" name="NBLK">    -1</i>
   <i type="logical" name="LPLANE"> T  </i>
   <i type="logical" name="LSCALAPACK"> T  </i>
   <i type="logical" name="LSCAAWARE"> F  </i>
   <i type="logical" name="LSCALU"> F  </i>
   <i type="logical" name="LASYNC"> F  </i>
   <i type="logical" name="LORBITALREAL"> F  </i>
  </separator>
  <separator name="miscellaneous" >
   <i type="int" name="IDIOT">     3</i>
   <i type="int" name="ISPECIAL">     0</i>
   <i type="logical" name="LMUSIC"> F  </i>
   <v name="POMASS">     12.01100000</v>
   <v name="DARWINR">      0.00000000</v>
   <v name="DARWINV">      1.00000000</v>
   <i type="logical" name="LCORR"> T  </i>
  </separator>
  <i type="logical" name="GGA_COMPAT"> T  </i>
  <i type="logical" name="LBERRY"> F  </i>
  <i type="int" name="ICORELEVEL">     0</i>
  <i type="logical" name="LDAU"> F  </i>
  <i type="int" name="I_CONSTRAINED_M">     0</i>
  <separator name="electronic exchange-correlation" >
   <i type="string" name="GGA">--</i>
   <i type="int" name="VOSKOWN">     0</i>
   <i type="logical" name="LHFCALC"> F  </i>
   <i type="string" name="PRECFOCK"></i>
   <i type="logical" name="LSYMGRAD"> F  </i>
   <i type="logical" name="LHFONE"> F  </i>
   <i type="logical" name="LRHFCALC"> F  </i>
   <i type="logical" name="LTHOMAS"> F  </i>
   <i type="logical" name="LMODELHF"> F  </i>
   <i name="ENCUT4O">     -1.00000000</i>
   <i type="int" name="EXXOEP">     0</i>
   <i type="int" name="FOURORBIT">     0</i>
   <i name="AEXX">      0.00000000</i>
   <i name="HFALPHA">      0.00000000</i>
   <i name="MCALPHA">      0.00000000</i>
   <i name="ALDAX">      1.00000000</i>
   <i name="AGGAX">      1.00000000</i>
   <i name="ALDAC">      1.00000000</i>
   <i name="AGGAC">      1.00000000</i>
   <i type="int" name="NKREDX">     1</i>
   <i type="int" name="NKREDY">     1</i>
   <i type="int" name="NKREDZ">     1</i>
   <i type="logical" name="SHIFTRED"> F  </i>
   <i type="logical" name="ODDONLY"> F  </i>
   <i type="logical" name="EVENONLY"> F  </i>
   <i type="int" name="LMAXFOCK">     0</i>
   <i type="int" name="NMAXFOCKAE">     0</i>
   <i type="logical" name="LFOCKAEDFT"> F  </i>
   <i name="HFSCREEN">      0.00000000</i>
   <i name="HFSCREENC">      0.00000000</i>
   <i type="int" name="NBANDSGWLOW">     0</i>
  </separator>
  <separator name="vdW DFT" >
   <i type="logical" name="LUSE_VDW"> F  </i>
   <i name="Zab_VDW">     -0.84910000</i>
   <i name="PARAM1">      0.12340000</i>
   <i name="PARAM2">      1.00000000</i>
   <i name="PARAM3">      0.00000000</i>
  </separator>
  <separator name="model GW" >
   <i type="int" name="MODEL_GW">     0</i>
   <i name="MODEL_EPS0">      3.38868134</i>
   <i name="MODEL_ALPHA">      1.00000000</i>
  </separator>
  <separator name="linear response parameters" >
   <i type="logical" name="LEPSILON"> F  </i>
   <i type="logical" name="LRPA"> F  </i>
   <i type="logical" name="LNABLA"> F  </i>
   <i type="logical" name="LVEL"> F  </i>
   <i type="int" name="KINTER">     0</i>
   <i name="CSHIFT">      0.10000000</i>
   <i name="OMEGAMAX">     -1.00000000</i>
   <i name="DEG_THRESHOLD">      0.00200000</i>
   <i name="RTIME">     -0.10000000</i>
   <i name="WPLASMAI">      0.00000000</i>
   <v name="DFIELD">      0.00000000      0.00000000      0.00000000</v>
   <v name="WPLASMA">      0.00000000      0.00000000      0.00000000      0.00000000      0.00000000      0.00000000      0.00000000      0.00000000      0.00000000</v>
  </separator>
  <separator name="orbital magnetization" >
   <i type="logical" name="NUCIND"> F  </i>
   <v name="MAGPOS">      0.00000000      0.00000000      0.00000000</v>
   <i type="logical" name="LNICSALL"> T  </i>
   <i type="logical" name="ORBITALMAG"> F  </i>
   <i type="logical" name="LMAGBLOCH"> F  </i>
   <i type="logical" name="LCHIMAG"> F  </i>
   <i type="logical" name="LGAUGE"> T  </i>
   <i type="int" name="MAGATOM">     0</i>
   <v name="MAGDIPOL">      0.00000000      0.00000000      0.00000000</v>
   <v name="AVECCONST">      0.00000000      0.00000000      0.00000000</v>
  </separator>
  <separator name="response functions" >
   <i type="logical" name="LADDER"> F  </i>
   <i type="logical" name="LRPAFORCE"> F  </i>
   <i type="logical" name="LFXC"> F  </i>
   <i type="logical" name="LHARTREE"> T  </i>
   <i type="int" name="IBSE">     0</i>
   <v type="int" name="KPOINT">    -1     0     0     0</v>
   <i type="logical" name="LTCTE"> F  </i>
   <i type="logical" name="LTETE"> F  </i>
   <i type="logical" name="LTRIPLET"> F  </i>
   <i type="logical" name="LFXCEPS"> F  </i>
   <i type="logical" name="LFXHEG"> F  </i>
   <i type="int" name="NATURALO">     2</i>
   <i type="logical" name="L2ORDER"> F  </i>
   <i type="logical" name="LMP2LT"> F  </i>
   <i type="logical" name="LUSEW"> F  </i>
   <i name="ENCUTGW">     -2.00000000</i>
   <i name="ENCUTGWSOFT">     -2.00000000</i>
   <i name="ENCUTLF">     -1.00000000</i>
   <i type="int" name="LMAXMP2">    -1</i>
   <i name="SCISSOR">      0.00000000</i>
   <i type="int" name="NOMEGA">     0</i>
   <i type="int" name="NOMEGAR">     0</i>
   <i type="int" name="NBANDSGW">    -1</i>
   <i type="int" name="NBANDSO">    -1</i>
   <i type="int" name="NBANDSV">    -1</i>
   <i type="int" name="NELM">    40</i>
   <i type="int" name="NELMHF">     1</i>
   <i type="int" name="DIM">     3</i>
   <i type="int" name="ANTIRES">     0</i>
   <i name="OMEGAMAX">    -30.00000000</i>
   <i name="OMEGAMIN">    -30.00000000</i>
   <i name="OMEGATL">   -200.00000000</i>
   <i type="int" name="OMEGAGRID">   140</i>
   <i name="CSHIFT">     -0.10000000</i>
   <i type="logical" name="SELFENERGY"> F  </i>
   <i type="logical" name="LSPECTRAL"> F  </i>
   <i type="logical" name="LSPECTRALGW"> F  </i>
   <i type="logical" name="LSINGLES"> F  </i>
   <i type="logical" name="LFERMIGW"> F  </i>
   <i type="logical" name="ODDONLYGW"> F  </i>
   <i type="logical" name="EVENONLYGW"> F  </i>
   <i type="int" name="NKREDLFX">     1</i>
   <i type="int" name="NKREDLFY">     1</i>
   <i type="int" name="NKREDLFZ">     1</i>
   <i type="int" name="MAXMEM">  2800</i>
   <i type="int" name="TELESCOPE">     0</i>
   <i type="int" name="TAUPAR">     1</i>
   <i type="int" name="OMEGAPAR">    -1</i>
   <i name="LAMBDA">      1.00000000</i>
  </separator>
  <separator name="External order field" >
   <i name="OFIELD_KAPPA">      0.00000000</i>
   <v name="OFIELD_K">      0.00000000      0.00000000      0.00000000</v>
   <i name="OFIELD_Q6_NEAR">      0.00000000</i>
   <i name="OFIELD_Q6_FAR">      0.00000000</i>
   <i name="OFIELD_A">      0.00000000</i>
  </separator>
 </parameters>
 <atominfo>
  <atoms>       8 </atoms>
  <types>       1 </types>
  <array name="atoms" >
   <dimension dim="1">ion</dimension>
   <field type="string">element</field>
   <field type="int">atomtype</field>
   <set>
    <rc><c>C </c><c>   1</c></rc>
    <rc><c>C </c><c>   1</c></rc>
    <rc><c>C </c><c>   1</c></rc>
    <rc><c>C </c><c>   1</c></rc>
    <rc><c>C </c><c>   1</c></rc>
    <rc><c>C </c><c>   1</c></rc>
    <rc><c>C </c><c>   1</c></rc>
    <rc><c>C </c><c>   1</c></rc>
   </set>
  </array>
  <array name="atomtypes" >
   <dimension dim="1">type</dimension>
   <field type="int">atomspertype</field>
   <field type="string">element</field>
   <field>mass</field>
   <field>valence</field>
   <field type="string">pseudopotential</field>
   <set>
    <rc><c>   8</c><c>C </c><c>     12.01100000</c><c>      4.00000000</c><c>  PAW_PBE C_h 06Feb2004                 </c></rc>
   </set>
  </array>
 </atominfo>
 <structure name="initialpos" >
  <crystal>
   <varray name="basis" >
    <v>       3.56169305       0.00000000       0.00000000 </v>
    <v>       0.00000000       3.56169305       0.00000000 </v>
    <v>       0.00000000       0.00000000       3.56169305 </v>
   </varray>
   <i name="volume">     45.18241789 </i>
   <varray name="rec_basis" >
    <v>       0.28076535       0.00000000       0.00000000 </v>
    <v>       0.00000000       0.28076535       0.00000000 </v>
    <v>       0.00000000       0.00000000       0.28076535 </v>
   </varray>
  </crystal>
  <varray name="positions" >
   <v>       0.25000000       0.25000000       0.25000000 </v>
   <v>       0.00000000       0.00000000       0.00000000 </v>
   <v>       0.25000000       0.75000000       0.75000000 </v>
   <v>       0.00000000       0.50000000       0.50000000 </v>
   <v>       0.75000000       0.25000000       0.75000000 </v>
   <v>       0.50000000       0.00000000       0.50000000 </v>
   <v>       0.75000000       0.75000000       0.25000000 </v>
   <v>       0.50000000       0.50000000       0.00000000 </v>
  </varray>
 </structure>
 <calculation>
  <scstep>
   <time name="dav">    1.35    1.49</time>
   <time name="total">    1.38    1.56</time>
   <energy>
    <i name="alphaZ">     77.65249803 </i>
    <i name="ewald">  -1393.83149091 </i>
    <i name="hartreedc">    -69.60382104 </i>
    <i name="XCdc">     62.29508544 </i>
    <i name="pawpsdc">    914.77613359 </i>
    <i name="pawaedc">   -872.73161751 </i>
    <i name="eentropy">     -0.00039390 </i>
    <i name="bandstr">    206.84842695 </i>
    <i name="atom">   1177.21277265 </i>
    <i name="e_fr_energy">    102.61759331 </i>
    <i name="e_wo_entrp">    102.61798721 </i>
    <i name="e_0_energy">    102.61779026 </i>
   </energy>
  </scstep>
  <scstep>
   <time name="dav">    2.27    2.30</time>
   <time name="total">    2.27    2.30</time>
   <energy>
    <i name="e_fr_energy">    -72.52782510 </i>
    <i name="e_wo_entrp">    -72.52782510 </i>
    <i name="e_0_energy">    -72.52782510 </i>
   </energy>
  </scstep>
  <scstep>
   <time name="dav">    1.57    1.59</time>
   <time name="total">    1.57    1.59</time>
   <energy>
    <i name="e_fr_energy">    -75.33580142 </i>
    <i name="e_wo_entrp">    -75.33580142 </i>
    <i name="e_0_energy">    -75.33580142 </i>
   </energy>
  </scstep>
  <scstep>
   <time name="dav">    2.86    2.88</time>
   <time name="total">    2.86    2.88</time>
   <energy>
    <i name="e_fr_energy">    -75.35496677 </i>
    <i name="e_wo_entrp">    -75.35496677 </i>
    <i name="e_0_energy">    -75.35496677 </i>
   </energy>
  </scstep>
  <scstep>
   <time name="dav">    1.54    1.55</time>
   <time name="total">    1.62    1.68</time>
   <energy>
    <i name="e_fr_energy">    -75.35496943 </i>
    <i name="e_wo_entrp">    -75.35496943 </i>
    <i name="e_0_energy">    -75.35496943 </i>
   </energy>
  </scstep>
  <scstep>
   <time name="dav">    1.59    1.60</time>
   <time name="total">    1.68    1.71</time>
   <energy>
    <i name="e_fr_energy">    -73.47245277 </i>
    <i name="e_wo_entrp">    -73.47245277 </i>
    <i name="e_0_energy">    -73.47245277 </i>
   </energy>
  </scstep>
  <scstep>
   <time name="dav">    1.95    1.96</time>
   <time name="total">    2.04    2.05</time>
   <energy>
    <i name="e_fr_energy">    -72.84201305 </i>
    <i name="e_wo_entrp">    -72.84201305 </i>
    <i name="e_0_energy">    -72.84201305 </i>
   </energy>
  </scstep>
  <scstep>
   <time name="dav">    2.50    2.50</time>
   <time name="total">    2.58    2.60</time>
   <energy>
    <i name="e_fr_energy">    -72.84030486 </i>
    <i name="e_wo_entrp">    -72.84030486 </i>
    <i name="e_0_energy">    -72.84030486 </i>
   </energy>
  </scstep>
  <scstep>
   <time name="dav">    1.98    1.98</time>
   <time name="total">    2.06    2.07</time>
   <energy>
    <i name="e_fr_energy">    -72.84047459 </i>
    <i name="e_wo_entrp">    -72.84047459 </i>
    <i name="e_0_energy">    -72.84047459 </i>
   </energy>
  </scstep>
  <scstep>
   <time name="dav">    2.41    2.41</time>
   <time name="total">    2.49    2.51</time>
   <energy>
    <i name="e_fr_energy">    -72.84059668 </i>
    <i name="e_wo_entrp">    -72.84059668 </i>
    <i name="e_0_energy">    -72.84059668 </i>
   </energy>
  </scstep>
  <scstep>
   <time name="dav">    2.14    2.14</time>
   <time name="total">    2.22    2.23</time>
   <energy>
    <i name="e_fr_energy">    -72.84059783 </i>
    <i name="e_wo_entrp">    -72.84059783 </i>
    <i name="e_0_energy">    -72.84059783 </i>
   </energy>
  </scstep>
  <scstep>
   <time name="dav">    2.38    2.39</time>
   <time name="total">    2.47    2.48</time>
   <energy>
    <i name="e_fr_energy">    -72.84059818 </i>
    <i name="e_wo_entrp">    -72.84059818 </i>
    <i name="e_0_energy">    -72.84059818 </i>
   </energy>
  </scstep>
  <scstep>
   <time name="dav">    2.18    2.18</time>
   <time name="total">    2.19    2.20</time>
   <energy>
    <i name="alphaZ">     77.65249803 </i>
    <i name="ewald">  -1393.83149091 </i>
    <i name="hartreedc">   -105.01632597 </i>
    <i name="XCdc">     65.34834902 </i>
    <i name="pawpsdc">  14830.18043121 </i>
    <i name="pawaedc"> -14788.67319583 </i>
    <i name="eentropy">     -0.00000000 </i>
    <i name="bandstr">     64.28636360 </i>
    <i name="atom">   1177.21277265 </i>
    <i name="e_fr_energy">    -72.84059819 </i>
    <i name="e_wo_entrp">    -72.84059819 </i>
    <i name="e_0_energy">    -72.84059819 </i>
   </energy>
  </scstep>
  <structure>
   <crystal>
    <varray name="basis" >
     <v>       3.56169305       0.00000000       0.00000000 </v>
     <v>       0.00000000       3.56169305       0.00000000 </v>
     <v>       0.00000000       0.00000000       3.56169305 </v>
    </varray>
    <i name="volume">     45.18241789 </i>
    <varray name="rec_basis" >
     <v>       0.28076535       0.00000000       0.00000000 </v>
     <v>       0.00000000       0.28076535       0.00000000 </v>
     <v>       0.00000000       0.00000000       0.28076535 </v>
    </varray>
   </crystal>
   <varray name="positions" >
    <v>       0.25000000       0.25000000       0.25000000 </v>
    <v>       0.00000000       0.00000000       0.00000000 </v>
    <v>       0.25000000       0.75000000       0.75000000 </v>
    <v>       0.00000000       0.50000000       0.50000000 </v>
    <v>       0.75000000       0.25000000       0.75000000 </v>
    <v>       0.50000000       0.00000000       0.50000000 </v>
    <v>       0.75000000       0.75000000       0.25000000 </v>
    <v>       0.50000000       0.50000000       0.00000000 </v>
   </varray>
  </structure>
  <varray name="forces" >
   <v>       0.00000000       0.00000000       0.00000000 </v>
   <v>       0.00000000      -0.00000000      -0.00000000 </v>
   <v>       0.00000000      -0.00000000       0.00000000 </v>
   <v>      -0.00000000       0.00000000      -0.00000000 </v>
   <v>       0.00000000      -0.00000000       0.00000000 </v>
   <v>      -0.00000000       0.00000000      -0.00000000 </v>
   <v>      -0.00000000       0.00000000       0.00000000 </v>
   <v>      -0.00000000      -0.00000000      -0.00000000 </v>
  </varray>
  <varray name="stress" >
   <v>      30.19414727       0.00000000       0.00000000 </v>
   <v>       0.00000000      30.19414727       0.00000000 </v>
   <v>      -0.00000000       0.00000000      30.19414727 </v>
  </varray>
  <energy>
   <i name="e_fr_energy">    -72.84059819 </i>
   <i name="e_wo_entrp">    -72.84059819 </i>
   <i name="e_0_energy">     -0.00000000 </i>
  </energy>
  <time name="totalsc">   29.02   29.52</time>
  <eigenvalues>
   <array>
    <dimension dim="1">band</dimension>
    <dimension dim="2">kpoint</dimension>
    <dimension dim="3">spin</dimension>
    <field>eigene</field>
    <field>occ</field>
    <set>
     <set comment="spin 1">
      <set comment="kpoint 1">
       <r>  -10.4879    1.0000 </r>
       <r>   -2.3367    1.0000 </r>
       <r>   -2.3367    1.0000 </r>
       <r>   -2.3367    1.0000 </r>
       <r>   -1.1928    1.0000 </r>
       <r>   -1.1928    1.0000 </r>
       <r>   -1.1928    1.0000 </r>
       <r>    4.5719    1.0000 </r>
       <r>    4.5719    1.0000 </r>
       <r>    4.5719    1.0000 </r>
       <r>    4.7166    1.0000 </r>
       <r>    4.7166    1.0000 </r>
       <r>    4.7166    1.0000 </r>
       <r>   10.7517    1.0000 </r>
       <r>   10.9426    1.0000 </r>
       <r>   10.9426    1.0000 </r>
       <r>   15.7006    0.0000 </r>
       <r>   15.7006    0.0000 </r>
       <r>   15.7006    0.0000 </r>
       <r>   16.0840    0.0000 </r>
       <r>   16.0840    0.0000 </r>
       <r>   16.0840    0.0000 </r>
       <r>   16.7045    0.0000 </r>
       <r>   16.7045    0.0000 </r>
      </set>
      <set comment="kpoint 2">
       <r>  -10.3935    1.0000 </r>
       <r>   -3.4313    1.0000 </r>
       <r>   -2.2714    1.0000 </r>
       <r>   -2.2714    1.0000 </r>
       <r>   -1.1405    1.0000 </r>
       <r>   -1.1405    1.0000 </r>
       <r>   -0.0125    1.0000 </r>
       <r>    4.2441    1.0000 </r>
       <r>    4.2441    1.0000 </r>
       <r>    4.6517    1.0000 </r>
       <r>    4.6517    1.0000 </r>
       <r>    4.6674    1.0000 </r>
       <r>    4.8085    1.0000 </r>
       <r>   10.2957    1.0000 </r>
       <r>   10.5776    1.0000 </r>
       <r>   10.8271    1.0000 </r>
       <r>   15.4666    0.0000 </r>
       <r>   15.9887    0.0000 </r>
       <r>   15.9887    0.0000 </r>
       <r>   16.5375    0.0000 </r>
       <r>   16.5500    0.0000 </r>
       <r>   16.5500    0.0000 </r>
       <r>   16.6354    0.0000 </r>
       <r>   17.1495    0.0000 </r>
      </set>
      <set comment="kpoint 3">
       <r>  -10.2048    1.0000 </r>
       <r>   -4.4665    1.0000 </r>
       <r>   -2.1454    1.0000 </r>
       <r>   -2.1454    1.0000 </r>
       <r>   -1.0427    1.0000 </r>
       <r>   -1.0427    1.0000 </r>
       <r>    1.1894    1.0000 </r>
       <r>    3.7989    1.0000 </r>
       <r>    3.7989    1.0000 </r>
       <r>    4.4057    1.0000 </r>
       <r>    4.4057    1.0000 </r>
       <r>    4.8583    1.0000 </r>
       <r>    4.9917    1.0000 </r>
       <r>    9.6593    1.0000 </r>
       <r>    9.9792    1.0000 </r>
       <r>   10.4506    1.0000 </r>
       <r>   15.3194    0.0000 </r>
       <r>   16.4971    0.0000 </r>
       <r>   16.6012    0.0000 </r>
       <r>   16.6012    0.0000 </r>
       <r>   17.1235    0.0000 </r>
       <r>   17.3513    0.0000 </r>
       <r>   17.3513    0.0000 </r>
       <r>   17.9076    0.0000 </r>
      </set>
      <set comment="kpoint 4">
       <r>   -9.9225    1.0000 </r>
       <r>   -5.4345    1.0000 </r>
       <r>   -1.9692    1.0000 </r>
       <r>   -1.9692    1.0000 </r>
       <r>   -0.9147    1.0000 </r>
       <r>   -0.9147    1.0000 </r>
       <r>    2.3941    1.0000 </r>
       <r>    3.3154    1.0000 </r>
       <r>    3.3154    1.0000 </r>
       <r>    4.0467    1.0000 </r>
       <r>    4.0467    1.0000 </r>
       <r>    5.1458    1.0000 </r>
       <r>    5.2649    1.0000 </r>
       <r>    8.9349    1.0000 </r>
       <r>    9.2775    1.0000 </r>
       <r>    9.8697    1.0000 </r>
       <r>   15.2571    0.0000 </r>
       <r>   16.3106    0.0000 </r>
       <r>   17.4935    0.0000 </r>
       <r>   17.4935    0.0000 </r>
       <r>   17.8424    0.0000 </r>
       <r>   18.3871    0.0000 </r>
       <r>   18.3871    0.0000 </r>
       <r>   18.8429    0.0000 </r>
      </set>
      <set comment="kpoint 5">
       <r>   -9.5472    1.0000 </r>
       <r>   -6.3286    1.0000 </r>
       <r>   -1.7630    1.0000 </r>
       <r>   -1.7630    1.0000 </r>
       <r>   -0.7825    1.0000 </r>
       <r>   -0.7825    1.0000 </r>
       <r>    2.8706    1.0000 </r>
       <r>    2.8706    1.0000 </r>
       <r>    3.5789    1.0000 </r>
       <r>    3.6559    1.0000 </r>
       <r>    3.6559    1.0000 </r>
       <r>    5.5328    1.0000 </r>
       <r>    5.6256    1.0000 </r>
       <r>    8.1806    1.0000 </r>
       <r>    8.5524    1.0000 </r>
       <r>    9.1377    1.0000 </r>
       <r>   15.2711    0.0000 </r>
       <r>   16.0967    0.0000 </r>
       <r>   18.5903    0.0000 </r>
       <r>   18.5903    0.0000 </r>
       <r>   18.6972    0.0000 </r>
       <r>   19.5742    0.0000 </r>
       <r>   19.5743    0.0000 </r>
       <r>   19.8743    0.0000 </r>
      </set>
      <set comment="kpoint 6">
       <r>   -9.0800    1.0000 </r>
       <r>   -7.1438    1.0000 </r>
       <r>   -1.5637    1.0000 </r>
       <r>   -1.5637    1.0000 </r>
       <r>   -0.6801    1.0000 </r>
       <r>   -0.6801    1.0000 </r>
       <r>    2.5349    1.0000 </r>
       <r>    2.5349    1.0000 </r>
       <r>    3.3161    1.0000 </r>
       <r>    3.3161    1.0000 </r>
       <r>    4.7118    1.0000 </r>
       <r>    6.0292    1.0000 </r>
       <r>    6.0703    1.0000 </r>
       <r>    7.4197    1.0000 </r>
       <r>    7.8481    1.0000 </r>
       <r>    8.3052    1.0000 </r>
       <r>   15.3515    0.0000 </r>
       <r>   15.8758    0.0000 </r>
       <r>   19.6839    0.0000 </r>
       <r>   19.8039    0.0000 </r>
       <r>   19.8039    0.0000 </r>
       <r>   20.8139    0.0000 </r>
       <r>   20.8924    0.0000 </r>
       <r>   20.9564    0.0000 </r>
      </set>
      <set comment="kpoint 7">
       <r>   -8.5223    1.0000 </r>
       <r>   -7.8761    1.0000 </r>
       <r>   -1.4319    1.0000 </r>
       <r>   -1.4319    1.0000 </r>
       <r>   -0.6309    1.0000 </r>
       <r>   -0.6309    1.0000 </r>
       <r>    2.3587    1.0000 </r>
       <r>    2.3587    1.0000 </r>
       <r>    3.1126    1.0000 </r>
       <r>    3.1126    1.0000 </r>
       <r>    5.7440    1.0000 </r>
       <r>    6.5941    1.0000 </r>
       <r>    6.6322    1.0000 </r>
       <r>    6.6595    1.0000 </r>
       <r>    7.1901    1.0000 </r>
       <r>    7.4423    1.0000 </r>
       <r>   15.4876    0.0000 </r>
       <r>   15.6672    0.0000 </r>
       <r>   20.7822    0.0000 </r>
       <r>   20.9665    0.0000 </r>
       <r>   20.9665    0.0000 </r>
       <r>   21.7825    0.0000 </r>
       <r>   21.7841    0.0000 </r>
       <r>   21.9645    0.0000 </r>
      </set>
      <set comment="kpoint 8">
       <r>  -10.2991    1.0000 </r>
       <r>   -3.3570    1.0000 </r>
       <r>   -3.3570    1.0000 </r>
       <r>   -2.2121    1.0000 </r>
       <r>   -1.0922    1.0000 </r>
       <r>    0.0182    1.0000 </r>
       <r>    0.0182    1.0000 </r>
       <r>    3.7185    1.0000 </r>
       <r>    4.3477    1.0000 </r>
       <r>    4.3477    1.0000 </r>
       <r>    4.7481    1.0000 </r>
       <r>    4.7481    1.0000 </r>
       <r>    4.8738    1.0000 </r>
       <r>    9.7430    1.0000 </r>
       <r>   10.2977    1.0000 </r>
       <r>   10.8306    1.0000 </r>
       <r>   15.8146    0.0000 </r>
       <r>   15.8146    0.0000 </r>
       <r>   15.9456    0.0000 </r>
       <r>   16.8890    0.0000 </r>
       <r>   16.9396    0.0000 </r>
       <r>   16.9396    0.0000 </r>
       <r>   17.2628    0.0000 </r>
       <r>   17.2655    0.0000 </r>
      </set>
      <set comment="kpoint 9">
       <r>  -10.1107    1.0000 </r>
       <r>   -4.3863    1.0000 </r>
       <r>   -3.2112    1.0000 </r>
       <r>   -2.1015    1.0000 </r>
       <r>   -1.0024    1.0000 </r>
       <r>    0.0678    1.0000 </r>
       <r>    1.1849    1.0000 </r>
       <r>    3.1543    1.0000 </r>
       <r>    3.9125    1.0000 </r>
       <r>    4.5203    1.0000 </r>
       <r>    4.5564    1.0000 </r>
       <r>    4.8872    1.0000 </r>
       <r>    4.9428    1.0000 </r>
       <r>    9.0548    1.0000 </r>
       <r>    9.7300    1.0000 </r>
       <r>   10.6136    1.0000 </r>
       <r>   15.6885    0.0000 </r>
       <r>   16.2597    0.0000 </r>
       <r>   16.4814    0.0000 </r>
       <r>   16.8507    0.0000 </r>
       <r>   17.4968    0.0000 </r>
       <r>   17.6786    0.0000 </r>
       <r>   17.9076    0.0000 </r>
       <r>   18.0899    0.0000 </r>
      </set>
      <set comment="kpoint 10">
       <r>   -9.8286    1.0000 </r>
       <r>   -5.3501    1.0000 </r>
       <r>   -3.0001    1.0000 </r>
       <r>   -1.9604    1.0000 </r>
       <r>   -0.8844    1.0000 </r>
       <r>    0.1101    1.0000 </r>
       <r>    2.3302    1.0000 </r>
       <r>    2.6336    1.0000 </r>
       <r>    3.4363    1.0000 </r>
       <r>    4.2029    1.0000 </r>
       <r>    4.7204    1.0000 </r>
       <r>    4.8729    1.0000 </r>
       <r>    5.2416    1.0000 </r>
       <r>    8.3069    1.0000 </r>
       <r>    9.0485    1.0000 </r>
       <r>   10.1513    1.0000 </r>
       <r>   15.6372    0.0000 </r>
       <r>   16.6837    0.0000 </r>
       <r>   16.9191    0.0000 </r>
       <r>   17.4105    0.0000 </r>
       <r>   18.1931    0.0000 </r>
       <r>   18.6638    0.0000 </r>
       <r>   18.8201    0.0000 </r>
       <r>   18.8739    0.0000 </r>
      </set>
      <set comment="kpoint 11">
       <r>   -9.4538    1.0000 </r>
       <r>   -6.2414    1.0000 </r>
       <r>   -2.7351    1.0000 </r>
       <r>   -1.8325    1.0000 </r>
       <r>   -0.7499    1.0000 </r>
       <r>    0.1055    1.0000 </r>
       <r>    2.2390    1.0000 </r>
       <r>    2.9812    1.0000 </r>
       <r>    3.4138    1.0000 </r>
       <r>    3.8957    1.0000 </r>
       <r>    4.4405    1.0000 </r>
       <r>    5.2949    1.0000 </r>
       <r>    5.6629    1.0000 </r>
       <r>    7.5426    1.0000 </r>
       <r>    8.3360    1.0000 </r>
       <r>    9.4977    1.0000 </r>
       <r>   15.6575    0.0000 </r>
       <r>   16.4786    0.0000 </r>
       <r>   17.8526    0.0000 </r>
       <r>   18.5323    0.0000 </r>
       <r>   19.0263    0.0000 </r>
       <r>   19.7850    0.0000 </r>
       <r>   19.7983    0.0000 </r>
       <r>   19.8481    0.0000 </r>
      </set>
      <set comment="kpoint 12">
       <r>   -8.9872    1.0000 </r>
       <r>   -7.0545    1.0000 </r>
       <r>   -2.4366    1.0000 </r>
       <r>   -1.7928    1.0000 </r>
       <r>   -0.5905    1.0000 </r>
       <r>    0.0153    1.0000 </r>
       <r>    2.0411    1.0000 </r>
       <r>    2.5834    1.0000 </r>
       <r>    3.7023    1.0000 </r>
       <r>    4.1251    1.0000 </r>
       <r>    4.3910    1.0000 </r>
       <r>    5.8016    1.0000 </r>
       <r>    6.2453    1.0000 </r>
       <r>    6.7826    1.0000 </r>
       <r>    7.6372    1.0000 </r>
       <r>    8.7125    1.0000 </r>
       <r>   15.7414    0.0000 </r>
       <r>   16.2630    0.0000 </r>
       <r>   18.9691    0.0000 </r>
       <r>   19.7657    0.0000 </r>
       <r>   19.9905    0.0000 </r>
       <r>   20.7703    0.0000 </r>
       <r>   20.9259    0.0000 </r>
       <r>   20.9335    0.0000 </r>
      </set>
      <set comment="kpoint 13">
       <r>   -8.4304    1.0000 </r>
       <r>   -7.7853    1.0000 </r>
       <r>   -2.1399    1.0000 </r>
       <r>   -1.9023    1.0000 </r>
       <r>   -0.3872    1.0000 </r>
       <r>   -0.1644    1.0000 </r>
       <r>    2.0628    1.0000 </r>
       <r>    2.2641    1.0000 </r>
       <r>    3.6898    1.0000 </r>
       <r>    3.8505    1.0000 </r>
       <r>    5.2476    1.0000 </r>
       <r>    6.0266    1.0000 </r>
       <r>    6.3639    1.0000 </r>
       <r>    6.9762    1.0000 </r>
       <r>    7.0005    1.0000 </r>
       <r>    7.8552    1.0000 </r>
       <r>   15.8788    0.0000 </r>
       <r>   16.0574    0.0000 </r>
       <r>   20.1452    0.0000 </r>
       <r>   20.8261    0.0000 </r>
       <r>   21.0646    0.0000 </r>
       <r>   21.4920    0.0000 </r>
       <r>   21.7925    0.0000 </r>
       <r>   22.0382    0.0000 </r>
      </set>
      <set comment="kpoint 14">
       <r>   -9.9226    1.0000 </r>
       <r>   -4.2276    1.0000 </r>
       <r>   -4.2276    1.0000 </r>
       <r>   -2.0318    1.0000 </r>
       <r>   -0.9270    1.0000 </r>
       <r>    1.1569    1.0000 </r>
       <r>    1.1569    1.0000 </r>
       <r>    2.5510    1.0000 </r>
       <r>    4.1393    1.0000 </r>
       <r>    4.1393    1.0000 </r>
       <r>    4.7605    1.0000 </r>
       <r>    4.7605    1.0000 </r>
       <r>    5.1832    1.0000 </r>
       <r>    8.3387    1.0000 </r>
       <r>    9.1953    1.0000 </r>
       <r>   10.5956    1.0000 </r>
       <r>   16.2621    0.0000 </r>
       <r>   16.3834    0.0000 </r>
       <r>   16.3834    0.0000 </r>
       <r>   17.2576    0.0000 </r>
       <r>   18.1043    0.0000 </r>
       <r>   18.1914    0.0000 </r>
       <r>   18.1914    0.0000 </r>
       <r>   18.4427    0.0000 </r>
      </set>
      <set comment="kpoint 15">
       <r>   -9.6412    1.0000 </r>
       <r>   -5.1827    1.0000 </r>
       <r>   -3.9945    1.0000 </r>
       <r>   -1.9817    1.0000 </r>
       <r>   -0.8184    1.0000 </r>
       <r>    1.0699    1.0000 </r>
       <r>    2.0766    1.0000 </r>
       <r>    2.1804    1.0000 </r>
       <r>    3.6681    1.0000 </r>
       <r>    4.4723    1.0000 </r>
       <r>    4.5410    1.0000 </r>
       <r>    5.1530    1.0000 </r>
       <r>    5.2707    1.0000 </r>
       <r>    7.5820    1.0000 </r>
       <r>    8.5406    1.0000 </r>
       <r>   10.3111    1.0000 </r>
       <r>   16.3467    0.0000 </r>
       <r>   16.6381    0.0000 </r>
       <r>   17.2889    0.0000 </r>
       <r>   17.3366    0.0000 </r>
       <r>   18.8281    0.0000 </r>
       <r>   18.8484    0.0000 </r>
       <r>   18.9792    0.0000 </r>
       <r>   19.1238    0.0000 </r>
      </set>
      <set comment="kpoint 16">
       <r>   -9.2673    1.0000 </r>
       <r>   -6.0678    1.0000 </r>
       <r>   -3.6940    1.0000 </r>
       <r>   -2.0283    1.0000 </r>
       <r>   -0.6581    1.0000 </r>
       <r>    0.8878    1.0000 </r>
       <r>    1.8105    1.0000 </r>
       <r>    3.0965    1.0000 </r>
       <r>    3.1858    1.0000 </r>
       <r>    4.3924    1.0000 </r>
       <r>    4.8917    1.0000 </r>
       <r>    5.1791    1.0000 </r>
       <r>    5.7318    1.0000 </r>
       <r>    6.8209    1.0000 </r>
       <r>    7.8487    1.0000 </r>
       <r>    9.7868    1.0000 </r>
       <r>   16.3740    0.0000 </r>
       <r>   17.1420    0.0000 </r>
       <r>   17.3488    0.0000 </r>
       <r>   18.4762    0.0000 </r>
       <r>   19.6408    0.0000 </r>
       <r>   19.6689    0.0000 </r>
       <r>   19.8181    0.0000 </r>
       <r>   20.1786    0.0000 </r>
      </set>
      <set comment="kpoint 17">
       <r>   -8.8020    1.0000 </r>
       <r>   -6.8766    1.0000 </r>
       <r>   -3.3382    1.0000 </r>
       <r>   -2.2292    1.0000 </r>
       <r>   -0.4174    1.0000 </r>
       <r>    0.6050    1.0000 </r>
       <r>    1.7862    1.0000 </r>
       <r>    2.7196    1.0000 </r>
       <r>    3.9002    1.0000 </r>
       <r>    4.3822    1.0000 </r>
       <r>    4.9733    1.0000 </r>
       <r>    5.3767    1.0000 </r>
       <r>    6.0747    1.0000 </r>
       <r>    6.4912    1.0000 </r>
       <r>    7.1660    1.0000 </r>
       <r>    9.0787    1.0000 </r>
       <r>   16.4594    0.0000 </r>
       <r>   16.9533    0.0000 </r>
       <r>   18.3138    0.0000 </r>
       <r>   19.7228    0.0000 </r>
       <r>   20.4680    0.0000 </r>
       <r>   20.5593    0.0000 </r>
       <r>   20.9032    0.0000 </r>
       <r>   21.0333    0.0000 </r>
      </set>
      <set comment="kpoint 18">
       <r>   -8.2469    1.0000 </r>
       <r>   -7.6042    1.0000 </r>
       <r>   -2.9480    1.0000 </r>
       <r>   -2.5591    1.0000 </r>
       <r>   -0.1001    1.0000 </r>
       <r>    0.2576    1.0000 </r>
       <r>    1.9703    1.0000 </r>
       <r>    2.3003    1.0000 </r>
       <r>    4.5092    1.0000 </r>
       <r>    4.6344    1.0000 </r>
       <r>    4.7269    1.0000 </r>
       <r>    5.3490    1.0000 </r>
       <r>    5.9196    1.0000 </r>
       <r>    6.5182    1.0000 </r>
       <r>    7.3605    1.0000 </r>
       <r>    8.2486    1.0000 </r>
       <r>   16.5932    0.0000 </r>
       <r>   16.7631    0.0000 </r>
       <r>   19.4260    0.0000 </r>
       <r>   20.4443    0.0000 </r>
       <r>   21.2275    0.0000 </r>
       <r>   21.3339    0.0000 </r>
       <r>   21.5704    0.0000 </r>
       <r>   22.0220    0.0000 </r>
      </set>
      <set comment="kpoint 19">
       <r>   -9.3608    1.0000 </r>
       <r>   -4.9348    1.0000 </r>
       <r>   -4.9348    1.0000 </r>
       <r>   -2.1080    1.0000 </r>
       <r>   -0.6929    1.0000 </r>
       <r>    1.7309    1.0000 </r>
       <r>    1.9211    1.0000 </r>
       <r>    1.9211    1.0000 </r>
       <r>    3.9900    1.0000 </r>
       <r>    3.9900    1.0000 </r>
       <r>    5.0937    1.0000 </r>
       <r>    5.0937    1.0000 </r>
       <r>    5.6336    1.0000 </r>
       <r>    6.8283    1.0000 </r>
       <r>    7.9105    1.0000 </r>
       <r>   10.2238    1.0000 </r>
       <r>   16.7105    0.0000 </r>
       <r>   17.3111    0.0000 </r>
       <r>   17.3111    0.0000 </r>
       <r>   17.8074    0.0000 </r>
       <r>   19.0895    0.0000 </r>
       <r>   19.2131    0.0000 </r>
       <r>   19.7237    0.0000 </r>
       <r>   19.7237    0.0000 </r>
      </set>
      <set comment="kpoint 20">
       <r>   -8.9884    1.0000 </r>
       <r>   -5.8098    1.0000 </r>
       <r>   -4.6112    1.0000 </r>
       <r>   -2.3940    1.0000 </r>
       <r>   -0.4765    1.0000 </r>
       <r>    1.5557    1.0000 </r>
       <r>    1.6374    1.0000 </r>
       <r>    2.6604    1.0000 </r>
       <r>    3.4701    1.0000 </r>
       <r>    4.3833    1.0000 </r>
       <r>    5.1236    1.0000 </r>
       <r>    5.7880    1.0000 </r>
       <r>    5.8493    1.0000 </r>
       <r>    6.0779    1.0000 </r>
       <r>    7.2397    1.0000 </r>
       <r>    9.8730    1.0000 </r>
       <r>   17.1446    0.0000 </r>
       <r>   17.3402    0.0000 </r>
       <r>   17.9217    0.0000 </r>
       <r>   18.4557    0.0000 </r>
       <r>   19.5996    0.0000 </r>
       <r>   19.8556    0.0000 </r>
       <r>   20.4441    0.0000 </r>
       <r>   20.6516    0.0000 </r>
      </set>
      <set comment="kpoint 21">
       <r>   -8.5251    1.0000 </r>
       <r>   -6.6114    1.0000 </r>
       <r>   -4.2194    1.0000 </r>
       <r>   -2.8119    1.0000 </r>
       <r>   -0.1646    1.0000 </r>
       <r>    1.1207    1.0000 </r>
       <r>    1.7679    1.0000 </r>
       <r>    2.9520    1.0000 </r>
       <r>    3.3307    1.0000 </r>
       <r>    4.8417    1.0000 </r>
       <r>    5.2462    1.0000 </r>
       <r>    5.3494    1.0000 </r>
       <r>    5.7632    1.0000 </r>
       <r>    6.5751    1.0000 </r>
       <r>    6.7341    1.0000 </r>
       <r>    9.2903    1.0000 </r>
       <r>   17.4193    0.0000 </r>
       <r>   17.8270    0.0000 </r>
       <r>   17.8938    0.0000 </r>
       <r>   19.6993    0.0000 </r>
       <r>   20.1265    0.0000 </r>
       <r>   20.8917    0.0000 </r>
       <r>   20.9181    0.0000 </r>
       <r>   21.2325    0.0000 </r>
      </set>
      <set comment="kpoint 22">
       <r>   -7.9728    1.0000 </r>
       <r>   -7.3338    1.0000 </r>
       <r>   -3.7722    1.0000 </r>
       <r>   -3.2909    1.0000 </r>
       <r>    0.2240    1.0000 </r>
       <r>    0.6632    1.0000 </r>
       <r>    2.0633    1.0000 </r>
       <r>    2.4714    1.0000 </r>
       <r>    3.9835    1.0000 </r>
       <r>    4.6517    1.0000 </r>
       <r>    5.3634    1.0000 </r>
       <r>    5.4283    1.0000 </r>
       <r>    5.6208    1.0000 </r>
       <r>    5.9442    1.0000 </r>
       <r>    7.6548    1.0000 </r>
       <r>    8.5300    1.0000 </r>
       <r>   17.5381    0.0000 </r>
       <r>   17.6821    0.0000 </r>
       <r>   18.8691    0.0000 </r>
       <r>   19.9293    0.0000 </r>
       <r>   20.7580    0.0000 </r>
       <r>   21.1079    0.0000 </r>
       <r>   21.4044    0.0000 </r>
       <r>   22.0123    0.0000 </r>
      </set>
      <set comment="kpoint 23">
       <r>   -8.6180    1.0000 </r>
       <r>   -5.4705    1.0000 </r>
       <r>   -5.4705    1.0000 </r>
       <r>   -2.8965    1.0000 </r>
       <r>   -0.1987    1.0000 </r>
       <r>    1.6973    1.0000 </r>
       <r>    2.1524    1.0000 </r>
       <r>    2.1524    1.0000 </r>
       <r>    3.8292    1.0000 </r>
       <r>    3.8292    1.0000 </r>
       <r>    5.3425    1.0000 </r>
       <r>    6.0089    1.0000 </r>
       <r>    6.0089    1.0000 </r>
       <r>    6.2071    1.0000 </r>
       <r>    6.5877    1.0000 </r>
       <r>    9.7125    1.0000 </r>
       <r>   17.2819    0.0000 </r>
       <r>   18.4780    0.0000 </r>
       <r>   18.4780    0.0000 </r>
       <r>   18.5329    0.0000 </r>
       <r>   19.6417    0.0000 </r>
       <r>   20.1770    0.0000 </r>
       <r>   21.0787    0.0000 </r>
       <r>   21.0787    0.0000 </r>
      </set>
      <set comment="kpoint 24">
       <r>   -8.1577    1.0000 </r>
       <r>   -6.2613    1.0000 </r>
       <r>   -5.0552    1.0000 </r>
       <r>   -3.4629    1.0000 </r>
       <r>    0.1651    1.0000 </r>
       <r>    1.6173    1.0000 </r>
       <r>    1.9345    1.0000 </r>
       <r>    2.7309    1.0000 </r>
       <r>    3.2750    1.0000 </r>
       <r>    4.2610    1.0000 </r>
       <r>    4.6330    1.0000 </r>
       <r>    5.9401    1.0000 </r>
       <r>    6.1875    1.0000 </r>
       <r>    6.4172    1.0000 </r>
       <r>    6.9500    1.0000 </r>
       <r>    9.3003    1.0000 </r>
       <r>   17.7603    0.0000 </r>
       <r>   18.5383    0.0000 </r>
       <r>   18.7336    0.0000 </r>
       <r>   19.7006    0.0000 </r>
       <r>   19.8294    0.0000 </r>
       <r>   20.5505    0.0000 </r>
       <r>   20.9782    0.0000 </r>
       <r>   21.0340    0.0000 </r>
      </set>
      <set comment="kpoint 25">
       <r>   -7.6094    1.0000 </r>
       <r>   -6.9760    1.0000 </r>
       <r>   -4.5719    1.0000 </r>
       <r>   -4.0338    1.0000 </r>
       <r>    0.6004    1.0000 </r>
       <r>    1.0911    1.0000 </r>
       <r>    2.2990    1.0000 </r>
       <r>    2.7554    1.0000 </r>
       <r>    3.3277    1.0000 </r>
       <r>    3.9602    1.0000 </r>
       <r>    4.7621    1.0000 </r>
       <r>    5.3256    1.0000 </r>
       <r>    6.3495    1.0000 </r>
       <r>    6.4459    1.0000 </r>
       <r>    7.8604    1.0000 </r>
       <r>    8.6655    1.0000 </r>
       <r>   18.5263    0.0000 </r>
       <r>   18.6235    0.0000 </r>
       <r>   18.7084    0.0000 </r>
       <r>   19.4801    0.0000 </r>
       <r>   20.1608    0.0000 </r>
       <r>   20.5993    0.0000 </r>
       <r>   21.0401    0.0000 </r>
       <r>   22.0428    0.0000 </r>
      </set>
      <set comment="kpoint 26">
       <r>   -7.7015    1.0000 </r>
       <r>   -5.8300    1.0000 </r>
       <r>   -5.8300    1.0000 </r>
       <r>   -4.1212    1.0000 </r>
       <r>    0.5676    1.0000 </r>
       <r>    2.1336    1.0000 </r>
       <r>    2.1336    1.0000 </r>
       <r>    2.2384    1.0000 </r>
       <r>    3.6811    1.0000 </r>
       <r>    3.6811    1.0000 </r>
       <r>    3.9436    1.0000 </r>
       <r>    5.3082    1.0000 </r>
       <r>    6.8781    1.0000 </r>
       <r>    7.1144    1.0000 </r>
       <r>    7.1144    1.0000 </r>
       <r>    9.0791    1.0000 </r>
       <r>   17.9461    0.0000 </r>
       <r>   19.4236    0.0000 </r>
       <r>   19.6490    0.0000 </r>
       <r>   19.7159    0.0000 </r>
       <r>   19.7159    0.0000 </r>
       <r>   20.1461    0.0000 </r>
       <r>   20.1461    0.0000 </r>
       <r>   21.3634    0.0000 </r>
      </set>
      <set comment="kpoint 27">
       <r>   -7.1590    1.0000 </r>
       <r>   -6.5336    1.0000 </r>
       <r>   -5.3229    1.0000 </r>
       <r>   -4.7488    1.0000 </r>
       <r>    1.0367    1.0000 </r>
       <r>    1.5630    1.0000 </r>
       <r>    2.6465    1.0000 </r>
       <r>    2.6900    1.0000 </r>
       <r>    3.1347    1.0000 </r>
       <r>    3.2936    1.0000 </r>
       <r>    4.1625    1.0000 </r>
       <r>    4.7093    1.0000 </r>
       <r>    7.1275    1.0000 </r>
       <r>    7.1899    1.0000 </r>
       <r>    7.9480    1.0000 </r>
       <r>    8.6202    1.0000 </r>
       <r>   18.4429    0.0000 </r>
       <r>   19.1909    0.0000 </r>
       <r>   19.6200    0.0000 </r>
       <r>   19.7029    0.0000 </r>
       <r>   19.7240    0.0000 </r>
       <r>   19.8573    0.0000 </r>
       <r>   20.9709    0.0000 </r>
       <r>   22.0615    0.0000 </r>
      </set>
      <set comment="kpoint 28">
       <r>   -6.6245    1.0000 </r>
       <r>   -6.0103    1.0000 </r>
       <r>   -6.0103    1.0000 </r>
       <r>   -5.4124    1.0000 </r>
       <r>    1.5338    1.0000 </r>
       <r>    2.0877    1.0000 </r>
       <r>    2.0877    1.0000 </r>
       <r>    2.6662    1.0000 </r>
       <r>    3.0845    1.0000 </r>
       <r>    3.5958    1.0000 </r>
       <r>    3.5958    1.0000 </r>
       <r>    4.1258    1.0000 </r>
       <r>    7.6111    1.0000 </r>
       <r>    7.8783    1.0000 </r>
       <r>    7.8783    1.0000 </r>
       <r>    8.3619    1.0000 </r>
       <r>   18.6436    0.0000 </r>
       <r>   19.1125    0.0000 </r>
       <r>   19.1125    0.0000 </r>
       <r>   19.2658    0.0000 </r>
       <r>   20.4626    0.0000 </r>
       <r>   20.8301    0.0000 </r>
       <r>   20.8301    0.0000 </r>
       <r>   21.6247    0.0000 </r>
      </set>
      <set comment="kpoint 29">
       <r>  -10.2048    1.0000 </r>
       <r>   -3.2852    1.0000 </r>
       <r>   -3.2852    1.0000 </r>
       <r>   -3.2852    1.0000 </r>
       <r>    0.0358    1.0000 </r>
       <r>    0.0358    1.0000 </r>
       <r>    0.0358    1.0000 </r>
       <r>    3.8458    1.0000 </r>
       <r>    3.8458    1.0000 </r>
       <r>    3.8458    1.0000 </r>
       <r>    4.9643    1.0000 </r>
       <r>    4.9643    1.0000 </r>
       <r>    4.9643    1.0000 </r>
       <r>    9.1222    1.0000 </r>
       <r>   10.5022    1.0000 </r>
       <r>   10.5022    1.0000 </r>
       <r>   15.8992    0.0000 </r>
       <r>   15.8992    0.0000 </r>
       <r>   15.8992    0.0000 </r>
       <r>   17.2842    0.0000 </r>
       <r>   17.2842    0.0000 </r>
       <r>   17.5245    0.0000 </r>
       <r>   17.5245    0.0000 </r>
       <r>   17.5245    0.0000 </r>
      </set>
      <set comment="kpoint 30">
       <r>  -10.0166    1.0000 </r>
       <r>   -4.3074    1.0000 </r>
       <r>   -3.1456    1.0000 </r>
       <r>   -3.1456    1.0000 </r>
       <r>    0.0533    1.0000 </r>
       <r>    0.0533    1.0000 </r>
       <r>    1.1510    1.0000 </r>
       <r>    3.3203    1.0000 </r>
       <r>    3.3203    1.0000 </r>
       <r>    4.1120    1.0000 </r>
       <r>    4.9806    1.0000 </r>
       <r>    4.9806    1.0000 </r>
       <r>    5.1441    1.0000 </r>
       <r>    8.3913    1.0000 </r>
       <r>    9.9518    1.0000 </r>
       <r>   10.4285    1.0000 </r>
       <r>   15.8589    0.0000 </r>
       <r>   16.2646    0.0000 </r>
       <r>   16.2646    0.0000 </r>
       <r>   17.1779    0.0000 </r>
       <r>   17.9676    0.0000 </r>
       <r>   17.9896    0.0000 </r>
       <r>   18.1471    0.0000 </r>
       <r>   18.4449    0.0000 </r>
      </set>
      <set comment="kpoint 31">
       <r>   -9.7349    1.0000 </r>
       <r>   -5.2666    1.0000 </r>
       <r>   -2.9473    1.0000 </r>
       <r>   -2.9473    1.0000 </r>
       <r>    0.0338    1.0000 </r>
       <r>    0.0338    1.0000 </r>
       <r>    2.2049    1.0000 </r>
       <r>    2.8642    1.0000 </r>
       <r>    2.8642    1.0000 </r>
       <r>    4.5432    1.0000 </r>
       <r>    4.8272    1.0000 </r>
       <r>    4.8272    1.0000 </r>
       <r>    5.4120    1.0000 </r>
       <r>    7.6222    1.0000 </r>
       <r>    9.2937    1.0000 </r>
       <r>   10.0715    1.0000 </r>
       <r>   15.8606    0.0000 </r>
       <r>   16.9458    0.0000 </r>
       <r>   16.9458    0.0000 </r>
       <r>   17.0043    0.0000 </r>
       <r>   18.6236    0.0000 </r>
       <r>   18.8248    0.0000 </r>
       <r>   18.8607    0.0000 </r>
       <r>   19.5609    0.0000 </r>
      </set>
      <set comment="kpoint 32">
       <r>   -9.3605    1.0000 </r>
       <r>   -6.1547    1.0000 </r>
       <r>   -2.7095    1.0000 </r>
       <r>   -2.7095    1.0000 </r>
       <r>   -0.0642    1.0000 </r>
       <r>   -0.0642    1.0000 </r>
       <r>    2.5578    1.0000 </r>
       <r>    2.5578    1.0000 </r>
       <r>    3.1423    1.0000 </r>
       <r>    4.5765    1.0000 </r>
       <r>    4.5765    1.0000 </r>
       <r>    5.1710    1.0000 </r>
       <r>    5.7653    1.0000 </r>
       <r>    6.8524    1.0000 </r>
       <r>    8.6037    1.0000 </r>
       <r>    9.4817    1.0000 </r>
       <r>   15.9155    0.0000 </r>
       <r>   16.7969    0.0000 </r>
       <r>   17.8876    0.0000 </r>
       <r>   17.8876    0.0000 </r>
       <r>   19.4098    0.0000 </r>
       <r>   19.7371    0.0000 </r>
       <r>   19.7786    0.0000 </r>
       <r>   20.7768    0.0000 </r>
      </set>
      <set comment="kpoint 33">
       <r>   -8.8945    1.0000 </r>
       <r>   -6.9655    1.0000 </r>
       <r>   -2.4709    1.0000 </r>
       <r>   -2.4709    1.0000 </r>
       <r>   -0.2346    1.0000 </r>
       <r>   -0.2346    1.0000 </r>
       <r>    2.4238    1.0000 </r>
       <r>    2.4238    1.0000 </r>
       <r>    3.9474    1.0000 </r>
       <r>    4.3189    1.0000 </r>
       <r>    4.3189    1.0000 </r>
       <r>    5.9860    1.0000 </r>
       <r>    6.1024    1.0000 </r>
       <r>    6.2002    1.0000 </r>
       <r>    7.9269    1.0000 </r>
       <r>    8.7202    1.0000 </r>
       <r>   16.0229    0.0000 </r>
       <r>   16.5778    0.0000 </r>
       <r>   19.0015    0.0000 </r>
       <r>   19.0015    0.0000 </r>
       <r>   20.3347    0.0000 </r>
       <r>   20.7162    0.0000 </r>
       <r>   20.7834    0.0000 </r>
       <r>   21.8955    0.0000 </r>
      </set>
      <set comment="kpoint 34">
       <r>   -8.3386    1.0000 </r>
       <r>   -7.6947    1.0000 </r>
       <r>   -2.3065    1.0000 </r>
       <r>   -2.3065    1.0000 </r>
       <r>   -0.3816    1.0000 </r>
       <r>   -0.3816    1.0000 </r>
       <r>    2.3984    1.0000 </r>
       <r>    2.3984    1.0000 </r>
       <r>    4.1514    1.0000 </r>
       <r>    4.1514    1.0000 </r>
       <r>    4.6720    1.0000 </r>
       <r>    5.3788    1.0000 </r>
       <r>    6.7112    1.0000 </r>
       <r>    6.9082    1.0000 </r>
       <r>    7.2905    1.0000 </r>
       <r>    7.8434    1.0000 </r>
       <r>   16.1763    0.0000 </r>
       <r>   16.3656    0.0000 </r>
       <r>   20.1187    0.0000 </r>
       <r>   20.1187    0.0000 </r>
       <r>   21.3732    0.0000 </r>
       <r>   21.7499    0.0000 </r>
       <r>   21.7853    0.0000 </r>
       <r>   21.8094    0.0000 </r>
      </set>
      <set comment="kpoint 35">
       <r>   -9.8288    1.0000 </r>
       <r>   -4.1520    1.0000 </r>
       <r>   -4.1520    1.0000 </r>
       <r>   -3.0214    1.0000 </r>
       <r>   -0.0048    1.0000 </r>
       <r>    1.0524    1.0000 </r>
       <r>    1.0524    1.0000 </r>
       <r>    2.7998    1.0000 </r>
       <r>    3.6753    1.0000 </r>
       <r>    3.6753    1.0000 </r>
       <r>    5.1687    1.0000 </r>
       <r>    5.1687    1.0000 </r>
       <r>    5.2701    1.0000 </r>
       <r>    7.6328    1.0000 </r>
       <r>    9.6354    1.0000 </r>
       <r>   10.3319    1.0000 </r>
       <r>   16.2878    0.0000 </r>
       <r>   16.2878    0.0000 </r>
       <r>   16.3049    0.0000 </r>
       <r>   17.5620    0.0000 </r>
       <r>   18.1316    0.0000 </r>
       <r>   18.4384    0.0000 </r>
       <r>   18.8324    0.0000 </r>
       <r>   18.8324    0.0000 </r>
      </set>
      <set comment="kpoint 36">
       <r>   -9.5477    1.0000 </r>
       <r>   -5.1010    1.0000 </r>
       <r>   -3.9251    1.0000 </r>
       <r>   -2.8566    1.0000 </r>
       <r>   -0.1482    1.0000 </r>
       <r>    0.8430    1.0000 </r>
       <r>    1.9298    1.0000 </r>
       <r>    2.4568    1.0000 </r>
       <r>    3.3404    1.0000 </r>
       <r>    4.2470    1.0000 </r>
       <r>    5.0496    1.0000 </r>
       <r>    5.3593    1.0000 </r>
       <r>    5.4564    1.0000 </r>
       <r>    6.8510    1.0000 </r>
       <r>    9.0461    1.0000 </r>
       <r>   10.1044    1.0000 </r>
       <r>   16.3433    0.0000 </r>
       <r>   16.6952    0.0000 </r>
       <r>   17.0020    0.0000 </r>
       <r>   17.5371    0.0000 </r>
       <r>   18.8138    0.0000 </r>
       <r>   18.9485    0.0000 </r>
       <r>   19.3908    0.0000 </r>
       <r>   19.8882    0.0000 </r>
      </set>
      <set comment="kpoint 37">
       <r>   -9.1743    1.0000 </r>
       <r>   -5.9822    1.0000 </r>
       <r>   -3.6369    1.0000 </r>
       <r>   -2.6923    1.0000 </r>
       <r>   -0.3669    1.0000 </r>
       <r>    0.5109    1.0000 </r>
       <r>    2.3421    1.0000 </r>
       <r>    2.6693    1.0000 </r>
       <r>    3.1322    1.0000 </r>
       <r>    4.8729    1.0000 </r>
       <r>    5.0029    1.0000 </r>
       <r>    5.2782    1.0000 </r>
       <r>    5.8622    1.0000 </r>
       <r>    6.0793    1.0000 </r>
       <r>    8.3910    1.0000 </r>
       <r>    9.6332    1.0000 </r>
       <r>   16.4388    0.0000 </r>
       <r>   17.3636    0.0000 </r>
       <r>   17.4094    0.0000 </r>
       <r>   17.9568    0.0000 </r>
       <r>   19.6335    0.0000 </r>
       <r>   19.7226    0.0000 </r>
       <r>   20.1067    0.0000 </r>
       <r>   21.0260    0.0000 </r>
      </set>
      <set comment="kpoint 38">
       <r>   -8.7097    1.0000 </r>
       <r>   -6.7883    1.0000 </r>
       <r>   -3.3065    1.0000 </r>
       <r>   -2.6109    1.0000 </r>
       <r>   -0.5408    1.0000 </r>
       <r>    0.1112    1.0000 </r>
       <r>    2.4170    1.0000 </r>
       <r>    2.9830    1.0000 </r>
       <r>    3.3266    1.0000 </r>
       <r>    4.7471    1.0000 </r>
       <r>    5.0952    1.0000 </r>
       <r>    5.3371    1.0000 </r>
       <r>    5.7906    1.0000 </r>
       <r>    6.4491    1.0000 </r>
       <r>    7.7306    1.0000 </r>
       <r>    8.9572    1.0000 </r>
       <r>   16.5747    0.0000 </r>
       <r>   17.1560    0.0000 </r>
       <r>   18.3690    0.0000 </r>
       <r>   19.0643    0.0000 </r>
       <r>   20.4423    0.0000 </r>
       <r>   20.7191    0.0000 </r>
       <r>   20.9639    0.0000 </r>
       <r>   21.7632    0.0000 </r>
      </set>
      <set comment="kpoint 39">
       <r>   -8.1555    1.0000 </r>
       <r>   -7.5141    1.0000 </r>
       <r>   -2.9721    1.0000 </r>
       <r>   -2.7079    1.0000 </r>
       <r>   -0.5148    1.0000 </r>
       <r>   -0.2654    1.0000 </r>
       <r>    2.5996    1.0000 </r>
       <r>    2.8083    1.0000 </r>
       <r>    3.9685    1.0000 </r>
       <r>    4.6337    1.0000 </r>
       <r>    4.7541    1.0000 </r>
       <r>    4.8925    1.0000 </r>
       <r>    6.4643    1.0000 </r>
       <r>    7.0897    1.0000 </r>
       <r>    7.2583    1.0000 </r>
       <r>    8.1394    1.0000 </r>
       <r>   16.7462    0.0000 </r>
       <r>   16.9443    0.0000 </r>
       <r>   19.4478    0.0000 </r>
       <r>   20.0238    0.0000 </r>
       <r>   21.2243    0.0000 </r>
       <r>   21.3261    0.0000 </r>
       <r>   21.7565    0.0000 </r>
       <r>   21.8926    0.0000 </r>
      </set>
      <set comment="kpoint 40">
       <r>   -9.2677    1.0000 </r>
       <r>   -4.8565    1.0000 </r>
       <r>   -4.8565    1.0000 </r>
       <r>   -2.7683    1.0000 </r>
       <r>   -0.4209    1.0000 </r>
       <r>    1.5084    1.0000 </r>
       <r>    1.5084    1.0000 </r>
       <r>    2.2961    1.0000 </r>
       <r>    4.0198    1.0000 </r>
       <r>    4.0198    1.0000 </r>
       <r>    5.4131    1.0000 </r>
       <r>    5.4131    1.0000 </r>
       <r>    5.7144    1.0000 </r>
       <r>    6.0653    1.0000 </r>
       <r>    8.5170    1.0000 </r>
       <r>   10.0383    1.0000 </r>
       <r>   16.7795    0.0000 </r>
       <r>   17.0907    0.0000 </r>
       <r>   17.0907    0.0000 </r>
       <r>   17.9958    0.0000 </r>
       <r>   19.0188    0.0000 </r>
       <r>   19.1792    0.0000 </r>
       <r>   20.3697    0.0000 </r>
       <r>   20.3697    0.0000 </r>
      </set>
      <set comment="kpoint 41">
       <r>   -8.8958    1.0000 </r>
       <r>   -5.7262    1.0000 </r>
       <r>   -4.5392    1.0000 </r>
       <r>   -2.7678    1.0000 </r>
       <r>   -0.6511    1.0000 </r>
       <r>    0.9962    1.0000 </r>
       <r>    2.0867    1.0000 </r>
       <r>    2.3547    1.0000 </r>
       <r>    3.8002    1.0000 </r>
       <r>    4.7573    1.0000 </r>
       <r>    5.2965    1.0000 </r>
       <r>    5.3784    1.0000 </r>
       <r>    5.8687    1.0000 </r>
       <r>    5.9682    1.0000 </r>
       <r>    7.9003    1.0000 </r>
       <r>    9.7289    1.0000 </r>
       <r>   17.2126    0.0000 </r>
       <r>   17.2165    0.0000 </r>
       <r>   18.0518    0.0000 </r>
       <r>   18.0582    0.0000 </r>
       <r>   19.5707    0.0000 </r>
       <r>   19.7239    0.0000 </r>
       <r>   20.9906    0.0000 </r>
       <r>   21.3556    0.0000 </r>
      </set>
      <set comment="kpoint 42">
       <r>   -8.4333    1.0000 </r>
       <r>   -6.5244    1.0000 </r>
       <r>   -4.1595    1.0000 </r>
       <r>   -2.9535    1.0000 </r>
       <r>   -0.6668    1.0000 </r>
       <r>    0.4628    1.0000 </r>
       <r>    2.5624    1.0000 </r>
       <r>    2.6497    1.0000 </r>
       <r>    3.5246    1.0000 </r>
       <r>    4.5633    1.0000 </r>
       <r>    5.4240    1.0000 </r>
       <r>    5.4275    1.0000 </r>
       <r>    5.8508    1.0000 </r>
       <r>    6.7318    1.0000 </r>
       <r>    7.2649    1.0000 </r>
       <r>    9.1815    1.0000 </r>
       <r>   17.3653    0.0000 </r>
       <r>   17.9157    0.0000 </r>
       <r>   17.9610    0.0000 </r>
       <r>   19.1533    0.0000 </r>
       <r>   20.1124    0.0000 </r>
       <r>   20.6827    0.0000 </r>
       <r>   21.3360    0.0000 </r>
       <r>   21.6725    0.0000 </r>
      </set>
      <set comment="kpoint 43">
       <r>   -7.8820    1.0000 </r>
       <r>   -7.2446    1.0000 </r>
       <r>   -3.7370    1.0000 </r>
       <r>   -3.3101    1.0000 </r>
       <r>   -0.4343    1.0000 </r>
       <r>   -0.0330    1.0000 </r>
       <r>    2.8592    1.0000 </r>
       <r>    3.1962    1.0000 </r>
       <r>    3.2402    1.0000 </r>
       <r>    3.8766    1.0000 </r>
       <r>    5.5599    1.0000 </r>
       <r>    5.7238    1.0000 </r>
       <r>    6.0334    1.0000 </r>
       <r>    6.6402    1.0000 </r>
       <r>    7.6014    1.0000 </r>
       <r>    8.4488    1.0000 </r>
       <r>   17.5421    0.0000 </r>
       <r>   17.7320    0.0000 </r>
       <r>   18.9157    0.0000 </r>
       <r>   19.7874    0.0000 </r>
       <r>   20.7658    0.0000 </r>
       <r>   20.8809    0.0000 </r>
       <r>   21.4742    0.0000 </r>
       <r>   21.7244    0.0000 </r>
      </set>
      <set comment="kpoint 44">
       <r>   -8.5260    1.0000 </r>
       <r>   -5.3905    1.0000 </r>
       <r>   -5.3905    1.0000 </r>
       <r>   -3.0359    1.0000 </r>
       <r>   -0.7255    1.0000 </r>
       <r>    1.4670    1.0000 </r>
       <r>    1.4670    1.0000 </r>
       <r>    2.5315    1.0000 </r>
       <r>    4.4185    1.0000 </r>
       <r>    4.4185    1.0000 </r>
       <r>    4.5342    1.0000 </r>
       <r>    6.1085    1.0000 </r>
       <r>    6.1085    1.0000 </r>
       <r>    6.2785    1.0000 </r>
       <r>    7.3165    1.0000 </r>
       <r>    9.6031    1.0000 </r>
       <r>   17.3575    0.0000 </r>
       <r>   18.1879    0.0000 </r>
       <r>   18.1879    0.0000 </r>
       <r>   18.5987    0.0000 </r>
       <r>   19.6215    0.0000 </r>
       <r>   19.9842    0.0000 </r>
       <r>   21.5484    0.0000 </r>
       <r>   21.5484    0.0000 </r>
      </set>
      <set comment="kpoint 45">
       <r>   -8.0666    1.0000 </r>
       <r>   -6.1765    1.0000 </r>
       <r>   -4.9815    1.0000 </r>
       <r>   -3.4799    1.0000 </r>
       <r>   -0.5449    1.0000 </r>
       <r>    0.8594    1.0000 </r>
       <r>    1.9697    1.0000 </r>
       <r>    2.8192    1.0000 </r>
       <r>    3.8112    1.0000 </r>
       <r>    4.0158    1.0000 </r>
       <r>    4.9804    1.0000 </r>
       <r>    6.2725    1.0000 </r>
       <r>    6.4856    1.0000 </r>
       <r>    6.7091    1.0000 </r>
       <r>    6.9722    1.0000 </r>
       <r>    9.2242    1.0000 </r>
       <r>   17.8330    0.0000 </r>
       <r>   18.3391    0.0000 </r>
       <r>   18.7364    0.0000 </r>
       <r>   19.2612    0.0000 </r>
       <r>   19.8283    0.0000 </r>
       <r>   20.7205    0.0000 </r>
       <r>   20.7971    0.0000 </r>
       <r>   21.2006    0.0000 </r>
      </set>
      <set comment="kpoint 46">
       <r>   -7.5197    1.0000 </r>
       <r>   -6.8882    1.0000 </r>
       <r>   -4.5102    1.0000 </r>
       <r>   -3.9967    1.0000 </r>
       <r>   -0.1820    1.0000 </r>
       <r>    0.2992    1.0000 </r>
       <r>    2.5249    1.0000 </r>
       <r>    3.1391    1.0000 </r>
       <r>    3.1821    1.0000 </r>
       <r>    3.5913    1.0000 </r>
       <r>    5.5354    1.0000 </r>
       <r>    6.1107    1.0000 </r>
       <r>    6.4249    1.0000 </r>
       <r>    6.5158    1.0000 </r>
       <r>    7.8422    1.0000 </r>
       <r>    8.6183    1.0000 </r>
       <r>   18.5003    0.0000 </r>
       <r>   18.5857    0.0000 </r>
       <r>   18.6499    0.0000 </r>
       <r>   19.4651    0.0000 </r>
       <r>   20.1867    0.0000 </r>
       <r>   20.6657    0.0000 </r>
       <r>   20.7592    0.0000 </r>
       <r>   21.7140    0.0000 </r>
      </set>
      <set comment="kpoint 47">
       <r>   -7.6116    1.0000 </r>
       <r>   -5.7488    1.0000 </r>
       <r>   -5.7488    1.0000 </r>
       <r>   -4.0834    1.0000 </r>
       <r>   -0.2386    1.0000 </r>
       <r>    1.3188    1.0000 </r>
       <r>    1.3188    1.0000 </r>
       <r>    3.0996    1.0000 </r>
       <r>    3.1605    1.0000 </r>
       <r>    4.5016    1.0000 </r>
       <r>    4.5016    1.0000 </r>
       <r>    6.1286    1.0000 </r>
       <r>    6.9349    1.0000 </r>
       <r>    7.1501    1.0000 </r>
       <r>    7.1501    1.0000 </r>
       <r>    9.0333    1.0000 </r>
       <r>   18.0184    0.0000 </r>
       <r>   19.3754    0.0000 </r>
       <r>   19.3754    0.0000 </r>
       <r>   19.3769    0.0000 </r>
       <r>   19.6585    0.0000 </r>
       <r>   20.3140    0.0000 </r>
       <r>   20.3140    0.0000 </r>
       <r>   21.0306    0.0000 </r>
      </set>
      <set comment="kpoint 48">
       <r>   -7.0708    1.0000 </r>
       <r>   -6.4480    1.0000 </r>
       <r>   -5.2482    1.0000 </r>
       <r>   -4.6862    1.0000 </r>
       <r>    0.1940    1.0000 </r>
       <r>    0.7205    1.0000 </r>
       <r>    1.8466    1.0000 </r>
       <r>    2.4420    1.0000 </r>
       <r>    3.5674    1.0000 </r>
       <r>    4.0216    1.0000 </r>
       <r>    5.0126    1.0000 </r>
       <r>    5.5571    1.0000 </r>
       <r>    7.1771    1.0000 </r>
       <r>    7.2336    1.0000 </r>
       <r>    7.9532    1.0000 </r>
       <r>    8.6002    1.0000 </r>
       <r>   18.5068    0.0000 </r>
       <r>   19.2213    0.0000 </r>
       <r>   19.4741    0.0000 </r>
       <r>   19.5294    0.0000 </r>
       <r>   19.7333    0.0000 </r>
       <r>   19.9567    0.0000 </r>
       <r>   20.7196    0.0000 </r>
       <r>   21.7892    0.0000 </r>
      </set>
      <set comment="kpoint 49">
       <r>   -6.5387    1.0000 </r>
       <r>   -5.9286    1.0000 </r>
       <r>   -5.9286    1.0000 </r>
       <r>   -5.3373    1.0000 </r>
       <r>    0.6676    1.0000 </r>
       <r>    1.2230    1.0000 </r>
       <r>    1.2230    1.0000 </r>
       <r>    1.7996    1.0000 </r>
       <r>    4.0091    1.0000 </r>
       <r>    4.4962    1.0000 </r>
       <r>    4.4962    1.0000 </r>
       <r>    5.0120    1.0000 </r>
       <r>    7.6458    1.0000 </r>
       <r>    7.8995    1.0000 </r>
       <r>    7.8995    1.0000 </r>
       <r>    8.3637    1.0000 </r>
       <r>   18.7038    0.0000 </r>
       <r>   19.1558    0.0000 </r>
       <r>   19.1558    0.0000 </r>
       <r>   19.3046    0.0000 </r>
       <r>   20.3233    0.0000 </r>
       <r>   20.6368    0.0000 </r>
       <r>   20.6368    0.0000 </r>
       <r>   21.4156    0.0000 </r>
      </set>
      <set comment="kpoint 50">
       <r>   -9.6414    1.0000 </r>
       <r>   -4.0042    1.0000 </r>
       <r>   -4.0042    1.0000 </r>
       <r>   -4.0042    1.0000 </r>
       <r>    0.8062    1.0000 </r>
       <r>    0.8062    1.0000 </r>
       <r>    0.8062    1.0000 </r>
       <r>    3.3282    1.0000 </r>
       <r>    3.3282    1.0000 </r>
       <r>    3.3282    1.0000 </r>
       <r>    5.4429    1.0000 </r>
       <r>    5.4429    1.0000 </r>
       <r>    5.4429    1.0000 </r>
       <r>    6.8413    1.0000 </r>
       <r>    9.8724    1.0000 </r>
       <r>    9.8724    1.0000 </r>
       <r>   16.3896    0.0000 </r>
       <r>   16.3896    0.0000 </r>
       <r>   16.3896    0.0000 </r>
       <r>   18.1047    0.0000 </r>
       <r>   18.1047    0.0000 </r>
       <r>   18.5693    0.0000 </r>
       <r>   19.8090    0.0000 </r>
       <r>   19.8090    0.0000 </r>
      </set>
      <set comment="kpoint 51">
       <r>   -9.3610    1.0000 </r>
       <r>   -4.9396    1.0000 </r>
       <r>   -3.7929    1.0000 </r>
       <r>   -3.7929    1.0000 </r>
       <r>    0.4103    1.0000 </r>
       <r>    0.4103    1.0000 </r>
       <r>    1.4658    1.0000 </r>
       <r>    3.1771    1.0000 </r>
       <r>    3.1771    1.0000 </r>
       <r>    4.1242    1.0000 </r>
       <r>    5.5371    1.0000 </r>
       <r>    5.5371    1.0000 </r>
       <r>    5.6995    1.0000 </r>
       <r>    6.0400    1.0000 </r>
       <r>    9.3014    1.0000 </r>
       <r>    9.8168    1.0000 </r>
       <r>   16.5142    0.0000 </r>
       <r>   16.8063    0.0000 </r>
       <r>   16.8063    0.0000 </r>
       <r>   17.9689    0.0000 </r>
       <r>   18.8054    0.0000 </r>
       <r>   18.9550    0.0000 </r>
       <r>   20.2818    0.0000 </r>
       <r>   20.9513    0.0000 </r>
      </set>
      <set comment="kpoint 52">
       <r>   -8.9886    1.0000 </r>
       <r>   -5.8123    1.0000 </r>
       <r>   -3.5367    1.0000 </r>
       <r>   -3.5367    1.0000 </r>
       <r>   -0.0646    1.0000 </r>
       <r>   -0.0646    1.0000 </r>
       <r>    2.0373    1.0000 </r>
       <r>    3.1859    1.0000 </r>
       <r>    3.1859    1.0000 </r>
       <r>    5.0909    1.0000 </r>
       <r>    5.2595    1.0000 </r>
       <r>    5.4831    1.0000 </r>
       <r>    5.4831    1.0000 </r>
       <r>    6.0369    1.0000 </r>
       <r>    8.6847    1.0000 </r>
       <r>    9.4644    1.0000 </r>
       <r>   16.6753    0.0000 </r>
       <r>   17.5272    0.0000 </r>
       <r>   17.5272    0.0000 </r>
       <r>   17.7745    0.0000 </r>
       <r>   19.5684    0.0000 </r>
       <r>   19.6035    0.0000 </r>
       <r>   20.9097    0.0000 </r>
       <r>   22.1204    0.0000 </r>
      </set>
      <set comment="kpoint 53">
       <r>   -8.5254    1.0000 </r>
       <r>   -6.6127    1.0000 </r>
       <r>   -3.2755    1.0000 </r>
       <r>   -3.2755    1.0000 </r>
       <r>   -0.5083    1.0000 </r>
       <r>   -0.5083    1.0000 </r>
       <r>    2.5966    1.0000 </r>
       <r>    3.2712    1.0000 </r>
       <r>    3.2712    1.0000 </r>
       <r>    4.5180    1.0000 </r>
       <r>    5.3579    1.0000 </r>
       <r>    5.3579    1.0000 </r>
       <r>    6.1192    1.0000 </r>
       <r>    6.4504    1.0000 </r>
       <r>    8.0668    1.0000 </r>
       <r>    8.8589    1.0000 </r>
       <r>   16.8678    0.0000 </r>
       <r>   17.5508    0.0000 </r>
       <r>   18.4761    0.0000 </r>
       <r>   18.4761    0.0000 </r>
       <r>   20.3577    0.0000 </r>
       <r>   20.4601    0.0000 </r>
       <r>   21.6819    0.0000 </r>
       <r>   22.2921    0.0000 </r>
[...]
       <r>   -4.7832    1.0000 </r>
       <r>   -4.7832    1.0000 </r>
       <r>   -1.7882    1.0000 </r>
       <r>   -1.7882    1.0000 </r>
       <r>   -1.7882    1.0000 </r>
       <r>   -0.2297    1.0000 </r>
       <r>    7.1692    1.0000 </r>
       <r>    7.1692    1.0000 </r>
       <r>    7.1692    1.0000 </r>
       <r>    7.6437    1.0000 </r>
       <r>    7.6437    1.0000 </r>
       <r>    7.6437    1.0000 </r>
       <r>    8.3989    1.0000 </r>
       <r>    8.3989    1.0000 </r>
       <r>   18.8559    0.0000 </r>
       <r>   18.8559    0.0000 </r>
       <r>   18.8559    0.0000 </r>
       <r>   19.4481    0.0000 </r>
       <r>   19.4481    0.0000 </r>
       <r>   19.8060    0.0000 </r>
       <r>   20.5189    0.0000 </r>
       <r>   20.5189    0.0000 </r>
      </set>
      <set comment="kpoint 82">
       <r>   -5.8861    1.0000 </r>
       <r>   -5.3376    1.0000 </r>
       <r>   -4.5696    1.0000 </r>
       <r>   -4.5696    1.0000 </r>
       <r>   -2.1639    1.0000 </r>
       <r>   -2.1639    1.0000 </r>
       <r>   -1.4122    1.0000 </r>
       <r>   -0.8780    1.0000 </r>
       <r>    7.2942    1.0000 </r>
       <r>    7.2942    1.0000 </r>
       <r>    7.8069    1.0000 </r>
       <r>    7.8069    1.0000 </r>
       <r>    7.8604    1.0000 </r>
       <r>    7.8966    1.0000 </r>
       <r>    8.1535    1.0000 </r>
       <r>    8.2888    1.0000 </r>
       <r>   19.1019    0.0000 </r>
       <r>   19.2043    0.0000 </r>
       <r>   19.2043    0.0000 </r>
       <r>   19.3029    0.0000 </r>
       <r>   19.6970    0.0000 </r>
       <r>   19.9711    0.0000 </r>
       <r>   19.9716    0.0000 </r>
       <r>   19.9724    0.0000 </r>
      </set>
      <set comment="kpoint 83">
       <r>   -5.4245    1.0000 </r>
       <r>   -4.9539    1.0000 </r>
       <r>   -4.9539    1.0000 </r>
       <r>   -4.6535    1.0000 </r>
       <r>   -2.2494    1.0000 </r>
       <r>   -1.9542    1.0000 </r>
       <r>   -1.9542    1.0000 </r>
       <r>   -1.4936    1.0000 </r>
       <r>    7.6100    1.0000 </r>
       <r>    7.7770    1.0000 </r>
       <r>    7.7770    1.0000 </r>
       <r>    8.0235    1.0000 </r>
       <r>    8.0339    1.0000 </r>
       <r>    8.0820    1.0000 </r>
       <r>    8.0820    1.0000 </r>
       <r>    8.2885    1.0000 </r>
       <r>   19.3148    0.0000 </r>
       <r>   19.3788    0.0000 </r>
       <r>   19.3788    0.0000 </r>
       <r>   19.4967    0.0000 </r>
       <r>   19.5368    0.0000 </r>
       <r>   19.7141    0.0000 </r>
       <r>   19.7141    0.0000 </r>
       <r>   19.8694    0.0000 </r>
      </set>
      <set comment="kpoint 84">
       <r>   -5.0390    1.0000 </r>
       <r>   -4.7370    1.0000 </r>
       <r>   -4.7370    1.0000 </r>
       <r>   -4.7370    1.0000 </r>
       <r>   -2.3362    1.0000 </r>
       <r>   -2.3362    1.0000 </r>
       <r>   -2.3362    1.0000 </r>
       <r>   -2.0393    1.0000 </r>
       <r>    8.0720    1.0000 </r>
       <r>    8.0720    1.0000 </r>
       <r>    8.0720    1.0000 </r>
       <r>    8.1302    1.0000 </r>
       <r>    8.1302    1.0000 </r>
       <r>    8.1302    1.0000 </r>
       <r>    8.2207    1.0000 </r>
       <r>    8.2207    1.0000 </r>
       <r>   19.4309    0.0000 </r>
       <r>   19.4309    0.0000 </r>
       <r>   19.4309    0.0000 </r>
       <r>   19.4907    0.0000 </r>
       <r>   19.4907    0.0000 </r>
       <r>   19.6150    0.0000 </r>
       <r>   19.6150    0.0000 </r>
       <r>   19.6153    0.0000 </r>
      </set>
     </set>
    </set>
   </array>
  </eigenvalues>
  <separator name="orbital magnetization" >
   <v name="MAGDIPOLOUT">      0.00000000      0.00000000      0.00000000</v>
  </separator>
  <dos>
   <i name="efermi">     11.23746232 </i>
   <total>
    <array>
     <dimension dim="1">gridpoints</dimension>
     <dimension dim="2">spin</dimension>
     <field>energy</field>
     <field>total</field>
     <field>integrated</field>
     <set>
      <set comment="spin 1">
       <r>   -12.1576     0.0000     0.0000 </r>
       <r>   -12.0352     0.0000     0.0000 </r>
       <r>   -11.9127     0.0000     0.0000 </r>
       <r>   -11.7903     0.0000     0.0000 </r>
       <r>   -11.6678     0.0000     0.0000 </r>
       <r>   -11.5454     0.0000     0.0000 </r>
       <r>   -11.4229     0.0000     0.0000 </r>
       <r>   -11.3005     0.0000     0.0000 </r>
       <r>   -11.1780     0.0000     0.0000 </r>
       <r>   -11.0556     0.0000     0.0000 </r>
       <r>   -10.9331     0.0000     0.0000 </r>
       <r>   -10.8107     0.0000     0.0000 </r>
       <r>   -10.6883     0.0000     0.0000 </r>
       <r>   -10.5658     0.0007     0.0001 </r>
       <r>   -10.4434     0.0533     0.0066 </r>
       <r>   -10.3209     0.1721     0.0277 </r>
       <r>   -10.1985     0.2176     0.0543 </r>
       <r>   -10.0760     0.3257     0.0942 </r>
       <r>    -9.9536     0.2321     0.1226 </r>
       <r>    -9.8311     0.4383     0.1763 </r>
       <r>    -9.7087     0.3464     0.2187 </r>
       <r>    -9.5862     0.3956     0.2671 </r>
       <r>    -9.4638     0.4978     0.3281 </r>
       <r>    -9.3413     0.4892     0.3880 </r>
       <r>    -9.2189     0.5389     0.4540 </r>
       <r>    -9.0964     0.3836     0.5009 </r>
       <r>    -8.9740     0.6666     0.5826 </r>
       <r>    -8.8515     0.6520     0.6624 </r>
       <r>    -8.7291     0.5161     0.7256 </r>
       <r>    -8.6066     0.5035     0.7872 </r>
       <r>    -8.4842     0.7228     0.8757 </r>
       <r>    -8.3618     0.8154     0.9756 </r>
       <r>    -8.2393     0.5723     1.0457 </r>
       <r>    -8.1169     0.7536     1.1379 </r>
       <r>    -7.9944     0.6211     1.2140 </r>
       <r>    -7.8720     0.8571     1.3189 </r>
       <r>    -7.7495     0.5681     1.3885 </r>
       <r>    -7.6271     0.9130     1.5003 </r>
       <r>    -7.5046     1.0670     1.6309 </r>
       <r>    -7.3822     0.5393     1.6970 </r>
       <r>    -7.2597     0.8173     1.7971 </r>
       <r>    -7.1373     0.7088     1.8838 </r>
       <r>    -7.0148     1.2463     2.0365 </r>
       <r>    -6.8924     0.8380     2.1391 </r>
       <r>    -6.7699     0.9589     2.2565 </r>
       <r>    -6.6475     0.7234     2.3451 </r>
       <r>    -6.5250     1.0694     2.4760 </r>
       <r>    -6.4026     0.8901     2.5850 </r>
       <r>    -6.2802     1.0394     2.7123 </r>
       <r>    -6.1577     1.0165     2.8367 </r>
       <r>    -6.0353     1.0516     2.9655 </r>
       <r>    -5.9128     1.1435     3.1055 </r>
       <r>    -5.7904     1.0328     3.2320 </r>
       <r>    -5.6679     1.4143     3.4052 </r>
       <r>    -5.5455     0.6154     3.4805 </r>
       <r>    -5.4230     0.9438     3.5961 </r>
       <r>    -5.3006     1.6515     3.7983 </r>
       <r>    -5.1781     1.3563     3.9644 </r>
       <r>    -5.0557     1.1178     4.1013 </r>
       <r>    -4.9332     1.4579     4.2798 </r>
       <r>    -4.8108     1.0900     4.4132 </r>
       <r>    -4.6883     1.3884     4.5832 </r>
       <r>    -4.5659     1.5824     4.7770 </r>
       <r>    -4.4434     1.5366     4.9652 </r>
       <r>    -4.3210     1.4926     5.1479 </r>
       <r>    -4.1985     1.3709     5.3158 </r>
       <r>    -4.0761     1.1975     5.4624 </r>
       <r>    -3.9537     2.0557     5.7141 </r>
       <r>    -3.8312     1.0023     5.8369 </r>
       <r>    -3.7088     1.1821     5.9816 </r>
       <r>    -3.5863     1.0239     6.1070 </r>
       <r>    -3.4639     0.9048     6.2178 </r>
       <r>    -3.3414     1.5428     6.4067 </r>
       <r>    -3.2190     1.6771     6.6121 </r>
       <r>    -3.0965     0.5916     6.6845 </r>
       <r>    -2.9741     1.0073     6.8078 </r>
       <r>    -2.8516     1.2048     6.9554 </r>
       <r>    -2.7292     1.1208     7.0926 </r>
       <r>    -2.6067     1.0174     7.2172 </r>
       <r>    -2.4843     0.5158     7.2803 </r>
       <r>    -2.3618     0.7633     7.3738 </r>
       <r>    -2.2394     1.0027     7.4966 </r>
       <r>    -2.1169     1.2486     7.6495 </r>
       <r>    -1.9945     1.2290     7.8000 </r>
       <r>    -1.8720     1.5310     7.9874 </r>
       <r>    -1.7496     1.2811     8.1443 </r>
       <r>    -1.6272     0.5879     8.2163 </r>
       <r>    -1.5047     0.8221     8.3169 </r>
       <r>    -1.3823     1.1832     8.4618 </r>
       <r>    -1.2598     0.8129     8.5614 </r>
       <r>    -1.1374     0.8724     8.6682 </r>
       <r>    -1.0149     1.7918     8.8876 </r>
       <r>    -0.8925     1.6248     9.0865 </r>
       <r>    -0.7700     1.7309     9.2985 </r>
       <r>    -0.6476     2.4024     9.5926 </r>
       <r>    -0.5251     2.1505     9.8560 </r>
       <r>    -0.4027     2.2245    10.1283 </r>
       <r>    -0.2802     1.3497    10.2936 </r>
       <r>    -0.1578     2.0532    10.5450 </r>
       <r>    -0.0353     2.0864    10.8005 </r>
       <r>     0.0871     2.7508    11.1373 </r>
       <r>     0.2096     1.5974    11.3329 </r>
       <r>     0.3320     1.5948    11.5282 </r>
       <r>     0.4544     0.7519    11.6203 </r>
       <r>     0.5769     1.0251    11.7458 </r>
       <r>     0.6993     1.5976    11.9414 </r>
       <r>     0.8218     0.8155    12.0413 </r>
       <r>     0.9442     1.3811    12.2104 </r>
       <r>     1.0667     1.2041    12.3578 </r>
       <r>     1.1891     1.7037    12.5664 </r>
       <r>     1.3116     0.8839    12.6747 </r>
       <r>     1.4340     0.8301    12.7763 </r>
       <r>     1.5565     1.2890    12.9342 </r>
       <r>     1.6789     1.3350    13.0976 </r>
       <r>     1.8014     0.9977    13.2198 </r>
       <r>     1.9238     1.3283    13.3824 </r>
       <r>     2.0463     1.6782    13.5879 </r>
       <r>     2.1687     2.1584    13.8522 </r>
       <r>     2.2912     1.8806    14.0825 </r>
       <r>     2.4136     2.3996    14.3763 </r>
       <r>     2.5361     1.9779    14.6185 </r>
       <r>     2.6585     2.4396    14.9172 </r>
       <r>     2.7809     1.8825    15.1477 </r>
       <r>     2.9034     1.7417    15.3610 </r>
       <r>     3.0258     1.2815    15.5179 </r>
       <r>     3.1483     2.0040    15.7633 </r>
       <r>     3.2707     2.8782    16.1157 </r>
       <r>     3.3932     3.1469    16.5011 </r>
       <r>     3.5156     1.0124    16.6250 </r>
       <r>     3.6381     1.8954    16.8571 </r>
       <r>     3.7605     2.2001    17.1265 </r>
       <r>     3.8830     2.3900    17.4192 </r>
       <r>     4.0054     2.6911    17.7487 </r>
       <r>     4.1279     2.4262    18.0457 </r>
       <r>     4.2503     2.3932    18.3388 </r>
       <r>     4.3728     1.5887    18.5333 </r>
       <r>     4.4952     2.9593    18.8957 </r>
       <r>     4.6177     3.4376    19.3166 </r>
       <r>     4.7401     3.3294    19.7243 </r>
       <r>     4.8626     2.8335    20.0712 </r>
       <r>     4.9850     2.8558    20.4209 </r>
       <r>     5.1074     2.6850    20.7497 </r>
       <r>     5.2299     2.7080    21.0813 </r>
       <r>     5.3523     4.1777    21.5928 </r>
       <r>     5.4748     4.2118    22.1086 </r>
       <r>     5.5972     2.0812    22.3634 </r>
       <r>     5.7197     1.6454    22.5649 </r>
       <r>     5.8421     3.2827    22.9668 </r>
       <r>     5.9646     3.2021    23.3589 </r>
       <r>     6.0870     4.0324    23.8527 </r>
       <r>     6.2095     2.3067    24.1351 </r>
       <r>     6.3319     2.2923    24.4158 </r>
       <r>     6.4544     3.2172    24.8097 </r>
       <r>     6.5768     2.6216    25.1307 </r>
       <r>     6.6993     2.5079    25.4378 </r>
       <r>     6.8217     3.2413    25.8347 </r>
       <r>     6.9442     2.6762    26.1624 </r>
       <r>     7.0666     2.0624    26.4150 </r>
       <r>     7.1890     2.9121    26.7715 </r>
       <r>     7.3115     3.6302    27.2161 </r>
       <r>     7.4339     2.1129    27.4748 </r>
       <r>     7.5564     1.9398    27.7123 </r>
       <r>     7.6788     2.9442    28.0728 </r>
       <r>     7.8013     1.7531    28.2875 </r>
       <r>     7.9237     3.8379    28.7574 </r>
       <r>     8.0462     2.8740    29.1093 </r>
       <r>     8.1686     1.5804    29.3028 </r>
       <r>     8.2911     1.4686    29.4827 </r>
       <r>     8.4135     2.7273    29.8166 </r>
       <r>     8.5360     1.9085    30.0503 </r>
       <r>     8.6584     2.0312    30.2990 </r>
       <r>     8.7809     1.1213    30.4363 </r>
       <r>     8.9033     0.7249    30.5251 </r>
       <r>     9.0258     1.2251    30.6751 </r>
       <r>     9.1482     1.8009    30.8956 </r>
       <r>     9.2707     1.1709    31.0390 </r>
       <r>     9.3931     0.8770    31.1464 </r>
       <r>     9.5155     0.7748    31.2413 </r>
       <r>     9.6380     0.5526    31.3089 </r>
       <r>     9.7604     1.2118    31.4573 </r>
       <r>     9.8829     0.8514    31.5616 </r>
       <r>    10.0053     0.4735    31.6195 </r>
       <r>    10.1278     0.5748    31.6899 </r>
       <r>    10.2502     0.4445    31.7443 </r>
       <r>    10.3727     0.6832    31.8280 </r>
       <r>    10.4951     0.3323    31.8687 </r>
       <r>    10.6176     0.4573    31.9247 </r>
       <r>    10.7400     0.2059    31.9499 </r>
       <r>    10.8625     0.2662    31.9825 </r>
       <r>    10.9849     0.1321    31.9986 </r>
       <r>    11.1074     0.0110    32.0000 </r>
       <r>    11.2298     0.0000    32.0000 </r>
       <r>    11.3523     0.0000    32.0000 </r>
       <r>    11.4747     0.0000    32.0000 </r>
       <r>    11.5972     0.0000    32.0000 </r>
       <r>    11.7196     0.0000    32.0000 </r>
       <r>    11.8420     0.0000    32.0000 </r>
       <r>    11.9645     0.0000    32.0000 </r>
       <r>    12.0869     0.0000    32.0000 </r>
       <r>    12.2094     0.0000    32.0000 </r>
       <r>    12.3318     0.0000    32.0000 </r>
       <r>    12.4543     0.0000    32.0000 </r>
       <r>    12.5767     0.0000    32.0000 </r>
       <r>    12.6992     0.0000    32.0000 </r>
       <r>    12.8216     0.0000    32.0000 </r>
       <r>    12.9441     0.0000    32.0000 </r>
       <r>    13.0665     0.0000    32.0000 </r>
       <r>    13.1890     0.0000    32.0000 </r>
       <r>    13.3114     0.0000    32.0000 </r>
       <r>    13.4339     0.0000    32.0000 </r>
       <r>    13.5563     0.0000    32.0000 </r>
       <r>    13.6788     0.0000    32.0000 </r>
       <r>    13.8012     0.0000    32.0000 </r>
       <r>    13.9236     0.0000    32.0000 </r>
       <r>    14.0461     0.0000    32.0000 </r>
       <r>    14.1685     0.0000    32.0000 </r>
       <r>    14.2910     0.0000    32.0000 </r>
       <r>    14.4134     0.0000    32.0000 </r>
       <r>    14.5359     0.0000    32.0000 </r>
       <r>    14.6583     0.0000    32.0000 </r>
       <r>    14.7808     0.0000    32.0000 </r>
       <r>    14.9032     0.0000    32.0000 </r>
       <r>    15.0257     0.0000    32.0000 </r>
       <r>    15.1481     0.0002    32.0000 </r>
       <r>    15.2706     0.1766    32.0216 </r>
       <r>    15.3930     0.3780    32.0679 </r>
       <r>    15.5155     0.2598    32.0997 </r>
       <r>    15.6379     0.3274    32.1398 </r>
       <r>    15.7604     1.0642    32.2701 </r>
       <r>    15.8828     0.8856    32.3786 </r>
       <r>    16.0053     0.8761    32.4858 </r>
       <r>    16.1277     0.7092    32.5727 </r>
       <r>    16.2501     0.6007    32.6462 </r>
       <r>    16.3726     1.9711    32.8876 </r>
       <r>    16.4950     1.6482    33.0894 </r>
       <r>    16.6175     1.7391    33.3024 </r>
       <r>    16.7399     1.5955    33.4977 </r>
       <r>    16.8624     1.2962    33.6565 </r>
       <r>    16.9848     2.0191    33.9037 </r>
       <r>    17.1073     1.1166    34.0404 </r>
       <r>    17.2297     2.0374    34.2899 </r>
       <r>    17.3522     2.6467    34.6140 </r>
       <r>    17.4746     2.4869    34.9185 </r>
       <r>    17.5971     2.3225    35.2029 </r>
       <r>    17.7195     1.3984    35.3741 </r>
       <r>    17.8420     1.8069    35.5953 </r>
       <r>    17.9644     3.3619    36.0070 </r>
       <r>    18.0869     2.2422    36.2816 </r>
       <r>    18.2093     2.5455    36.5932 </r>
       <r>    18.3318     1.4925    36.7760 </r>
       <r>    18.4542     2.7663    37.1147 </r>
       <r>    18.5766     3.3810    37.5287 </r>
       <r>    18.6991     3.5557    37.9641 </r>
       <r>    18.8215     3.3489    38.3742 </r>
       <r>    18.9440     3.5827    38.8129 </r>
       <r>    19.0664     3.4702    39.2378 </r>
       <r>    19.1889     2.8950    39.5923 </r>
       <r>    19.3113     3.9301    40.0735 </r>
       <r>    19.4338     3.5037    40.5025 </r>
       <r>    19.5562     3.8054    40.9685 </r>
       <r>    19.6787     4.1425    41.4757 </r>
       <r>    19.8011     5.9785    42.2078 </r>
       <r>    19.9236     3.9032    42.6857 </r>
       <r>    20.0460     2.7419    43.0214 </r>
       <r>    20.1685     3.6026    43.4626 </r>
       <r>    20.2909     2.4490    43.7624 </r>
       <r>    20.4134     2.6617    44.0883 </r>
       <r>    20.5358     2.1450    44.3510 </r>
       <r>    20.6582     2.0972    44.6078 </r>
       <r>    20.7807     4.4621    45.1542 </r>
       <r>    20.9031     2.8645    45.5049 </r>
       <r>    21.0256     3.4978    45.9332 </r>
       <r>    21.1480     2.0368    46.1826 </r>
       <r>    21.2705     2.3593    46.4715 </r>
       <r>    21.3929     2.7583    46.8092 </r>
       <r>    21.5154     1.3347    46.9727 </r>
       <r>    21.6378     0.9581    47.0900 </r>
       <r>    21.7603     1.6995    47.2981 </r>
       <r>    21.8827     1.8478    47.5243 </r>
       <r>    22.0052     1.0125    47.6483 </r>
       <r>    22.1276     1.4375    47.8243 </r>
       <r>    22.2501     0.4484    47.8793 </r>
       <r>    22.3725     0.5951    47.9521 </r>
       <r>    22.4950     0.0739    47.9612 </r>
       <r>    22.6174     0.0314    47.9650 </r>
       <r>    22.7399     0.0000    47.9650 </r>
       <r>    22.8623     0.0314    47.9689 </r>
       <r>    22.9847     0.2507    47.9996 </r>
       <r>    23.1072     0.0036    48.0000 </r>
       <r>    23.2296     0.0000    48.0000 </r>
       <r>    23.3521     0.0000    48.0000 </r>
       <r>    23.4745     0.0000    48.0000 </r>
       <r>    23.5970     0.0000    48.0000 </r>
       <r>    23.7194     0.0000    48.0000 </r>
       <r>    23.8419     0.0000    48.0000 </r>
       <r>    23.9643     0.0000    48.0000 </r>
       <r>    24.0868     0.0000    48.0000 </r>
       <r>    24.2092     0.0000    48.0000 </r>
       <r>    24.3317     0.0000    48.0000 </r>
       <r>    24.4541     0.0000    48.0000 </r>
       <r>    24.5766     0.0000    48.0000 </r>
      </set>
     </set>
    </array>
   </total>
  </dos>
 </calculation>
 <structure name="finalpos" >
  <crystal>
   <varray name="basis" >
    <v>       3.56169305       0.00000000       0.00000000 </v>
    <v>       0.00000000       3.56169305       0.00000000 </v>
    <v>       0.00000000       0.00000000       3.56169305 </v>
   </varray>
   <i name="volume">     45.18241789 </i>
   <varray name="rec_basis" >
    <v>       0.28076535       0.00000000       0.00000000 </v>
    <v>       0.00000000       0.28076535       0.00000000 </v>
    <v>       0.00000000       0.00000000       0.28076535 </v>
   </varray>
  </crystal>
  <varray name="positions" >
   <v>       0.25000000       0.25000000       0.25000000 </v>
   <v>       0.00000000       0.00000000       0.00000000 </v>
   <v>       0.25000000       0.75000000       0.75000000 </v>
   <v>       0.00000000       0.50000000       0.50000000 </v>
   <v>       0.75000000       0.25000000       0.75000000 </v>
   <v>       0.50000000       0.00000000       0.50000000 </v>
   <v>       0.75000000       0.75000000       0.25000000 </v>
   <v>       0.50000000       0.50000000       0.00000000 </v>
  </varray>
 </structure>
</modeling>
