   4   4   0   0
  0.1823406E+02  0.4178122E-09  0.4178122E-09  0.4178122E-09  0.2000000E-15
  1.000000000000000E-004
  CAR 
 unknown system                          
     18.59833240     -1.77436400  301      8.42278909      1.00000000
     -1.774  0.0000E+00  0.0000E+00
     -1.706  0.0000E+00  0.0000E+00
     -1.639  0.0000E+00  0.0000E+00
     -1.571  0.0000E+00  0.0000E+00
     -1.503  0.0000E+00  0.0000E+00
     -1.435  0.0000E+00  0.0000E+00
     -1.367  0.0000E+00  0.0000E+00
     -1.299  0.5275E-17  0.3582E-18
     -1.231  0.4818E-14  0.3275E-15
     -1.163  0.1824E-11  0.1242E-12
     -1.095  0.2916E-09  0.1993E-10
     -1.027  0.2032E-07  0.1400E-08
     -0.959  0.6450E-06  0.4520E-07
     -0.892  0.9838E-05  0.7133E-06
     -0.824  0.7589E-04  0.5867E-05
     -0.756  0.3099E-03  0.2691E-04
     -0.688  0.7143E-03  0.7542E-04
     -0.620  0.1105E-02  0.1505E-03
     -0.552  0.1527E-02  0.2542E-03
     -0.484  0.1866E-02  0.3809E-03
     -0.416  0.1877E-02  0.5084E-03
     -0.348  0.2168E-02  0.6556E-03
     -0.280  0.2650E-02  0.8356E-03
     -0.212  0.2762E-02  0.1023E-02
     -0.145  0.2878E-02  0.1219E-02
     -0.077  0.2901E-02  0.1416E-02
     -0.009  0.2922E-02  0.1614E-02
      0.059  0.3617E-02  0.1860E-02
      0.127  0.4136E-02  0.2140E-02
      0.195  0.4141E-02  0.2422E-02
      0.263  0.3648E-02  0.2669E-02
      0.331  0.3374E-02  0.2899E-02
      0.399  0.4418E-02  0.3199E-02
      0.467  0.5396E-02  0.3565E-02
      0.535  0.5344E-02  0.3928E-02
      0.602  0.4924E-02  0.4262E-02
      0.670  0.4882E-02  0.4594E-02
      0.738  0.5487E-02  0.4966E-02
      0.806  0.5840E-02  0.5363E-02
      0.874  0.5859E-02  0.5761E-02
      0.942  0.6158E-02  0.6179E-02
      1.010  0.7263E-02  0.6672E-02
      1.078  0.8094E-02  0.7222E-02
      1.146  0.7616E-02  0.7739E-02
      1.214  0.7163E-02  0.8226E-02
      1.282  0.7215E-02  0.8716E-02
      1.349  0.8859E-02  0.9317E-02
      1.417  0.1158E-01  0.1010E-01
      1.485  0.1223E-01  0.1093E-01
      1.553  0.1140E-01  0.1171E-01
      1.621  0.1448E-01  0.1269E-01
      1.689  0.2087E-01  0.1411E-01
      1.757  0.2588E-01  0.1587E-01
      1.825  0.2824E-01  0.1778E-01
      1.893  0.2852E-01  0.1972E-01
      1.961  0.3136E-01  0.2185E-01
      2.029  0.3875E-01  0.2448E-01
      2.096  0.4534E-01  0.2756E-01
      2.164  0.5070E-01  0.3100E-01
      2.232  0.5746E-01  0.3491E-01
      2.300  0.6641E-01  0.3941E-01
      2.368  0.7427E-01  0.4446E-01
      2.436  0.7954E-01  0.4986E-01
      2.504  0.8136E-01  0.5538E-01
      2.572  0.8012E-01  0.6083E-01
      2.640  0.7909E-01  0.6620E-01
      2.708  0.7498E-01  0.7129E-01
      2.776  0.7181E-01  0.7616E-01
      2.843  0.7241E-01  0.8108E-01
      2.911  0.6961E-01  0.8581E-01
      2.979  0.6632E-01  0.9031E-01
      3.047  0.6195E-01  0.9452E-01
      3.115  0.5495E-01  0.9825E-01
      3.183  0.5462E-01  0.1020E+00
      3.251  0.5925E-01  0.1060E+00
      3.319  0.6524E-01  0.1104E+00
      3.387  0.7298E-01  0.1154E+00
      3.455  0.8088E-01  0.1209E+00
      3.523  0.8626E-01  0.1267E+00
      3.590  0.8879E-01  0.1328E+00
      3.658  0.8696E-01  0.1387E+00
      3.726  0.8608E-01  0.1445E+00
      3.794  0.8998E-01  0.1506E+00
      3.862  0.9256E-01  0.1569E+00
      3.930  0.9196E-01  0.1631E+00
      3.998  0.9274E-01  0.1694E+00
      4.066  0.9845E-01  0.1761E+00
      4.134  0.1097E+00  0.1836E+00
      4.202  0.1248E+00  0.1921E+00
      4.270  0.1376E+00  0.2014E+00
      4.337  0.1435E+00  0.2111E+00
      4.405  0.1342E+00  0.2203E+00
      4.473  0.1108E+00  0.2278E+00
      4.541  0.9360E-01  0.2341E+00
      4.609  0.8458E-01  0.2399E+00
      4.677  0.7823E-01  0.2452E+00
      4.745  0.7496E-01  0.2503E+00
      4.813  0.7218E-01  0.2552E+00
      4.881  0.7107E-01  0.2600E+00
      4.949  0.7382E-01  0.2650E+00
      5.017  0.8045E-01  0.2705E+00
      5.084  0.8902E-01  0.2765E+00
      5.152  0.9250E-01  0.2828E+00
      5.220  0.9259E-01  0.2891E+00
      5.288  0.9557E-01  0.2956E+00
      5.356  0.9683E-01  0.3022E+00
      5.424  0.9099E-01  0.3083E+00
      5.492  0.8383E-01  0.3140E+00
      5.560  0.8305E-01  0.3197E+00
      5.628  0.8266E-01  0.3253E+00
      5.696  0.7745E-01  0.3306E+00
      5.764  0.7099E-01  0.3354E+00
      5.831  0.6973E-01  0.3401E+00
      5.899  0.7409E-01  0.3451E+00
      5.967  0.7762E-01  0.3504E+00
      6.035  0.7640E-01  0.3556E+00
      6.103  0.7933E-01  0.3610E+00
      6.171  0.8794E-01  0.3670E+00
      6.239  0.9361E-01  0.3733E+00
      6.307  0.1053E+00  0.3805E+00
      6.375  0.1265E+00  0.3891E+00
      6.443  0.1316E+00  0.3980E+00
      6.511  0.1113E+00  0.4056E+00
      6.578  0.8326E-01  0.4112E+00
      6.646  0.5829E-01  0.4152E+00
      6.714  0.4306E-01  0.4181E+00
      6.782  0.3409E-01  0.4204E+00
      6.850  0.2470E-01  0.4221E+00
      6.918  0.1358E-01  0.4230E+00
      6.986  0.7081E-02  0.4235E+00
      7.054  0.7021E-02  0.4240E+00
      7.122  0.1039E-01  0.4247E+00
      7.190  0.1466E-01  0.4257E+00
      7.258  0.1543E-01  0.4267E+00
      7.325  0.1232E-01  0.4275E+00
      7.393  0.9110E-02  0.4282E+00
      7.461  0.8647E-02  0.4288E+00
      7.529  0.1136E-01  0.4295E+00
      7.597  0.1460E-01  0.4305E+00
      7.665  0.1444E-01  0.4315E+00
      7.733  0.1200E-01  0.4323E+00
      7.801  0.9849E-02  0.4330E+00
      7.869  0.9073E-02  0.4336E+00
      7.937  0.1026E-01  0.4343E+00
      8.005  0.1284E-01  0.4352E+00
      8.072  0.1504E-01  0.4362E+00
      8.140  0.1427E-01  0.4372E+00
      8.208  0.1209E-01  0.4380E+00
      8.276  0.1070E-01  0.4387E+00
      8.344  0.9380E-02  0.4393E+00
      8.412  0.8339E-02  0.4399E+00
      8.480  0.9559E-02  0.4406E+00
      8.548  0.1313E-01  0.4414E+00
      8.616  0.1539E-01  0.4425E+00
      8.684  0.1549E-01  0.4435E+00
      8.752  0.1465E-01  0.4445E+00
      8.819  0.1141E-01  0.4453E+00
      8.887  0.7556E-02  0.4458E+00
      8.955  0.7618E-02  0.4463E+00
      9.023  0.9988E-02  0.4470E+00
      9.091  0.1164E-01  0.4478E+00
      9.159  0.1326E-01  0.4487E+00
      9.227  0.1350E-01  0.4496E+00
      9.295  0.1255E-01  0.4505E+00
      9.363  0.1221E-01  0.4513E+00
      9.431  0.1131E-01  0.4521E+00
      9.499  0.1037E-01  0.4528E+00
      9.566  0.1106E-01  0.4535E+00
      9.634  0.1260E-01  0.4544E+00
      9.702  0.1199E-01  0.4552E+00
      9.770  0.1017E-01  0.4559E+00
      9.838  0.1066E-01  0.4566E+00
      9.906  0.1176E-01  0.4574E+00
      9.974  0.1157E-01  0.4582E+00
     10.042  0.1143E-01  0.4590E+00
     10.110  0.1089E-01  0.4597E+00
     10.178  0.9996E-02  0.4604E+00
     10.246  0.1016E-01  0.4611E+00
     10.313  0.1239E-01  0.4619E+00
     10.381  0.1342E-01  0.4628E+00
     10.449  0.1115E-01  0.4636E+00
     10.517  0.9232E-02  0.4642E+00
     10.585  0.9298E-02  0.4649E+00
     10.653  0.9717E-02  0.4655E+00
     10.721  0.1040E-01  0.4662E+00
     10.789  0.1149E-01  0.4670E+00
     10.857  0.1161E-01  0.4678E+00
     10.925  0.1048E-01  0.4685E+00
     10.993  0.8735E-02  0.4691E+00
     11.060  0.9945E-02  0.4698E+00
     11.128  0.1688E-01  0.4709E+00
     11.196  0.2284E-01  0.4725E+00
     11.264  0.2108E-01  0.4739E+00
     11.332  0.1602E-01  0.4750E+00
     11.400  0.1309E-01  0.4759E+00
     11.468  0.1403E-01  0.4768E+00
     11.536  0.1569E-01  0.4779E+00
     11.604  0.1495E-01  0.4789E+00
     11.672  0.1392E-01  0.4799E+00
     11.740  0.1456E-01  0.4808E+00
     11.807  0.1429E-01  0.4818E+00
     11.875  0.1180E-01  0.4826E+00
     11.943  0.8590E-02  0.4832E+00
     12.011  0.7733E-02  0.4837E+00
     12.079  0.1109E-01  0.4845E+00
     12.147  0.1416E-01  0.4854E+00
     12.215  0.1272E-01  0.4863E+00
     12.283  0.1083E-01  0.4870E+00
     12.351  0.1047E-01  0.4878E+00
     12.419  0.9984E-02  0.4884E+00
     12.487  0.8711E-02  0.4890E+00
     12.554  0.8293E-02  0.4896E+00
     12.622  0.9639E-02  0.4902E+00
     12.690  0.1132E-01  0.4910E+00
     12.758  0.1278E-01  0.4919E+00
     12.826  0.1370E-01  0.4928E+00
     12.894  0.1367E-01  0.4937E+00
     12.962  0.1348E-01  0.4947E+00
     13.030  0.1162E-01  0.4954E+00
     13.098  0.1019E-01  0.4961E+00
     13.166  0.1326E-01  0.4970E+00
     13.234  0.1705E-01  0.4982E+00
     13.301  0.1707E-01  0.4994E+00
     13.369  0.1372E-01  0.5003E+00
     13.437  0.1093E-01  0.5010E+00
     13.505  0.1128E-01  0.5018E+00
     13.573  0.1365E-01  0.5027E+00
     13.641  0.1619E-01  0.5038E+00
     13.709  0.1752E-01  0.5050E+00
     13.777  0.1657E-01  0.5061E+00
     13.845  0.1597E-01  0.5072E+00
     13.913  0.1760E-01  0.5084E+00
     13.981  0.1635E-01  0.5095E+00
     14.048  0.1306E-01  0.5104E+00
     14.116  0.1024E-01  0.5111E+00
     14.184  0.8184E-02  0.5117E+00
     14.252  0.8348E-02  0.5122E+00
     14.320  0.1065E-01  0.5130E+00
     14.388  0.1374E-01  0.5139E+00
     14.456  0.1454E-01  0.5149E+00
     14.524  0.1123E-01  0.5156E+00
     14.592  0.8707E-02  0.5162E+00
     14.660  0.8404E-02  0.5168E+00
     14.728  0.8396E-02  0.5174E+00
     14.795  0.9687E-02  0.5180E+00
     14.863  0.1299E-01  0.5189E+00
     14.931  0.1426E-01  0.5199E+00
     14.999  0.1252E-01  0.5207E+00
     15.067  0.1096E-01  0.5215E+00
     15.135  0.1025E-01  0.5222E+00
     15.203  0.1049E-01  0.5229E+00
     15.271  0.1177E-01  0.5237E+00
     15.339  0.1385E-01  0.5246E+00
     15.407  0.1363E-01  0.5255E+00
     15.475  0.9640E-02  0.5262E+00
     15.542  0.7571E-02  0.5267E+00
     15.610  0.9482E-02  0.5274E+00
     15.678  0.1067E-01  0.5281E+00
     15.746  0.9229E-02  0.5287E+00
     15.814  0.8268E-02  0.5293E+00
     15.882  0.1039E-01  0.5300E+00
     15.950  0.1562E-01  0.5310E+00
     16.018  0.1814E-01  0.5323E+00
     16.086  0.1378E-01  0.5332E+00
     16.154  0.9110E-02  0.5338E+00
     16.222  0.8556E-02  0.5344E+00
     16.289  0.8311E-02  0.5350E+00
     16.357  0.6854E-02  0.5354E+00
     16.425  0.6163E-02  0.5358E+00
     16.493  0.7477E-02  0.5364E+00
     16.561  0.1003E-01  0.5370E+00
     16.629  0.9627E-02  0.5377E+00
     16.697  0.5629E-02  0.5381E+00
     16.765  0.2314E-02  0.5382E+00
     16.833  0.1420E-02  0.5383E+00
     16.901  0.2116E-02  0.5385E+00
     16.969  0.2700E-02  0.5387E+00
     17.036  0.2905E-02  0.5389E+00
     17.104  0.3206E-02  0.5391E+00
     17.172  0.3177E-02  0.5393E+00
     17.240  0.2718E-02  0.5395E+00
     17.308  0.2159E-02  0.5396E+00
     17.376  0.1482E-02  0.5397E+00
     17.444  0.1391E-02  0.5398E+00
     17.512  0.1515E-02  0.5399E+00
     17.580  0.9043E-03  0.5400E+00
     17.648  0.2772E-03  0.5400E+00
     17.716  0.5701E-04  0.5400E+00
     17.783  0.8802E-05  0.5400E+00
     17.851  0.7637E-06  0.5400E+00
     17.919  0.2990E-07  0.5400E+00
     17.987  0.4920E-09  0.5400E+00
     18.055  0.3330E-11  0.5400E+00
     18.123  0.9181E-14  0.5400E+00
     18.191  0.1027E-16  0.5400E+00
     18.259  0.0000E+00  0.5400E+00
     18.327  0.0000E+00  0.5400E+00
     18.395  0.0000E+00  0.5400E+00
     18.463  0.0000E+00  0.5400E+00
     18.530  0.0000E+00  0.5400E+00
     18.598  0.0000E+00  0.5400E+00
