       N       E                     dE             d eps       ncg     rms          rms(c)
DAV:   1     0.272956483618E+03    0.27296E+03   -0.22559E+04 91944   0.152E+03
DAV:   2    -0.893206393278E+01   -0.28189E+03   -0.27391E+03105786   0.325E+02
DAV:   3    -0.138934866758E+02   -0.49614E+01   -0.49266E+01101304   0.453E+01
DAV:   4    -0.139230107028E+02   -0.29524E-01   -0.29506E-01104976   0.362E+00
DAV:   5    -0.139232929081E+02   -0.28221E-03   -0.28220E-03106596   0.367E-01    0.152E+01
RMM:   6    -0.129436125504E+02    0.97968E+00   -0.25979E+00 91156   0.105E+01    0.998E+00
RMM:   7    -0.128873526615E+02    0.56260E-01   -0.29905E-01 91196   0.341E+00    0.477E+00
RMM:   8    -0.128796960018E+02    0.76567E-02   -0.13109E-02 91212   0.739E-01    0.520E-01
RMM:   9    -0.128795773647E+02    0.11864E-03   -0.28181E-04 91188   0.943E-02    0.393E-02
RMM:  10    -0.128795936571E+02   -0.16292E-04   -0.18439E-05 90992   0.334E-02    0.302E-02
RMM:  11    -0.128795954539E+02   -0.17968E-05   -0.70208E-07 50371   0.475E-03    0.637E-04
RMM:  12    -0.128795953725E+02    0.81316E-07   -0.12545E-07 41826   0.223E-03
   1 F= -.12879595E+02 E0= -.12877436E+02  d E =-.128796E+02
