unknown system                          
           1
     4.178122   -0.000000   -0.000000
    -0.000000    4.178122    0.000000
    -0.000000    0.000000    4.178122
   Au
   4
Direct configuration=     1
   1.00000000  0.00000000  0.00000000
   0.00000000  0.50000000  0.50000000
   0.50000000  1.00000000  0.50000000
   0.50000000  0.50000000  1.00000000
