   4   4   0   0
  0.1885666E+02  0.4388826E-09  0.4160661E-09  0.4154382E-09  0.2000000E-15
  1.000000000000000E-004
  CAR 
 unknown system                          
     18.62296568     -1.96578797  301      7.87153168      1.00000000
     -1.966  0.0000E+00  0.0000E+00
     -1.897  0.0000E+00  0.0000E+00
     -1.829  0.0000E+00  0.0000E+00
     -1.760  0.0000E+00  0.0000E+00
     -1.691  0.0000E+00  0.0000E+00
     -1.623  0.0000E+00  0.0000E+00
     -1.554  0.4793E-20  0.3290E-21
     -1.485  0.8939E-17  0.6138E-18
     -1.417  0.8228E-14  0.5653E-15
     -1.348  0.3079E-11  0.2119E-12
     -1.279  0.4800E-09  0.3315E-10
     -1.211  0.3226E-07  0.2247E-08
     -1.142  0.9789E-06  0.6943E-07
     -1.074  0.1412E-04  0.1038E-05
     -1.005  0.1016E-03  0.8010E-05
     -0.936  0.3820E-03  0.3423E-04
     -0.868  0.8185E-03  0.9040E-04
     -0.799  0.1241E-02  0.1756E-03
     -0.730  0.1686E-02  0.2913E-03
     -0.662  0.1944E-02  0.4247E-03
     -0.593  0.2025E-02  0.5637E-03
     -0.525  0.2424E-02  0.7301E-03
     -0.456  0.2843E-02  0.9252E-03
     -0.387  0.2897E-02  0.1124E-02
     -0.319  0.2925E-02  0.1325E-02
     -0.250  0.3109E-02  0.1538E-02
     -0.181  0.3469E-02  0.1776E-02
     -0.113  0.4006E-02  0.2051E-02
     -0.044  0.4191E-02  0.2339E-02
      0.024  0.3929E-02  0.2608E-02
      0.093  0.3885E-02  0.2875E-02
      0.162  0.4430E-02  0.3179E-02
      0.230  0.5059E-02  0.3526E-02
      0.299  0.5315E-02  0.3891E-02
      0.368  0.5413E-02  0.4262E-02
      0.436  0.5461E-02  0.4637E-02
      0.505  0.5548E-02  0.5018E-02
      0.573  0.5848E-02  0.5419E-02
      0.642  0.6244E-02  0.5848E-02
      0.711  0.6950E-02  0.6325E-02
      0.779  0.7709E-02  0.6854E-02
      0.848  0.7865E-02  0.7394E-02
      0.917  0.7788E-02  0.7928E-02
      0.985  0.8311E-02  0.8499E-02
      1.054  0.9293E-02  0.9136E-02
      1.123  0.1063E-01  0.9866E-02
      1.191  0.1219E-01  0.1070E-01
      1.260  0.1440E-01  0.1169E-01
      1.328  0.1727E-01  0.1288E-01
      1.397  0.1905E-01  0.1418E-01
      1.466  0.2014E-01  0.1557E-01
      1.534  0.2319E-01  0.1716E-01
      1.603  0.2862E-01  0.1912E-01
      1.672  0.3533E-01  0.2155E-01
      1.740  0.4267E-01  0.2447E-01
      1.809  0.4935E-01  0.2786E-01
      1.877  0.5502E-01  0.3164E-01
      1.946  0.6017E-01  0.3577E-01
      2.015  0.6653E-01  0.4033E-01
      2.083  0.7304E-01  0.4534E-01
      2.152  0.7632E-01  0.5058E-01
      2.221  0.7653E-01  0.5583E-01
      2.289  0.7628E-01  0.6107E-01
      2.358  0.7599E-01  0.6628E-01
      2.426  0.7437E-01  0.7139E-01
      2.495  0.7376E-01  0.7645E-01
      2.564  0.7385E-01  0.8152E-01
      2.632  0.7129E-01  0.8641E-01
      2.701  0.6800E-01  0.9108E-01
      2.770  0.6541E-01  0.9557E-01
      2.838  0.6485E-01  0.1000E+00
      2.907  0.6957E-01  0.1048E+00
      2.976  0.7789E-01  0.1101E+00
      3.044  0.8760E-01  0.1161E+00
      3.113  0.9938E-01  0.1230E+00
      3.181  0.1091E+00  0.1305E+00
      3.250  0.1120E+00  0.1381E+00
      3.319  0.1088E+00  0.1456E+00
      3.387  0.1023E+00  0.1526E+00
      3.456  0.9596E-01  0.1592E+00
      3.525  0.9331E-01  0.1656E+00
      3.593  0.9439E-01  0.1721E+00
      3.662  0.9626E-01  0.1787E+00
      3.730  0.9766E-01  0.1854E+00
      3.799  0.9612E-01  0.1920E+00
      3.868  0.9107E-01  0.1983E+00
      3.936  0.8543E-01  0.2041E+00
      4.005  0.8484E-01  0.2099E+00
      4.074  0.8949E-01  0.2161E+00
      4.142  0.9704E-01  0.2227E+00
      4.211  0.1038E+00  0.2299E+00
      4.279  0.1042E+00  0.2370E+00
      4.348  0.1005E+00  0.2439E+00
      4.417  0.9740E-01  0.2506E+00
      4.485  0.9415E-01  0.2571E+00
      4.554  0.9048E-01  0.2633E+00
      4.623  0.9037E-01  0.2695E+00
      4.691  0.9399E-01  0.2759E+00
      4.760  0.9911E-01  0.2827E+00
      4.829  0.1036E+00  0.2898E+00
      4.897  0.1032E+00  0.2969E+00
      4.966  0.9842E-01  0.3037E+00
      5.034  0.9454E-01  0.3102E+00
      5.103  0.9375E-01  0.3166E+00
      5.172  0.9248E-01  0.3229E+00
      5.240  0.8911E-01  0.3291E+00
      5.309  0.8744E-01  0.3351E+00
      5.378  0.8849E-01  0.3411E+00
      5.446  0.8979E-01  0.3473E+00
      5.515  0.9127E-01  0.3536E+00
      5.583  0.9478E-01  0.3601E+00
      5.652  0.1004E+00  0.3670E+00
      5.721  0.1057E+00  0.3742E+00
      5.789  0.1050E+00  0.3814E+00
      5.858  0.1002E+00  0.3883E+00
      5.927  0.9974E-01  0.3951E+00
      5.995  0.9966E-01  0.4020E+00
      6.064  0.9004E-01  0.4082E+00
      6.132  0.7176E-01  0.4131E+00
      6.201  0.5247E-01  0.4167E+00
      6.270  0.3708E-01  0.4192E+00
      6.338  0.2621E-01  0.4210E+00
      6.407  0.1896E-01  0.4223E+00
      6.476  0.1465E-01  0.4233E+00
      6.544  0.1321E-01  0.4242E+00
      6.613  0.1309E-01  0.4251E+00
      6.681  0.1173E-01  0.4259E+00
      6.750  0.1067E-01  0.4267E+00
      6.819  0.1094E-01  0.4274E+00
      6.887  0.1135E-01  0.4282E+00
      6.956  0.1186E-01  0.4290E+00
      7.025  0.1240E-01  0.4299E+00
      7.093  0.1252E-01  0.4307E+00
      7.162  0.1203E-01  0.4316E+00
      7.231  0.1137E-01  0.4323E+00
      7.299  0.1133E-01  0.4331E+00
      7.368  0.1183E-01  0.4339E+00
      7.436  0.1224E-01  0.4348E+00
      7.505  0.1187E-01  0.4356E+00
      7.574  0.1128E-01  0.4364E+00
      7.642  0.1132E-01  0.4371E+00
      7.711  0.1169E-01  0.4379E+00
      7.780  0.1245E-01  0.4388E+00
      7.848  0.1318E-01  0.4397E+00
      7.917  0.1294E-01  0.4406E+00
      7.985  0.1165E-01  0.4414E+00
      8.054  0.1069E-01  0.4421E+00
      8.123  0.1080E-01  0.4429E+00
      8.191  0.1117E-01  0.4436E+00
      8.260  0.1172E-01  0.4444E+00
      8.329  0.1268E-01  0.4453E+00
      8.397  0.1321E-01  0.4462E+00
      8.466  0.1283E-01  0.4471E+00
      8.534  0.1203E-01  0.4479E+00
      8.603  0.1100E-01  0.4487E+00
      8.672  0.1049E-01  0.4494E+00
      8.740  0.1131E-01  0.4502E+00
      8.809  0.1244E-01  0.4510E+00
      8.878  0.1253E-01  0.4519E+00
      8.946  0.1234E-01  0.4527E+00
      9.015  0.1194E-01  0.4535E+00
      9.084  0.1094E-01  0.4543E+00
      9.152  0.1072E-01  0.4550E+00
      9.221  0.1123E-01  0.4558E+00
      9.289  0.1171E-01  0.4566E+00
      9.358  0.1188E-01  0.4574E+00
      9.427  0.1220E-01  0.4583E+00
      9.495  0.1255E-01  0.4591E+00
      9.564  0.1207E-01  0.4599E+00
      9.633  0.1153E-01  0.4607E+00
      9.701  0.1137E-01  0.4615E+00
      9.770  0.1097E-01  0.4623E+00
      9.838  0.1164E-01  0.4631E+00
      9.907  0.1395E-01  0.4640E+00
      9.976  0.1548E-01  0.4651E+00
     10.044  0.1541E-01  0.4661E+00
     10.113  0.1503E-01  0.4672E+00
     10.182  0.1438E-01  0.4682E+00
     10.250  0.1345E-01  0.4691E+00
     10.319  0.1279E-01  0.4700E+00
     10.387  0.1261E-01  0.4708E+00
     10.456  0.1247E-01  0.4717E+00
     10.525  0.1180E-01  0.4725E+00
     10.593  0.1106E-01  0.4733E+00
     10.662  0.1096E-01  0.4740E+00
     10.731  0.1146E-01  0.4748E+00
     10.799  0.1206E-01  0.4756E+00
     10.868  0.1221E-01  0.4765E+00
     10.936  0.1167E-01  0.4773E+00
     11.005  0.1078E-01  0.4780E+00
     11.074  0.1047E-01  0.4787E+00
     11.142  0.1153E-01  0.4795E+00
     11.211  0.1315E-01  0.4804E+00
     11.280  0.1421E-01  0.4814E+00
     11.348  0.1419E-01  0.4824E+00
     11.417  0.1360E-01  0.4833E+00
     11.486  0.1355E-01  0.4842E+00
     11.554  0.1354E-01  0.4852E+00
     11.623  0.1263E-01  0.4860E+00
     11.691  0.1135E-01  0.4868E+00
     11.760  0.1067E-01  0.4875E+00
     11.829  0.1059E-01  0.4883E+00
     11.897  0.1104E-01  0.4890E+00
     11.966  0.1166E-01  0.4898E+00
     12.035  0.1199E-01  0.4906E+00
     12.103  0.1180E-01  0.4914E+00
     12.172  0.1166E-01  0.4922E+00
     12.240  0.1186E-01  0.4931E+00
     12.309  0.1215E-01  0.4939E+00
     12.378  0.1251E-01  0.4948E+00
     12.446  0.1311E-01  0.4957E+00
     12.515  0.1377E-01  0.4966E+00
     12.584  0.1392E-01  0.4976E+00
     12.652  0.1337E-01  0.4985E+00
     12.721  0.1268E-01  0.4993E+00
     12.789  0.1244E-01  0.5002E+00
     12.858  0.1331E-01  0.5011E+00
     12.927  0.1493E-01  0.5021E+00
     12.995  0.1617E-01  0.5032E+00
     13.064  0.1585E-01  0.5043E+00
     13.133  0.1483E-01  0.5053E+00
     13.201  0.1488E-01  0.5064E+00
     13.270  0.1521E-01  0.5074E+00
     13.339  0.1453E-01  0.5084E+00
     13.407  0.1355E-01  0.5093E+00
     13.476  0.1339E-01  0.5103E+00
     13.544  0.1395E-01  0.5112E+00
     13.613  0.1361E-01  0.5122E+00
     13.682  0.1293E-01  0.5130E+00
     13.750  0.1322E-01  0.5139E+00
     13.819  0.1339E-01  0.5149E+00
     13.888  0.1281E-01  0.5157E+00
     13.956  0.1243E-01  0.5166E+00
     14.025  0.1202E-01  0.5174E+00
     14.093  0.1094E-01  0.5182E+00
     14.162  0.9849E-02  0.5188E+00
     14.231  0.9662E-02  0.5195E+00
     14.299  0.1020E-01  0.5202E+00
     14.368  0.1070E-01  0.5209E+00
     14.437  0.1055E-01  0.5217E+00
     14.505  0.1038E-01  0.5224E+00
     14.574  0.1096E-01  0.5231E+00
     14.642  0.1157E-01  0.5239E+00
     14.711  0.1233E-01  0.5248E+00
     14.780  0.1344E-01  0.5257E+00
     14.848  0.1338E-01  0.5266E+00
     14.917  0.1177E-01  0.5274E+00
     14.986  0.9888E-02  0.5281E+00
     15.054  0.9605E-02  0.5288E+00
     15.123  0.1063E-01  0.5295E+00
     15.192  0.1115E-01  0.5303E+00
     15.260  0.1111E-01  0.5310E+00
     15.329  0.1159E-01  0.5318E+00
     15.397  0.1212E-01  0.5326E+00
     15.466  0.1105E-01  0.5334E+00
     15.535  0.9437E-02  0.5341E+00
     15.603  0.8768E-02  0.5347E+00
     15.672  0.8614E-02  0.5352E+00
     15.741  0.8536E-02  0.5358E+00
     15.809  0.7812E-02  0.5364E+00
     15.878  0.6401E-02  0.5368E+00
     15.946  0.5459E-02  0.5372E+00
     16.015  0.5047E-02  0.5375E+00
     16.084  0.4694E-02  0.5378E+00
     16.152  0.4335E-02  0.5381E+00
     16.221  0.4332E-02  0.5384E+00
     16.290  0.4227E-02  0.5387E+00
     16.358  0.3545E-02  0.5390E+00
     16.427  0.2888E-02  0.5392E+00
     16.495  0.2422E-02  0.5393E+00
     16.564  0.1892E-02  0.5395E+00
     16.633  0.1195E-02  0.5396E+00
     16.701  0.7220E-03  0.5396E+00
     16.770  0.7196E-03  0.5397E+00
     16.839  0.8600E-03  0.5397E+00
     16.907  0.8210E-03  0.5398E+00
     16.976  0.6139E-03  0.5398E+00
     17.044  0.3968E-03  0.5398E+00
     17.113  0.2266E-03  0.5399E+00
     17.182  0.1166E-03  0.5399E+00
     17.250  0.1551E-03  0.5399E+00
     17.319  0.2834E-03  0.5399E+00
     17.388  0.3761E-03  0.5399E+00
     17.456  0.4127E-03  0.5399E+00
     17.525  0.3394E-03  0.5400E+00
     17.594  0.2231E-03  0.5400E+00
     17.662  0.1568E-03  0.5400E+00
     17.731  0.8065E-04  0.5400E+00
     17.799  0.1984E-04  0.5400E+00
     17.868  0.2070E-05  0.5400E+00
     17.937  0.8890E-07  0.5400E+00
     18.005  0.1551E-08  0.5400E+00
     18.074  0.1089E-10  0.5400E+00
     18.143  0.3055E-13  0.5400E+00
     18.211  0.3411E-16  0.5400E+00
     18.280  0.0000E+00  0.5400E+00
     18.348  0.0000E+00  0.5400E+00
     18.417  0.0000E+00  0.5400E+00
     18.486  0.0000E+00  0.5400E+00
     18.554  0.0000E+00  0.5400E+00
     18.623  0.0000E+00  0.5400E+00
