       N       E                     dE             d eps       ncg     rms          rms(c)
DAV:   1     0.270253888344E+03    0.27025E+03   -0.22441E+04 91908   0.151E+03
DAV:   2    -0.878315067194E+01   -0.27904E+03   -0.27084E+03105984   0.322E+02
DAV:   3    -0.137887561288E+02   -0.50056E+01   -0.49688E+01101745   0.450E+01
DAV:   4    -0.138194079164E+02   -0.30652E-01   -0.30636E-01104706   0.368E+00
DAV:   5    -0.138197134368E+02   -0.30552E-03   -0.30551E-03106965   0.381E-01    0.139E+01
RMM:   6    -0.128305677328E+02    0.98915E+00   -0.27122E+00 91152   0.107E+01    0.930E+00
RMM:   7    -0.127817444920E+02    0.48823E-01   -0.26006E-01 91220   0.313E+00    0.473E+00
RMM:   8    -0.127749554255E+02    0.67891E-02   -0.11322E-02 91239   0.687E-01    0.512E-01
RMM:   9    -0.127747992015E+02    0.15622E-03   -0.41876E-04 91229   0.118E-01    0.410E-02
RMM:  10    -0.127748178454E+02   -0.18644E-04   -0.27263E-05 91261   0.379E-02    0.239E-02
RMM:  11    -0.127748190752E+02   -0.12298E-05   -0.12146E-06 51187   0.613E-03    0.134E-03
RMM:  12    -0.127748189626E+02    0.11262E-06   -0.16525E-07 48149   0.260E-03
   1 F= -.12774819E+02 E0= -.12771536E+02  d E =-.127748E+02
