   4   4   0   0
  0.1885368E+02  0.4382874E-09  0.4160661E-09  0.4160661E-09  0.2000000E-15
  1.000000000000000E-004
  CAR 
 unknown system                          
     18.85276258     -1.97039418  301      7.88549667      1.00000000
     -1.970  0.0000E+00  0.0000E+00
     -1.901  0.0000E+00  0.0000E+00
     -1.832  0.0000E+00  0.0000E+00
     -1.762  0.0000E+00  0.0000E+00
     -1.693  0.0000E+00  0.0000E+00
     -1.623  0.0000E+00  0.0000E+00
     -1.554  0.4739E-20  0.3290E-21
     -1.485  0.1577E-16  0.1095E-17
     -1.415  0.1450E-13  0.1007E-14
     -1.346  0.5323E-11  0.3705E-12
     -1.276  0.8002E-09  0.5592E-10
     -1.207  0.5113E-07  0.3605E-08
     -1.137  0.1459E-05  0.1048E-06
     -1.068  0.1960E-04  0.1465E-05
     -0.999  0.1302E-03  0.1050E-04
     -0.929  0.4494E-03  0.4169E-04
     -0.860  0.8968E-03  0.1039E-03
     -0.790  0.1328E-02  0.1961E-03
     -0.721  0.1761E-02  0.3184E-03
     -0.652  0.1963E-02  0.4546E-03
     -0.582  0.2108E-02  0.6009E-03
     -0.513  0.2521E-02  0.7759E-03
     -0.443  0.2874E-02  0.9754E-03
     -0.374  0.2977E-02  0.1182E-02
     -0.305  0.2939E-02  0.1386E-02
     -0.235  0.3114E-02  0.1602E-02
     -0.166  0.3718E-02  0.1860E-02
     -0.096  0.4219E-02  0.2153E-02
     -0.027  0.4032E-02  0.2433E-02
      0.043  0.3750E-02  0.2693E-02
      0.112  0.4278E-02  0.2990E-02
      0.181  0.4862E-02  0.3328E-02
      0.251  0.4971E-02  0.3673E-02
      0.320  0.5132E-02  0.4029E-02
      0.390  0.5613E-02  0.4419E-02
      0.459  0.5946E-02  0.4831E-02
      0.528  0.5820E-02  0.5235E-02
      0.598  0.5716E-02  0.5632E-02
      0.667  0.6404E-02  0.6076E-02
      0.737  0.7466E-02  0.6595E-02
      0.806  0.8027E-02  0.7152E-02
      0.875  0.8248E-02  0.7724E-02
      0.945  0.8648E-02  0.8325E-02
      1.014  0.9057E-02  0.8953E-02
      1.084  0.9923E-02  0.9642E-02
      1.153  0.1205E-01  0.1048E-01
      1.222  0.1493E-01  0.1151E-01
      1.292  0.1783E-01  0.1275E-01
      1.361  0.1948E-01  0.1410E-01
      1.431  0.2090E-01  0.1556E-01
      1.500  0.2458E-01  0.1726E-01
      1.570  0.3030E-01  0.1936E-01
      1.639  0.3684E-01  0.2192E-01
      1.708  0.4166E-01  0.2481E-01
      1.778  0.4459E-01  0.2791E-01
      1.847  0.4811E-01  0.3125E-01
      1.917  0.5244E-01  0.3489E-01
      1.986  0.5818E-01  0.3893E-01
      2.055  0.6576E-01  0.4349E-01
      2.125  0.7247E-01  0.4852E-01
      2.194  0.7568E-01  0.5377E-01
      2.264  0.7582E-01  0.5904E-01
      2.333  0.7596E-01  0.6431E-01
      2.402  0.7625E-01  0.6960E-01
      2.472  0.7509E-01  0.7481E-01
      2.541  0.7456E-01  0.7999E-01
      2.611  0.7351E-01  0.8509E-01
      2.680  0.7016E-01  0.8996E-01
      2.750  0.6843E-01  0.9471E-01
      2.819  0.6790E-01  0.9942E-01
      2.888  0.6845E-01  0.1042E+00
      2.958  0.7575E-01  0.1094E+00
      3.027  0.9171E-01  0.1158E+00
      3.097  0.1085E+00  0.1233E+00
      3.166  0.1167E+00  0.1314E+00
      3.235  0.1151E+00  0.1394E+00
      3.305  0.1055E+00  0.1467E+00
      3.374  0.9410E-01  0.1533E+00
      3.444  0.8858E-01  0.1594E+00
      3.513  0.8775E-01  0.1655E+00
      3.582  0.8777E-01  0.1716E+00
      3.652  0.8764E-01  0.1777E+00
      3.721  0.9020E-01  0.1839E+00
      3.791  0.9641E-01  0.1906E+00
      3.860  0.9948E-01  0.1975E+00
      3.930  0.9553E-01  0.2042E+00
      3.999  0.8830E-01  0.2103E+00
      4.068  0.8231E-01  0.2160E+00
      4.138  0.8256E-01  0.2217E+00
      4.207  0.8967E-01  0.2280E+00
      4.277  0.9606E-01  0.2346E+00
      4.346  0.9739E-01  0.2414E+00
      4.415  0.9752E-01  0.2482E+00
      4.485  0.9862E-01  0.2550E+00
      4.554  0.9861E-01  0.2619E+00
      4.624  0.9964E-01  0.2688E+00
      4.693  0.1009E+00  0.2758E+00
      4.762  0.1004E+00  0.2827E+00
      4.832  0.9981E-01  0.2897E+00
      4.901  0.9847E-01  0.2965E+00
      4.971  0.9686E-01  0.3032E+00
      5.040  0.9592E-01  0.3099E+00
      5.109  0.9486E-01  0.3165E+00
      5.179  0.9226E-01  0.3229E+00
      5.248  0.8826E-01  0.3290E+00
      5.318  0.8647E-01  0.3350E+00
      5.387  0.8802E-01  0.3411E+00
      5.457  0.8755E-01  0.3472E+00
      5.526  0.8646E-01  0.3532E+00
      5.595  0.9149E-01  0.3595E+00
      5.665  0.1017E+00  0.3666E+00
      5.734  0.1129E+00  0.3744E+00
      5.804  0.1205E+00  0.3828E+00
      5.873  0.1161E+00  0.3909E+00
      5.942  0.1030E+00  0.3980E+00
      6.012  0.9100E-01  0.4043E+00
      6.081  0.7802E-01  0.4097E+00
      6.151  0.6251E-01  0.4141E+00
      6.220  0.4724E-01  0.4174E+00
      6.289  0.3443E-01  0.4198E+00
      6.359  0.2405E-01  0.4214E+00
      6.428  0.1605E-01  0.4225E+00
      6.498  0.1206E-01  0.4234E+00
      6.567  0.1261E-01  0.4243E+00
      6.637  0.1450E-01  0.4253E+00
      6.706  0.1424E-01  0.4262E+00
      6.775  0.1200E-01  0.4271E+00
      6.845  0.1033E-01  0.4278E+00
      6.914  0.1110E-01  0.4286E+00
      6.984  0.1287E-01  0.4295E+00
      7.053  0.1285E-01  0.4304E+00
      7.122  0.1145E-01  0.4311E+00
      7.192  0.1021E-01  0.4319E+00
      7.261  0.9653E-02  0.4325E+00
      7.331  0.1149E-01  0.4333E+00
      7.400  0.1452E-01  0.4343E+00
      7.469  0.1469E-01  0.4353E+00
      7.539  0.1235E-01  0.4362E+00
      7.608  0.1068E-01  0.4369E+00
      7.678  0.1032E-01  0.4377E+00
      7.747  0.1005E-01  0.4384E+00
      7.816  0.1076E-01  0.4391E+00
      7.886  0.1292E-01  0.4400E+00
      7.955  0.1406E-01  0.4410E+00
      8.025  0.1359E-01  0.4419E+00
      8.094  0.1213E-01  0.4428E+00
      8.164  0.1088E-01  0.4435E+00
      8.233  0.1062E-01  0.4443E+00
      8.302  0.1097E-01  0.4450E+00
      8.372  0.1159E-01  0.4458E+00
      8.441  0.1226E-01  0.4467E+00
      8.511  0.1269E-01  0.4476E+00
      8.580  0.1260E-01  0.4484E+00
      8.649  0.1222E-01  0.4493E+00
      8.719  0.1169E-01  0.4501E+00
      8.788  0.1194E-01  0.4509E+00
      8.858  0.1218E-01  0.4518E+00
      8.927  0.1166E-01  0.4526E+00
      8.996  0.1105E-01  0.4533E+00
      9.066  0.1054E-01  0.4541E+00
      9.135  0.1060E-01  0.4548E+00
      9.205  0.1199E-01  0.4556E+00
      9.274  0.1301E-01  0.4565E+00
      9.344  0.1254E-01  0.4574E+00
      9.413  0.1185E-01  0.4582E+00
      9.482  0.1176E-01  0.4591E+00
      9.552  0.1205E-01  0.4599E+00
      9.621  0.1204E-01  0.4607E+00
      9.691  0.1160E-01  0.4615E+00
      9.760  0.1148E-01  0.4623E+00
      9.829  0.1312E-01  0.4632E+00
      9.899  0.1533E-01  0.4643E+00
      9.968  0.1588E-01  0.4654E+00
     10.038  0.1574E-01  0.4665E+00
     10.107  0.1557E-01  0.4676E+00
     10.176  0.1440E-01  0.4686E+00
     10.246  0.1273E-01  0.4695E+00
     10.315  0.1151E-01  0.4703E+00
     10.385  0.1093E-01  0.4710E+00
     10.454  0.1100E-01  0.4718E+00
     10.523  0.1075E-01  0.4725E+00
     10.593  0.1090E-01  0.4733E+00
     10.662  0.1229E-01  0.4741E+00
     10.732  0.1282E-01  0.4750E+00
     10.801  0.1200E-01  0.4759E+00
     10.871  0.1070E-01  0.4766E+00
     10.940  0.1072E-01  0.4773E+00
     11.009  0.1102E-01  0.4781E+00
     11.079  0.9920E-02  0.4788E+00
     11.148  0.9008E-02  0.4794E+00
     11.218  0.9339E-02  0.4801E+00
     11.287  0.1097E-01  0.4808E+00
     11.356  0.1352E-01  0.4818E+00
     11.426  0.1573E-01  0.4829E+00
     11.495  0.1606E-01  0.4840E+00
     11.565  0.1519E-01  0.4850E+00
     11.634  0.1372E-01  0.4860E+00
     11.703  0.1212E-01  0.4868E+00
     11.773  0.1153E-01  0.4876E+00
     11.842  0.1132E-01  0.4884E+00
     11.912  0.1138E-01  0.4892E+00
     11.981  0.1230E-01  0.4901E+00
     12.051  0.1292E-01  0.4910E+00
     12.120  0.1220E-01  0.4918E+00
     12.189  0.1105E-01  0.4926E+00
     12.259  0.1060E-01  0.4933E+00
     12.328  0.1039E-01  0.4940E+00
     12.398  0.1067E-01  0.4948E+00
     12.467  0.1184E-01  0.4956E+00
     12.536  0.1274E-01  0.4965E+00
     12.606  0.1295E-01  0.4974E+00
     12.675  0.1333E-01  0.4983E+00
     12.745  0.1390E-01  0.4993E+00
     12.814  0.1409E-01  0.5002E+00
     12.883  0.1447E-01  0.5012E+00
     12.953  0.1513E-01  0.5023E+00
     13.022  0.1606E-01  0.5034E+00
     13.092  0.1613E-01  0.5045E+00
     13.161  0.1430E-01  0.5055E+00
     13.231  0.1271E-01  0.5064E+00
     13.300  0.1225E-01  0.5073E+00
     13.369  0.1252E-01  0.5081E+00
     13.439  0.1347E-01  0.5091E+00
     13.508  0.1430E-01  0.5100E+00
     13.578  0.1501E-01  0.5111E+00
     13.647  0.1622E-01  0.5122E+00
     13.716  0.1628E-01  0.5133E+00
     13.786  0.1450E-01  0.5144E+00
     13.855  0.1328E-01  0.5153E+00
     13.925  0.1291E-01  0.5162E+00
     13.994  0.1202E-01  0.5170E+00
     14.063  0.1097E-01  0.5178E+00
     14.133  0.1058E-01  0.5185E+00
     14.202  0.9658E-02  0.5192E+00
     14.272  0.8101E-02  0.5197E+00
     14.341  0.8600E-02  0.5203E+00
     14.410  0.1157E-01  0.5211E+00
     14.480  0.1306E-01  0.5220E+00
     14.549  0.1214E-01  0.5229E+00
     14.619  0.1115E-01  0.5237E+00
     14.688  0.1100E-01  0.5244E+00
     14.758  0.1137E-01  0.5252E+00
     14.827  0.1151E-01  0.5260E+00
     14.896  0.1157E-01  0.5268E+00
     14.966  0.1206E-01  0.5276E+00
     15.035  0.1211E-01  0.5285E+00
     15.105  0.1150E-01  0.5293E+00
     15.174  0.1135E-01  0.5301E+00
     15.243  0.1145E-01  0.5309E+00
     15.313  0.1136E-01  0.5317E+00
     15.382  0.1068E-01  0.5324E+00
     15.452  0.1011E-01  0.5331E+00
     15.521  0.1052E-01  0.5338E+00
     15.590  0.1011E-01  0.5345E+00
     15.660  0.8616E-02  0.5351E+00
     15.729  0.7588E-02  0.5357E+00
     15.799  0.6834E-02  0.5361E+00
     15.868  0.6155E-02  0.5366E+00
     15.938  0.5724E-02  0.5370E+00
     16.007  0.5062E-02  0.5373E+00
     16.076  0.4270E-02  0.5376E+00
     16.146  0.4594E-02  0.5379E+00
     16.215  0.5595E-02  0.5383E+00
     16.285  0.5549E-02  0.5387E+00
     16.354  0.4303E-02  0.5390E+00
     16.423  0.2605E-02  0.5392E+00
     16.493  0.1371E-02  0.5393E+00
     16.562  0.7245E-03  0.5393E+00
     16.632  0.3832E-03  0.5393E+00
     16.701  0.2106E-03  0.5394E+00
     16.770  0.3405E-03  0.5394E+00
     16.840  0.7332E-03  0.5394E+00
     16.909  0.1163E-02  0.5395E+00
     16.979  0.1452E-02  0.5396E+00
     17.048  0.1216E-02  0.5397E+00
     17.117  0.7343E-03  0.5398E+00
     17.187  0.3526E-03  0.5398E+00
     17.256  0.1001E-03  0.5398E+00
     17.326  0.2340E-04  0.5398E+00
     17.395  0.8602E-04  0.5398E+00
     17.465  0.3006E-03  0.5398E+00
     17.534  0.4813E-03  0.5398E+00
     17.603  0.3623E-03  0.5399E+00
     17.673  0.1928E-03  0.5399E+00
     17.742  0.2927E-03  0.5399E+00
     17.812  0.5124E-03  0.5399E+00
     17.881  0.5098E-03  0.5400E+00
     17.950  0.2583E-03  0.5400E+00
     18.020  0.6035E-04  0.5400E+00
     18.089  0.6065E-05  0.5400E+00
     18.159  0.2523E-06  0.5400E+00
     18.228  0.4254E-08  0.5400E+00
     18.297  0.2869E-10  0.5400E+00
     18.367  0.7670E-13  0.5400E+00
     18.436  0.8076E-16  0.5400E+00
     18.506  0.0000E+00  0.5400E+00
     18.575  0.0000E+00  0.5400E+00
     18.645  0.0000E+00  0.5400E+00
     18.714  0.0000E+00  0.5400E+00
     18.783  0.0000E+00  0.5400E+00
     18.853  0.0000E+00  0.5400E+00
