       N       E                     dE             d eps       ncg     rms          rms(c)
DAV:   1     0.270721133947E+03    0.27072E+03   -0.22448E+04 91890   0.151E+03
DAV:   2    -0.871132828938E+01   -0.27943E+03   -0.27123E+03105867   0.322E+02
DAV:   3    -0.137195496768E+02   -0.50082E+01   -0.49762E+01102258   0.451E+01
DAV:   4    -0.137500578100E+02   -0.30508E-01   -0.30494E-01104445   0.367E+00
DAV:   5    -0.137503626392E+02   -0.30483E-03   -0.30482E-03107424   0.379E-01    0.140E+01
RMM:   6    -0.127662505787E+02    0.98411E+00   -0.26862E+00 91152   0.106E+01    0.936E+00
RMM:   7    -0.127162619546E+02    0.49989E-01   -0.26737E-01 91220   0.317E+00    0.472E+00
RMM:   8    -0.127093326710E+02    0.69293E-02   -0.12119E-02 91215   0.713E-01    0.524E-01
RMM:   9    -0.127091624341E+02    0.17024E-03   -0.46333E-04 91201   0.126E-01    0.372E-02
RMM:  10    -0.127091817440E+02   -0.19310E-04   -0.26403E-05 91290   0.368E-02    0.204E-02
RMM:  11    -0.127091829183E+02   -0.11743E-05   -0.11948E-06 51139   0.616E-03    0.203E-03
RMM:  12    -0.127091826749E+02    0.24342E-06   -0.19863E-07 48523   0.293E-03
   1 F= -.12709183E+02 E0= -.12705735E+02  d E =-.127092E+02
