 vasp.5.4.4.18Apr17-6-g9f103f2a35 (build Jan 14 2019 14:48:31) complex          
  
 executed on             LinuxIFC date 2019.09.29  20:33:41
 running on   24 total cores
 distrk:  each k-point on   24 cores,    1 groups
 distr:  one band on NCORES_PER_BAND=   8 cores,    3 groups


--------------------------------------------------------------------------------------------------------


 INCAR:
 POTCAR:    PAW_PBE Au 04Oct2007                  
 POTCAR:    PAW_PBE Au 04Oct2007                  
   VRHFIN =Au: s1d10                                                            
   LEXCH  = PE                                                                  
   EATOM  =   926.0867 eV,   68.0654 Ry                                         
                                                                                
   TITEL  = PAW_PBE Au 04Oct2007                                                
   LULTRA =        F    use ultrasoft PP ?                                      
   IUNSCR =        1    unscreen: 0-lin 1-nonlin 2-no                           
   RPACOR =    2.330    partial core radius                                     
   POMASS =  196.966; ZVAL   =   11.000    mass and valenz                      
   RCORE  =    2.500    outmost cutoff radius                                   
   RWIGS  =    2.840; RWIGS  =    1.503    wigner-seitz radius (au A)           
   ENMAX  =  229.943; ENMIN  =  172.457 eV                                      
   ICORE  =        3    local potential                                         
   LCOR   =        T    correct aug charges                                     
   LPAW   =        T    paw PP                                                  
   EAUG   =  356.670                                                            
   DEXC   =    0.000                                                            
   RMAX   =    2.562    core radius for proj-oper                               
   RAUG   =    1.300    factor for augmentation sphere                          
   RDEP   =    2.598    radius for radial grids                                 
   RDEPT  =    2.193    core radius for aug-charge                              
                                                                                
   Atomic configuration                                                         
   16 entries                                                                   
     n  l   j            E        occ.                                          
     1  0  0.50    -80748.5001   2.0000                                         
     2  0  0.50    -14244.7466   2.0000                                         
     2  1  1.50    -12310.9591   6.0000                                         
     3  0  0.50     -3362.1768   2.0000                                         
     3  1  1.50     -2801.5463   6.0000                                         
     3  2  2.50     -2203.8206  10.0000                                         
     4  0  0.50      -729.8168   2.0000                                         
     4  1  1.50      -546.0527   6.0000                                         
     4  2  2.50      -325.7302  10.0000                                         
     4  3  3.50       -81.1472  14.0000                                         
     5  0  0.50      -108.3201   2.0000                                         
     5  1  1.50       -59.7479   6.0000                                         
     5  2  2.50        -6.8783  10.0000                                         
     6  0  0.50        -5.7602   1.0000                                         
     6  1  1.50        -6.8029   0.0000                                         
     5  3  2.50        -1.3606   0.0000                                         
   Description                                                                  
     l       E           TYP  RCUT    TYP  RCUT                                 
     2     -6.8782861     23  2.500                                             
     2     -8.2388687     23  2.500                                             
     0     -5.7601759     23  2.500                                             
     0     -0.8493231     23  2.500                                             
     1     -2.7211652     23  2.500                                             
     1     27.2116520     23  2.500                                             
     3     -1.3605826     23  2.500                                             
  local pseudopotential read in
  partial core-charges read in
  partial kinetic energy density read in
  atomic valenz-charges read in
  non local Contribution for L=           2  read in
    real space projection operators read in
  non local Contribution for L=           2  read in
    real space projection operators read in
  non local Contribution for L=           0  read in
    real space projection operators read in
  non local Contribution for L=           0  read in
    real space projection operators read in
  non local Contribution for L=           1  read in
    real space projection operators read in
  non local Contribution for L=           1  read in
    real space projection operators read in
    PAW grid and wavefunctions read in
 
   number of l-projection  operators is LMAX  =           6
   number of lm-projection operators is LMMAX =          18
 
  PAW_PBE Au 04Oct2007                  :
 energy of atom  1       EATOM= -926.0867
 kinetic energy error for atom=    0.0042 (will be added to EATOM!!)
 
 
 POSCAR: Au4                                     
  positions in direct lattice
  velocities in cartesian coordinates
 exchange correlation table for  LEXCH =        8
   RHO(1)=    0.500       N(1)  =     2000
   RHO(2)=  100.500       N(2)  =     4000

 VTST: version 3.1, (03/28/14)

 CHAIN: initializing optimizer
 
 OPT: Using VASP Conjugate-Gradient optimizer
 CHAIN: Read ICHAIN            0
 
 POSCAR: Au4                                     
  positions in direct lattice
  velocities in cartesian coordinates
 


--------------------------------------------------------------------------------------------------------


 ion  position               nearest neighbor table
   1  1.000  0.000  0.000-   2 2.78   2 2.78   3 3.02   4 3.02   4 3.02   3 3.02   4 3.02   4 3.02
                             3 3.02   3 3.02   2 3.10   2 3.10
   2  0.000  0.500  0.500-   1 2.78   1 2.78   4 3.02   3 3.02   3 3.02   4 3.02   3 3.02   3 3.02
                             4 3.02   4 3.02   1 3.10   1 3.10
   3  0.500  1.000  0.500-   4 2.78   4 2.78   1 3.02   2 3.02   2 3.02   1 3.02   2 3.02   2 3.02
                             1 3.02   1 3.02   4 3.10   4 3.10
   4  0.500  0.500  1.000-   3 2.78   3 2.78   2 3.02   1 3.02   1 3.02   2 3.02   1 3.02   1 3.02
                             2 3.02   2 3.02   3 3.10   3 3.10
 

IMPORTANT INFORMATION: All symmetrisations will be switched off!
NOSYMM: (Re-)initialisation of all symmetry stuff for point group C_1.

 
 
 KPOINTS: automatic-generation                    

Automatic generation of k-mesh.
Space group operators:
 irot       det(A)        alpha          n_x          n_y          n_z        tau_x        tau_y        tau_z
    1     1.000000     0.000000     1.000000     0.000000     0.000000     0.000000     0.000000     0.000000
 
 Subroutine IBZKPT returns following result:
 ===========================================
 
 Found   1688 irreducible k-points:
 
 Following reciprocal coordinates:
            Coordinates               Weight
  0.000000  0.000000  0.000000      1.000000
  0.066667 -0.000000  0.000000      2.000000
  0.133333 -0.000000  0.000000      2.000000
  0.200000 -0.000000  0.000000      2.000000
  0.266667 -0.000000  0.000000      2.000000
  0.333333 -0.000000  0.000000      2.000000
  0.400000 -0.000000  0.000000      2.000000
  0.466667 -0.000000  0.000000      2.000000
 -0.000000  0.066667  0.000000      2.000000
  0.066667  0.066667  0.000000      2.000000
  0.133333  0.066667  0.000000      2.000000
  0.200000  0.066667  0.000000      2.000000
  0.266667  0.066667  0.000000      2.000000
  0.333333  0.066667  0.000000      2.000000
  0.400000  0.066667  0.000000      2.000000
  0.466667  0.066667  0.000000      2.000000
 -0.466667  0.066667  0.000000      2.000000
 -0.400000  0.066667  0.000000      2.000000
 -0.333333  0.066667  0.000000      2.000000
 -0.266667  0.066667  0.000000      2.000000
 -0.200000  0.066667  0.000000      2.000000
 -0.133333  0.066667  0.000000      2.000000
 -0.066667  0.066667  0.000000      2.000000
 -0.000000  0.133333  0.000000      2.000000
  0.066667  0.133333  0.000000      2.000000
  0.133333  0.133333  0.000000      2.000000
  0.200000  0.133333  0.000000      2.000000
  0.266667  0.133333  0.000000      2.000000
  0.333333  0.133333  0.000000      2.000000
  0.400000  0.133333 -0.000000      2.000000
  0.466667  0.133333  0.000000      2.000000
 -0.466667  0.133333  0.000000      2.000000
 -0.400000  0.133333  0.000000      2.000000
 -0.333333  0.133333 -0.000000      2.000000
 -0.266667  0.133333  0.000000      2.000000
 -0.200000  0.133333  0.000000      2.000000
 -0.133333  0.133333  0.000000      2.000000
 -0.066667  0.133333  0.000000      2.000000
 -0.000000  0.200000  0.000000      2.000000
  0.066667  0.200000  0.000000      2.000000
  0.133333  0.200000  0.000000      2.000000
  0.200000  0.200000  0.000000      2.000000
  0.266667  0.200000  0.000000      2.000000
  0.333333  0.200000  0.000000      2.000000
  0.400000  0.200000  0.000000      2.000000
  0.466667  0.200000  0.000000      2.000000
 -0.466667  0.200000  0.000000      2.000000
 -0.400000  0.200000  0.000000      2.000000
 -0.333333  0.200000  0.000000      2.000000
 -0.266667  0.200000  0.000000      2.000000
 -0.200000  0.200000  0.000000      2.000000
 -0.133333  0.200000  0.000000      2.000000
 -0.066667  0.200000  0.000000      2.000000
 -0.000000  0.266667  0.000000      2.000000
  0.066667  0.266667  0.000000      2.000000
  0.133333  0.266667 -0.000000      2.000000
  0.200000  0.266667  0.000000      2.000000
  0.266667  0.266667  0.000000      2.000000
  0.333333  0.266667  0.000000      2.000000
  0.400000  0.266667  0.000000      2.000000
  0.466667  0.266667  0.000000      2.000000
 -0.466667  0.266667  0.000000      2.000000
 -0.400000  0.266667  0.000000      2.000000
 -0.333333  0.266667 -0.000000      2.000000
 -0.266667  0.266667  0.000000      2.000000
 -0.200000  0.266667  0.000000      2.000000
 -0.133333  0.266667  0.000000      2.000000
 -0.066667  0.266667  0.000000      2.000000
 -0.000000  0.333333  0.000000      2.000000
  0.066667  0.333333  0.000000      2.000000
  0.133333  0.333333  0.000000      2.000000
  0.200000  0.333333  0.000000      2.000000
  0.266667  0.333333  0.000000      2.000000
  0.333333  0.333333  0.000000      2.000000
  0.400000  0.333333  0.000000      2.000000
  0.466667  0.333333  0.000000      2.000000
 -0.466667  0.333333  0.000000      2.000000
 -0.400000  0.333333  0.000000      2.000000
 -0.333333  0.333333  0.000000      2.000000
 -0.266667  0.333333  0.000000      2.000000
 -0.200000  0.333333  0.000000      2.000000
 -0.133333  0.333333  0.000000      2.000000
 -0.066667  0.333333 -0.000000      2.000000
 -0.000000  0.400000  0.000000      2.000000
  0.066667  0.400000  0.000000      2.000000
  0.133333  0.400000  0.000000      2.000000
  0.200000  0.400000  0.000000      2.000000
  0.266667  0.400000  0.000000      2.000000
  0.333333  0.400000  0.000000      2.000000
  0.400000  0.400000  0.000000      2.000000
  0.466667  0.400000  0.000000      2.000000
 -0.466667  0.400000  0.000000      2.000000
 -0.400000  0.400000  0.000000      2.000000
 -0.333333  0.400000  0.000000      2.000000
 -0.266667  0.400000  0.000000      2.000000
 -0.200000  0.400000  0.000000      2.000000
 -0.133333  0.400000  0.000000      2.000000
 -0.066667  0.400000 -0.000000      2.000000
 -0.000000  0.466667  0.000000      2.000000
  0.066667  0.466667  0.000000      2.000000
  0.133333  0.466667  0.000000      2.000000
  0.200000  0.466667  0.000000      2.000000
  0.266667  0.466667  0.000000      2.000000
  0.333333  0.466667  0.000000      2.000000
  0.400000  0.466667  0.000000      2.000000
  0.466667  0.466667  0.000000      2.000000
 -0.466667  0.466667  0.000000      2.000000
 -0.400000  0.466667  0.000000      2.000000
 -0.333333  0.466667  0.000000      2.000000
 -0.266667  0.466667  0.000000      2.000000
 -0.200000  0.466667  0.000000      2.000000
 -0.133333  0.466667  0.000000      2.000000
 -0.066667  0.466667 -0.000000      2.000000
  0.000000  0.000000  0.066667      2.000000
  0.066667  0.000000  0.066667      2.000000
  0.133333  0.000000  0.066667      2.000000
  0.200000  0.000000  0.066667      2.000000
  0.266667  0.000000  0.066667      2.000000
  0.333333  0.000000  0.066667      2.000000
  0.400000  0.000000  0.066667      2.000000
  0.466667 -0.000000  0.066667      2.000000
 -0.466667  0.000000  0.066667      2.000000
 -0.400000  0.000000  0.066667      2.000000
 -0.333333  0.000000  0.066667      2.000000
 -0.266667  0.000000  0.066667      2.000000
 -0.200000  0.000000  0.066667      2.000000
 -0.133333  0.000000  0.066667      2.000000
 -0.066667  0.000000  0.066667      2.000000
  0.000000  0.066667  0.066667      2.000000
  0.066667  0.066667  0.066667      2.000000
  0.133333  0.066667  0.066667      2.000000
  0.200000  0.066667  0.066667      2.000000
  0.266667  0.066667  0.066667      2.000000
  0.333333  0.066667  0.066667      2.000000
  0.400000  0.066667  0.066667      2.000000
  0.466667  0.066667  0.066667      2.000000
 -0.466667  0.066667  0.066667      2.000000
 -0.400000  0.066667  0.066667      2.000000
 -0.333333  0.066667  0.066667      2.000000
 -0.266667  0.066667  0.066667      2.000000
 -0.200000  0.066667  0.066667      2.000000
 -0.133333  0.066667  0.066667      2.000000
 -0.066667  0.066667  0.066667      2.000000
 -0.000000  0.133333  0.066667      2.000000
  0.066667  0.133333  0.066667      2.000000
  0.133333  0.133333  0.066667      2.000000
  0.200000  0.133333  0.066667      2.000000
  0.266667  0.133333  0.066667      2.000000
  0.333333  0.133333  0.066667      2.000000
  0.400000  0.133333  0.066667      2.000000
  0.466667  0.133333  0.066667      2.000000
 -0.466667  0.133333  0.066667      2.000000
 -0.400000  0.133333  0.066667      2.000000
 -0.333333  0.133333  0.066667      2.000000
 -0.266667  0.133333  0.066667      2.000000
 -0.200000  0.133333  0.066667      2.000000
 -0.133333  0.133333  0.066667      2.000000
 -0.066667  0.133333  0.066667      2.000000
 -0.000000  0.200000  0.066667      2.000000
  0.066667  0.200000  0.066667      2.000000
  0.133333  0.200000  0.066667      2.000000
  0.200000  0.200000  0.066667      2.000000
  0.266667  0.200000  0.066667      2.000000
  0.333333  0.200000  0.066667      2.000000
  0.400000  0.200000  0.066667      2.000000
  0.466667  0.200000  0.066667      2.000000
 -0.466667  0.200000  0.066667      2.000000
 -0.400000  0.200000  0.066667      2.000000
 -0.333333  0.200000  0.066667      2.000000
 -0.266667  0.200000  0.066667      2.000000
 -0.200000  0.200000  0.066667      2.000000
 -0.133333  0.200000  0.066667      2.000000
 -0.066667  0.200000  0.066667      2.000000
 -0.000000  0.266667  0.066667      2.000000
  0.066667  0.266667  0.066667      2.000000
  0.133333  0.266667  0.066667      2.000000
  0.200000  0.266667  0.066667      2.000000
  0.266667  0.266667  0.066667      2.000000
  0.333333  0.266667  0.066667      2.000000
  0.400000  0.266667  0.066667      2.000000
  0.466667  0.266667  0.066667      2.000000
 -0.466667  0.266667  0.066667      2.000000
 -0.400000  0.266667  0.066667      2.000000
 -0.333333  0.266667  0.066667      2.000000
 -0.266667  0.266667  0.066667      2.000000
 -0.200000  0.266667  0.066667      2.000000
 -0.133333  0.266667  0.066667      2.000000
 -0.066667  0.266667  0.066667      2.000000
 -0.000000  0.333333  0.066667      2.000000
  0.066667  0.333333  0.066667      2.000000
  0.133333  0.333333  0.066667      2.000000
  0.200000  0.333333  0.066667      2.000000
  0.266667  0.333333  0.066667      2.000000
  0.333333  0.333333  0.066667      2.000000
  0.400000  0.333333  0.066667      2.000000
  0.466667  0.333333  0.066667      2.000000
 -0.466667  0.333333  0.066667      2.000000
 -0.400000  0.333333  0.066667      2.000000
 -0.333333  0.333333  0.066667      2.000000
 -0.266667  0.333333  0.066667      2.000000
 -0.200000  0.333333  0.066667      2.000000
 -0.133333  0.333333  0.066667      2.000000
 -0.066667  0.333333  0.066667      2.000000
 -0.000000  0.400000  0.066667      2.000000
  0.066667  0.400000  0.066667      2.000000
  0.133333  0.400000  0.066667      2.000000
  0.200000  0.400000  0.066667      2.000000
  0.266667  0.400000  0.066667      2.000000
  0.333333  0.400000  0.066667      2.000000
  0.400000  0.400000  0.066667      2.000000
  0.466667  0.400000  0.066667      2.000000
 -0.466667  0.400000  0.066667      2.000000
 -0.400000  0.400000  0.066667      2.000000
 -0.333333  0.400000  0.066667      2.000000
 -0.266667  0.400000  0.066667      2.000000
 -0.200000  0.400000  0.066667      2.000000
 -0.133333  0.400000  0.066667      2.000000
 -0.066667  0.400000  0.066667      2.000000
 -0.000000  0.466667  0.066667      2.000000
  0.066667  0.466667  0.066667      2.000000
  0.133333  0.466667  0.066667      2.000000
  0.200000  0.466667  0.066667      2.000000
  0.266667  0.466667  0.066667      2.000000
  0.333333  0.466667  0.066667      2.000000
  0.400000  0.466667  0.066667      2.000000
  0.466667  0.466667  0.066667      2.000000
 -0.466667  0.466667  0.066667      2.000000
 -0.400000  0.466667  0.066667      2.000000
 -0.333333  0.466667  0.066667      2.000000
 -0.266667  0.466667  0.066667      2.000000
 -0.200000  0.466667  0.066667      2.000000
 -0.133333  0.466667  0.066667      2.000000
 -0.066667  0.466667  0.066667      2.000000
  0.000000 -0.466667  0.066667      2.000000
  0.066667 -0.466667  0.066667      2.000000
  0.133333 -0.466667  0.066667      2.000000
  0.200000 -0.466667  0.066667      2.000000
  0.266667 -0.466667  0.066667      2.000000
  0.333333 -0.466667  0.066667      2.000000
  0.400000 -0.466667  0.066667      2.000000
  0.466667 -0.466667  0.066667      2.000000
 -0.466667 -0.466667  0.066667      2.000000
 -0.400000 -0.466667  0.066667      2.000000
 -0.333333 -0.466667  0.066667      2.000000
 -0.266667 -0.466667  0.066667      2.000000
 -0.200000 -0.466667  0.066667      2.000000
 -0.133333 -0.466667  0.066667      2.000000
 -0.066667 -0.466667  0.066667      2.000000
 -0.000000 -0.400000  0.066667      2.000000
  0.066667 -0.400000  0.066667      2.000000
  0.133333 -0.400000  0.066667      2.000000
  0.200000 -0.400000  0.066667      2.000000
  0.266667 -0.400000  0.066667      2.000000
  0.333333 -0.400000  0.066667      2.000000
  0.400000 -0.400000  0.066667      2.000000
  0.466667 -0.400000  0.066667      2.000000
 -0.466667 -0.400000  0.066667      2.000000
 -0.400000 -0.400000  0.066667      2.000000
 -0.333333 -0.400000  0.066667      2.000000
 -0.266667 -0.400000  0.066667      2.000000
 -0.200000 -0.400000  0.066667      2.000000
 -0.133333 -0.400000  0.066667      2.000000
 -0.066667 -0.400000  0.066667      2.000000
  0.000000 -0.333333  0.066667      2.000000
  0.066667 -0.333333  0.066667      2.000000
  0.133333 -0.333333  0.066667      2.000000
  0.200000 -0.333333  0.066667      2.000000
  0.266667 -0.333333  0.066667      2.000000
  0.333333 -0.333333  0.066667      2.000000
  0.400000 -0.333333  0.066667      2.000000
  0.466667 -0.333333  0.066667      2.000000
 -0.466667 -0.333333  0.066667      2.000000
 -0.400000 -0.333333  0.066667      2.000000
 -0.333333 -0.333333  0.066667      2.000000
 -0.266667 -0.333333  0.066667      2.000000
 -0.200000 -0.333333  0.066667      2.000000
 -0.133333 -0.333333  0.066667      2.000000
 -0.066667 -0.333333  0.066667      2.000000
  0.000000 -0.266667  0.066667      2.000000
  0.066667 -0.266667  0.066667      2.000000
  0.133333 -0.266667  0.066667      2.000000
  0.200000 -0.266667  0.066667      2.000000
  0.266667 -0.266667  0.066667      2.000000
  0.333333 -0.266667  0.066667      2.000000
  0.400000 -0.266667  0.066667      2.000000
  0.466667 -0.266667  0.066667      2.000000
 -0.466667 -0.266667  0.066667      2.000000
 -0.400000 -0.266667  0.066667      2.000000
 -0.333333 -0.266667  0.066667      2.000000
 -0.266667 -0.266667  0.066667      2.000000
 -0.200000 -0.266667  0.066667      2.000000
 -0.133333 -0.266667  0.066667      2.000000
 -0.066667 -0.266667  0.066667      2.000000
  0.000000 -0.200000  0.066667      2.000000
  0.066667 -0.200000  0.066667      2.000000
  0.133333 -0.200000  0.066667      2.000000
  0.200000 -0.200000  0.066667      2.000000
  0.266667 -0.200000  0.066667      2.000000
  0.333333 -0.200000  0.066667      2.000000
  0.400000 -0.200000  0.066667      2.000000
  0.466667 -0.200000  0.066667      2.000000
 -0.466667 -0.200000  0.066667      2.000000
 -0.400000 -0.200000  0.066667      2.000000
 -0.333333 -0.200000  0.066667      2.000000
 -0.266667 -0.200000  0.066667      2.000000
 -0.200000 -0.200000  0.066667      2.000000
 -0.133333 -0.200000  0.066667      2.000000
 -0.066667 -0.200000  0.066667      2.000000
  0.000000 -0.133333  0.066667      2.000000
  0.066667 -0.133333  0.066667      2.000000
  0.133333 -0.133333  0.066667      2.000000
  0.200000 -0.133333  0.066667      2.000000
  0.266667 -0.133333  0.066667      2.000000
  0.333333 -0.133333  0.066667      2.000000
  0.400000 -0.133333  0.066667      2.000000
  0.466667 -0.133333  0.066667      2.000000
 -0.466667 -0.133333  0.066667      2.000000
 -0.400000 -0.133333  0.066667      2.000000
 -0.333333 -0.133333  0.066667      2.000000
 -0.266667 -0.133333  0.066667      2.000000
 -0.200000 -0.133333  0.066667      2.000000
 -0.133333 -0.133333  0.066667      2.000000
 -0.066667 -0.133333  0.066667      2.000000
  0.000000 -0.066667  0.066667      2.000000
  0.066667 -0.066667  0.066667      2.000000
  0.133333 -0.066667  0.066667      2.000000
  0.200000 -0.066667  0.066667      2.000000
  0.266667 -0.066667  0.066667      2.000000
  0.333333 -0.066667  0.066667      2.000000
  0.400000 -0.066667  0.066667      2.000000
  0.466667 -0.066667  0.066667      2.000000
 -0.466667 -0.066667  0.066667      2.000000
 -0.400000 -0.066667  0.066667      2.000000
 -0.333333 -0.066667  0.066667      2.000000
 -0.266667 -0.066667  0.066667      2.000000
 -0.200000 -0.066667  0.066667      2.000000
 -0.133333 -0.066667  0.066667      2.000000
 -0.066667 -0.066667  0.066667      2.000000
  0.000000  0.000000  0.133333      2.000000
  0.066667  0.000000  0.133333      2.000000
  0.133333  0.000000  0.133333      2.000000
  0.200000  0.000000  0.133333      2.000000
  0.266667  0.000000  0.133333      2.000000
  0.333333  0.000000  0.133333      2.000000
  0.400000  0.000000  0.133333      2.000000
  0.466667  0.000000  0.133333      2.000000
 -0.466667  0.000000  0.133333      2.000000
 -0.400000  0.000000  0.133333      2.000000
 -0.333333  0.000000  0.133333      2.000000
 -0.266667  0.000000  0.133333      2.000000
 -0.200000  0.000000  0.133333      2.000000
 -0.133333  0.000000  0.133333      2.000000
 -0.066667  0.000000  0.133333      2.000000
  0.000000  0.066667  0.133333      2.000000
  0.066667  0.066667  0.133333      2.000000
  0.133333  0.066667  0.133333      2.000000
  0.200000  0.066667  0.133333      2.000000
  0.266667  0.066667  0.133333      2.000000
  0.333333  0.066667  0.133333      2.000000
  0.400000  0.066667  0.133333      2.000000
  0.466667  0.066667  0.133333      2.000000
 -0.466667  0.066667  0.133333      2.000000
 -0.400000  0.066667  0.133333      2.000000
 -0.333333  0.066667  0.133333      2.000000
 -0.266667  0.066667  0.133333      2.000000
 -0.200000  0.066667  0.133333      2.000000
 -0.133333  0.066667  0.133333      2.000000
 -0.066667  0.066667  0.133333      2.000000
  0.000000  0.133333  0.133333      2.000000
  0.066667  0.133333  0.133333      2.000000
  0.133333  0.133333  0.133333      2.000000
  0.200000  0.133333  0.133333      2.000000
  0.266667  0.133333  0.133333      2.000000
  0.333333  0.133333  0.133333      2.000000
  0.400000  0.133333  0.133333      2.000000
  0.466667  0.133333  0.133333      2.000000
 -0.466667  0.133333  0.133333      2.000000
 -0.400000  0.133333  0.133333      2.000000
 -0.333333  0.133333  0.133333      2.000000
 -0.266667  0.133333  0.133333      2.000000
 -0.200000  0.133333  0.133333      2.000000
 -0.133333  0.133333  0.133333      2.000000
 -0.066667  0.133333  0.133333      2.000000
  0.000000  0.200000  0.133333      2.000000
  0.066667  0.200000  0.133333      2.000000
  0.133333  0.200000  0.133333      2.000000
  0.200000  0.200000  0.133333      2.000000
  0.266667  0.200000  0.133333      2.000000
  0.333333  0.200000  0.133333      2.000000
  0.400000  0.200000  0.133333      2.000000
  0.466667  0.200000  0.133333      2.000000
 -0.466667  0.200000  0.133333      2.000000
 -0.400000  0.200000  0.133333      2.000000
 -0.333333  0.200000  0.133333      2.000000
 -0.266667  0.200000  0.133333      2.000000
 -0.200000  0.200000  0.133333      2.000000
 -0.133333  0.200000  0.133333      2.000000
 -0.066667  0.200000  0.133333      2.000000
 -0.000000  0.266667  0.133333      2.000000
  0.066667  0.266667  0.133333      2.000000
  0.133333  0.266667  0.133333      2.000000
  0.200000  0.266667  0.133333      2.000000
  0.266667  0.266667  0.133333      2.000000
  0.333333  0.266667  0.133333      2.000000
  0.400000  0.266667  0.133333      2.000000
  0.466667  0.266667  0.133333      2.000000
 -0.466667  0.266667  0.133333      2.000000
 -0.400000  0.266667  0.133333      2.000000
 -0.333333  0.266667  0.133333      2.000000
 -0.266667  0.266667  0.133333      2.000000
 -0.200000  0.266667  0.133333      2.000000
 -0.133333  0.266667  0.133333      2.000000
 -0.066667  0.266667  0.133333      2.000000
 -0.000000  0.333333  0.133333      2.000000
  0.066667  0.333333  0.133333      2.000000
  0.133333  0.333333  0.133333      2.000000
  0.200000  0.333333  0.133333      2.000000
  0.266667  0.333333  0.133333      2.000000
  0.333333  0.333333  0.133333      2.000000
  0.400000  0.333333  0.133333      2.000000
  0.466667  0.333333  0.133333      2.000000
 -0.466667  0.333333  0.133333      2.000000
 -0.400000  0.333333  0.133333      2.000000
 -0.333333  0.333333  0.133333      2.000000
 -0.266667  0.333333  0.133333      2.000000
 -0.200000  0.333333  0.133333      2.000000
 -0.133333  0.333333  0.133333      2.000000
 -0.066667  0.333333  0.133333      2.000000
  0.000000  0.400000  0.133333      2.000000
  0.066667  0.400000  0.133333      2.000000
  0.133333  0.400000  0.133333      2.000000
  0.200000  0.400000  0.133333      2.000000
  0.266667  0.400000  0.133333      2.000000
  0.333333  0.400000  0.133333      2.000000
  0.400000  0.400000  0.133333      2.000000
  0.466667  0.400000  0.133333      2.000000
 -0.466667  0.400000  0.133333      2.000000
 -0.400000  0.400000  0.133333      2.000000
 -0.333333  0.400000  0.133333      2.000000
 -0.266667  0.400000  0.133333      2.000000
 -0.200000  0.400000  0.133333      2.000000
 -0.133333  0.400000  0.133333      2.000000
 -0.066667  0.400000  0.133333      2.000000
 -0.000000  0.466667  0.133333      2.000000
  0.066667  0.466667  0.133333      2.000000
  0.133333  0.466667  0.133333      2.000000
  0.200000  0.466667  0.133333      2.000000
  0.266667  0.466667  0.133333      2.000000
  0.333333  0.466667  0.133333      2.000000
  0.400000  0.466667  0.133333      2.000000
  0.466667  0.466667  0.133333      2.000000
 -0.466667  0.466667  0.133333      2.000000
 -0.400000  0.466667  0.133333      2.000000
 -0.333333  0.466667  0.133333      2.000000
 -0.266667  0.466667  0.133333      2.000000
 -0.200000  0.466667  0.133333      2.000000
 -0.133333  0.466667  0.133333      2.000000
 -0.066667  0.466667  0.133333      2.000000
  0.000000 -0.466667  0.133333      2.000000
  0.066667 -0.466667  0.133333      2.000000
  0.133333 -0.466667  0.133333      2.000000
  0.200000 -0.466667  0.133333      2.000000
  0.266667 -0.466667  0.133333      2.000000
  0.333333 -0.466667  0.133333      2.000000
  0.400000 -0.466667  0.133333      2.000000
  0.466667 -0.466667  0.133333      2.000000
 -0.466667 -0.466667  0.133333      2.000000
 -0.400000 -0.466667  0.133333      2.000000
 -0.333333 -0.466667  0.133333      2.000000
 -0.266667 -0.466667  0.133333      2.000000
 -0.200000 -0.466667  0.133333      2.000000
 -0.133333 -0.466667  0.133333      2.000000
 -0.066667 -0.466667  0.133333      2.000000
  0.000000 -0.400000  0.133333      2.000000
  0.066667 -0.400000  0.133333      2.000000
  0.133333 -0.400000  0.133333      2.000000
  0.200000 -0.400000  0.133333      2.000000
  0.266667 -0.400000  0.133333      2.000000
  0.333333 -0.400000  0.133333      2.000000
  0.400000 -0.400000  0.133333      2.000000
  0.466667 -0.400000  0.133333      2.000000
 -0.466667 -0.400000  0.133333      2.000000
 -0.400000 -0.400000  0.133333      2.000000
 -0.333333 -0.400000  0.133333      2.000000
 -0.266667 -0.400000  0.133333      2.000000
 -0.200000 -0.400000  0.133333      2.000000
 -0.133333 -0.400000  0.133333      2.000000
 -0.066667 -0.400000  0.133333      2.000000
  0.000000 -0.333333  0.133333      2.000000
  0.066667 -0.333333  0.133333      2.000000
  0.133333 -0.333333  0.133333      2.000000
  0.200000 -0.333333  0.133333      2.000000
  0.266667 -0.333333  0.133333      2.000000
  0.333333 -0.333333  0.133333      2.000000
  0.400000 -0.333333  0.133333      2.000000
  0.466667 -0.333333  0.133333      2.000000
 -0.466667 -0.333333  0.133333      2.000000
 -0.400000 -0.333333  0.133333      2.000000
 -0.333333 -0.333333  0.133333      2.000000
 -0.266667 -0.333333  0.133333      2.000000
 -0.200000 -0.333333  0.133333      2.000000
 -0.133333 -0.333333  0.133333      2.000000
 -0.066667 -0.333333  0.133333      2.000000
  0.000000 -0.266667  0.133333      2.000000
  0.066667 -0.266667  0.133333      2.000000
  0.133333 -0.266667  0.133333      2.000000
  0.200000 -0.266667  0.133333      2.000000
  0.266667 -0.266667  0.133333      2.000000
  0.333333 -0.266667  0.133333      2.000000
  0.400000 -0.266667  0.133333      2.000000
  0.466667 -0.266667  0.133333      2.000000
 -0.466667 -0.266667  0.133333      2.000000
 -0.400000 -0.266667  0.133333      2.000000
 -0.333333 -0.266667  0.133333      2.000000
 -0.266667 -0.266667  0.133333      2.000000
 -0.200000 -0.266667  0.133333      2.000000
 -0.133333 -0.266667  0.133333      2.000000
 -0.066667 -0.266667  0.133333      2.000000
  0.000000 -0.200000  0.133333      2.000000
  0.066667 -0.200000  0.133333      2.000000
  0.133333 -0.200000  0.133333      2.000000
  0.200000 -0.200000  0.133333      2.000000
  0.266667 -0.200000  0.133333      2.000000
  0.333333 -0.200000  0.133333      2.000000
  0.400000 -0.200000  0.133333      2.000000
  0.466667 -0.200000  0.133333      2.000000
 -0.466667 -0.200000  0.133333      2.000000
 -0.400000 -0.200000  0.133333      2.000000
 -0.333333 -0.200000  0.133333      2.000000
 -0.266667 -0.200000  0.133333      2.000000
 -0.200000 -0.200000  0.133333      2.000000
 -0.133333 -0.200000  0.133333      2.000000
 -0.066667 -0.200000  0.133333      2.000000
  0.000000 -0.133333  0.133333      2.000000
  0.066667 -0.133333  0.133333      2.000000
  0.133333 -0.133333  0.133333      2.000000
  0.200000 -0.133333  0.133333      2.000000
  0.266667 -0.133333  0.133333      2.000000
  0.333333 -0.133333  0.133333      2.000000
  0.400000 -0.133333  0.133333      2.000000
  0.466667 -0.133333  0.133333      2.000000
 -0.466667 -0.133333  0.133333      2.000000
 -0.400000 -0.133333  0.133333      2.000000
 -0.333333 -0.133333  0.133333      2.000000
 -0.266667 -0.133333  0.133333      2.000000
 -0.200000 -0.133333  0.133333      2.000000
 -0.133333 -0.133333  0.133333      2.000000
 -0.066667 -0.133333  0.133333      2.000000
  0.000000 -0.066667  0.133333      2.000000
  0.066667 -0.066667  0.133333      2.000000
  0.133333 -0.066667  0.133333      2.000000
  0.200000 -0.066667  0.133333      2.000000
  0.266667 -0.066667  0.133333      2.000000
  0.333333 -0.066667  0.133333      2.000000
  0.400000 -0.066667  0.133333      2.000000
  0.466667 -0.066667  0.133333      2.000000
 -0.466667 -0.066667  0.133333      2.000000
 -0.400000 -0.066667  0.133333      2.000000
 -0.333333 -0.066667  0.133333      2.000000
 -0.266667 -0.066667  0.133333      2.000000
 -0.200000 -0.066667  0.133333      2.000000
 -0.133333 -0.066667  0.133333      2.000000
 -0.066667 -0.066667  0.133333      2.000000
  0.000000  0.000000  0.200000      2.000000
  0.066667  0.000000  0.200000      2.000000
  0.133333  0.000000  0.200000      2.000000
  0.200000  0.000000  0.200000      2.000000
  0.266667  0.000000  0.200000      2.000000
  0.333333  0.000000  0.200000      2.000000
  0.400000  0.000000  0.200000      2.000000
  0.466667  0.000000  0.200000      2.000000
 -0.466667  0.000000  0.200000      2.000000
 -0.400000  0.000000  0.200000      2.000000
 -0.333333  0.000000  0.200000      2.000000
 -0.266667  0.000000  0.200000      2.000000
 -0.200000  0.000000  0.200000      2.000000
 -0.133333  0.000000  0.200000      2.000000
 -0.066667  0.000000  0.200000      2.000000
 -0.000000  0.066667  0.200000      2.000000
  0.066667  0.066667  0.200000      2.000000
  0.133333  0.066667  0.200000      2.000000
  0.200000  0.066667  0.200000      2.000000
  0.266667  0.066667  0.200000      2.000000
  0.333333  0.066667  0.200000      2.000000
  0.400000  0.066667  0.200000      2.000000
  0.466667  0.066667  0.200000      2.000000
 -0.466667  0.066667  0.200000      2.000000
 -0.400000  0.066667  0.200000      2.000000
 -0.333333  0.066667  0.200000      2.000000
 -0.266667  0.066667  0.200000      2.000000
 -0.200000  0.066667  0.200000      2.000000
 -0.133333  0.066667  0.200000      2.000000
 -0.066667  0.066667  0.200000      2.000000
 -0.000000  0.133333  0.200000      2.000000
  0.066667  0.133333  0.200000      2.000000
  0.133333  0.133333  0.200000      2.000000
  0.200000  0.133333  0.200000      2.000000
  0.266667  0.133333  0.200000      2.000000
  0.333333  0.133333  0.200000      2.000000
  0.400000  0.133333  0.200000      2.000000
  0.466667  0.133333  0.200000      2.000000
 -0.466667  0.133333  0.200000      2.000000
 -0.400000  0.133333  0.200000      2.000000
 -0.333333  0.133333  0.200000      2.000000
 -0.266667  0.133333  0.200000      2.000000
 -0.200000  0.133333  0.200000      2.000000
 -0.133333  0.133333  0.200000      2.000000
 -0.066667  0.133333  0.200000      2.000000
  0.000000  0.200000  0.200000      2.000000
  0.066667  0.200000  0.200000      2.000000
  0.133333  0.200000  0.200000      2.000000
  0.200000  0.200000  0.200000      2.000000
  0.266667  0.200000  0.200000      2.000000
  0.333333  0.200000  0.200000      2.000000
  0.400000  0.200000  0.200000      2.000000
  0.466667  0.200000  0.200000      2.000000
 -0.466667  0.200000  0.200000      2.000000
 -0.400000  0.200000  0.200000      2.000000
 -0.333333  0.200000  0.200000      2.000000
 -0.266667  0.200000  0.200000      2.000000
 -0.200000  0.200000  0.200000      2.000000
 -0.133333  0.200000  0.200000      2.000000
 -0.066667  0.200000  0.200000      2.000000
 -0.000000  0.266667  0.200000      2.000000
  0.066667  0.266667  0.200000      2.000000
  0.133333  0.266667  0.200000      2.000000
  0.200000  0.266667  0.200000      2.000000
  0.266667  0.266667  0.200000      2.000000
  0.333333  0.266667  0.200000      2.000000
  0.400000  0.266667  0.200000      2.000000
  0.466667  0.266667  0.200000      2.000000
 -0.466667  0.266667  0.200000      2.000000
 -0.400000  0.266667  0.200000      2.000000
 -0.333333  0.266667  0.200000      2.000000
 -0.266667  0.266667  0.200000      2.000000
 -0.200000  0.266667  0.200000      2.000000
 -0.133333  0.266667  0.200000      2.000000
 -0.066667  0.266667  0.200000      2.000000
 -0.000000  0.333333  0.200000      2.000000
  0.066667  0.333333  0.200000      2.000000
  0.133333  0.333333  0.200000      2.000000
  0.200000  0.333333  0.200000      2.000000
  0.266667  0.333333  0.200000      2.000000
  0.333333  0.333333  0.200000      2.000000
  0.400000  0.333333  0.200000      2.000000
  0.466667  0.333333  0.200000      2.000000
 -0.466667  0.333333  0.200000      2.000000
 -0.400000  0.333333  0.200000      2.000000
 -0.333333  0.333333  0.200000      2.000000
 -0.266667  0.333333  0.200000      2.000000
 -0.200000  0.333333  0.200000      2.000000
 -0.133333  0.333333  0.200000      2.000000
 -0.066667  0.333333  0.200000      2.000000
 -0.000000  0.400000  0.200000      2.000000
  0.066667  0.400000  0.200000      2.000000
  0.133333  0.400000  0.200000      2.000000
  0.200000  0.400000  0.200000      2.000000
  0.266667  0.400000  0.200000      2.000000
  0.333333  0.400000  0.200000      2.000000
  0.400000  0.400000  0.200000      2.000000
  0.466667  0.400000  0.200000      2.000000
 -0.466667  0.400000  0.200000      2.000000
 -0.400000  0.400000  0.200000      2.000000
 -0.333333  0.400000  0.200000      2.000000
 -0.266667  0.400000  0.200000      2.000000
 -0.200000  0.400000  0.200000      2.000000
 -0.133333  0.400000  0.200000      2.000000
 -0.066667  0.400000  0.200000      2.000000
 -0.000000  0.466667  0.200000      2.000000
  0.066667  0.466667  0.200000      2.000000
  0.133333  0.466667  0.200000      2.000000
  0.200000  0.466667  0.200000      2.000000
  0.266667  0.466667  0.200000      2.000000
  0.333333  0.466667  0.200000      2.000000
  0.400000  0.466667  0.200000      2.000000
  0.466667  0.466667  0.200000      2.000000
 -0.466667  0.466667  0.200000      2.000000
 -0.400000  0.466667  0.200000      2.000000
 -0.333333  0.466667  0.200000      2.000000
 -0.266667  0.466667  0.200000      2.000000
 -0.200000  0.466667  0.200000      2.000000
 -0.133333  0.466667  0.200000      2.000000
 -0.066667  0.466667  0.200000      2.000000
  0.000000 -0.466667  0.200000      2.000000
  0.066667 -0.466667  0.200000      2.000000
  0.133333 -0.466667  0.200000      2.000000
  0.200000 -0.466667  0.200000      2.000000
  0.266667 -0.466667  0.200000      2.000000
  0.333333 -0.466667  0.200000      2.000000
  0.400000 -0.466667  0.200000      2.000000
  0.466667 -0.466667  0.200000      2.000000
 -0.466667 -0.466667  0.200000      2.000000
 -0.400000 -0.466667  0.200000      2.000000
 -0.333333 -0.466667  0.200000      2.000000
 -0.266667 -0.466667  0.200000      2.000000
 -0.200000 -0.466667  0.200000      2.000000
 -0.133333 -0.466667  0.200000      2.000000
 -0.066667 -0.466667  0.200000      2.000000
 -0.000000 -0.400000  0.200000      2.000000
  0.066667 -0.400000  0.200000      2.000000
  0.133333 -0.400000  0.200000      2.000000
  0.200000 -0.400000  0.200000      2.000000
  0.266667 -0.400000  0.200000      2.000000
  0.333333 -0.400000  0.200000      2.000000
  0.400000 -0.400000  0.200000      2.000000
  0.466667 -0.400000  0.200000      2.000000
 -0.466667 -0.400000  0.200000      2.000000
 -0.400000 -0.400000  0.200000      2.000000
 -0.333333 -0.400000  0.200000      2.000000
 -0.266667 -0.400000  0.200000      2.000000
 -0.200000 -0.400000  0.200000      2.000000
 -0.133333 -0.400000  0.200000      2.000000
 -0.066667 -0.400000  0.200000      2.000000
 -0.000000 -0.333333  0.200000      2.000000
  0.066667 -0.333333  0.200000      2.000000
  0.133333 -0.333333  0.200000      2.000000
  0.200000 -0.333333  0.200000      2.000000
  0.266667 -0.333333  0.200000      2.000000
  0.333333 -0.333333  0.200000      2.000000
  0.400000 -0.333333  0.200000      2.000000
  0.466667 -0.333333  0.200000      2.000000
 -0.466667 -0.333333  0.200000      2.000000
 -0.400000 -0.333333  0.200000      2.000000
 -0.333333 -0.333333  0.200000      2.000000
 -0.266667 -0.333333  0.200000      2.000000
 -0.200000 -0.333333  0.200000      2.000000
 -0.133333 -0.333333  0.200000      2.000000
 -0.066667 -0.333333  0.200000      2.000000
  0.000000 -0.266667  0.200000      2.000000
  0.066667 -0.266667  0.200000      2.000000
  0.133333 -0.266667  0.200000      2.000000
  0.200000 -0.266667  0.200000      2.000000
  0.266667 -0.266667  0.200000      2.000000
  0.333333 -0.266667  0.200000      2.000000
  0.400000 -0.266667  0.200000      2.000000
  0.466667 -0.266667  0.200000      2.000000
 -0.466667 -0.266667  0.200000      2.000000
 -0.400000 -0.266667  0.200000      2.000000
 -0.333333 -0.266667  0.200000      2.000000
 -0.266667 -0.266667  0.200000      2.000000
 -0.200000 -0.266667  0.200000      2.000000
 -0.133333 -0.266667  0.200000      2.000000
 -0.066667 -0.266667  0.200000      2.000000
 -0.000000 -0.200000  0.200000      2.000000
  0.066667 -0.200000  0.200000      2.000000
  0.133333 -0.200000  0.200000      2.000000
  0.200000 -0.200000  0.200000      2.000000
  0.266667 -0.200000  0.200000      2.000000
  0.333333 -0.200000  0.200000      2.000000
  0.400000 -0.200000  0.200000      2.000000
  0.466667 -0.200000  0.200000      2.000000
 -0.466667 -0.200000  0.200000      2.000000
 -0.400000 -0.200000  0.200000      2.000000
 -0.333333 -0.200000  0.200000      2.000000
 -0.266667 -0.200000  0.200000      2.000000
 -0.200000 -0.200000  0.200000      2.000000
 -0.133333 -0.200000  0.200000      2.000000
 -0.066667 -0.200000  0.200000      2.000000
  0.000000 -0.133333  0.200000      2.000000
  0.066667 -0.133333  0.200000      2.000000
  0.133333 -0.133333  0.200000      2.000000
  0.200000 -0.133333  0.200000      2.000000
  0.266667 -0.133333  0.200000      2.000000
  0.333333 -0.133333  0.200000      2.000000
  0.400000 -0.133333  0.200000      2.000000
  0.466667 -0.133333  0.200000      2.000000
 -0.466667 -0.133333  0.200000      2.000000
 -0.400000 -0.133333  0.200000      2.000000
 -0.333333 -0.133333  0.200000      2.000000
 -0.266667 -0.133333  0.200000      2.000000
 -0.200000 -0.133333  0.200000      2.000000
 -0.133333 -0.133333  0.200000      2.000000
 -0.066667 -0.133333  0.200000      2.000000
  0.000000 -0.066667  0.200000      2.000000
  0.066667 -0.066667  0.200000      2.000000
  0.133333 -0.066667  0.200000      2.000000
  0.200000 -0.066667  0.200000      2.000000
  0.266667 -0.066667  0.200000      2.000000
  0.333333 -0.066667  0.200000      2.000000
  0.400000 -0.066667  0.200000      2.000000
  0.466667 -0.066667  0.200000      2.000000
 -0.466667 -0.066667  0.200000      2.000000
 -0.400000 -0.066667  0.200000      2.000000
 -0.333333 -0.066667  0.200000      2.000000
 -0.266667 -0.066667  0.200000      2.000000
 -0.200000 -0.066667  0.200000      2.000000
 -0.133333 -0.066667  0.200000      2.000000
 -0.066667 -0.066667  0.200000      2.000000
 -0.000000  0.000000  0.266667      2.000000
  0.066667  0.000000  0.266667      2.000000
  0.133333  0.000000  0.266667      2.000000
  0.200000  0.000000  0.266667      2.000000
  0.266667  0.000000  0.266667      2.000000
  0.333333  0.000000  0.266667      2.000000
  0.400000  0.000000  0.266667      2.000000
  0.466667  0.000000  0.266667      2.000000
 -0.466667  0.000000  0.266667      2.000000
 -0.400000  0.000000  0.266667      2.000000
 -0.333333  0.000000  0.266667      2.000000
 -0.266667  0.000000  0.266667      2.000000
 -0.200000  0.000000  0.266667      2.000000
 -0.133333  0.000000  0.266667      2.000000
 -0.066667  0.000000  0.266667      2.000000
  0.000000  0.066667  0.266667      2.000000
  0.066667  0.066667  0.266667      2.000000
  0.133333  0.066667  0.266667      2.000000
  0.200000  0.066667  0.266667      2.000000
  0.266667  0.066667  0.266667      2.000000
  0.333333  0.066667  0.266667      2.000000
  0.400000  0.066667  0.266667      2.000000
  0.466667  0.066667  0.266667      2.000000
 -0.466667  0.066667  0.266667      2.000000
 -0.400000  0.066667  0.266667      2.000000
 -0.333333  0.066667  0.266667      2.000000
 -0.266667  0.066667  0.266667      2.000000
 -0.200000  0.066667  0.266667      2.000000
 -0.133333  0.066667  0.266667      2.000000
 -0.066667  0.066667  0.266667      2.000000
 -0.000000  0.133333  0.266667      2.000000
  0.066667  0.133333  0.266667      2.000000
  0.133333  0.133333  0.266667      2.000000
  0.200000  0.133333  0.266667      2.000000
  0.266667  0.133333  0.266667      2.000000
  0.333333  0.133333  0.266667      2.000000
  0.400000  0.133333  0.266667      2.000000
  0.466667  0.133333  0.266667      2.000000
 -0.466667  0.133333  0.266667      2.000000
 -0.400000  0.133333  0.266667      2.000000
 -0.333333  0.133333  0.266667      2.000000
 -0.266667  0.133333  0.266667      2.000000
 -0.200000  0.133333  0.266667      2.000000
 -0.133333  0.133333  0.266667      2.000000
 -0.066667  0.133333  0.266667      2.000000
 -0.000000  0.200000  0.266667      2.000000
  0.066667  0.200000  0.266667      2.000000
  0.133333  0.200000  0.266667      2.000000
  0.200000  0.200000  0.266667      2.000000
  0.266667  0.200000  0.266667      2.000000
  0.333333  0.200000  0.266667      2.000000
  0.400000  0.200000  0.266667      2.000000
  0.466667  0.200000  0.266667      2.000000
 -0.466667  0.200000  0.266667      2.000000
 -0.400000  0.200000  0.266667      2.000000
 -0.333333  0.200000  0.266667      2.000000
 -0.266667  0.200000  0.266667      2.000000
 -0.200000  0.200000  0.266667      2.000000
 -0.133333  0.200000  0.266667      2.000000
 -0.066667  0.200000  0.266667      2.000000
 -0.000000  0.266667  0.266667      2.000000
  0.066667  0.266667  0.266667      2.000000
  0.133333  0.266667  0.266667      2.000000
  0.200000  0.266667  0.266667      2.000000
  0.266667  0.266667  0.266667      2.000000
  0.333333  0.266667  0.266667      2.000000
  0.400000  0.266667  0.266667      2.000000
  0.466667  0.266667  0.266667      2.000000
 -0.466667  0.266667  0.266667      2.000000
 -0.400000  0.266667  0.266667      2.000000
 -0.333333  0.266667  0.266667      2.000000
 -0.266667  0.266667  0.266667      2.000000
 -0.200000  0.266667  0.266667      2.000000
 -0.133333  0.266667  0.266667      2.000000
 -0.066667  0.266667  0.266667      2.000000
 -0.000000  0.333333  0.266667      2.000000
  0.066667  0.333333  0.266667      2.000000
  0.133333  0.333333  0.266667      2.000000
  0.200000  0.333333  0.266667      2.000000
  0.266667  0.333333  0.266667      2.000000
  0.333333  0.333333  0.266667      2.000000
  0.400000  0.333333  0.266667      2.000000
  0.466667  0.333333  0.266667      2.000000
 -0.466667  0.333333  0.266667      2.000000
 -0.400000  0.333333  0.266667      2.000000
 -0.333333  0.333333  0.266667      2.000000
 -0.266667  0.333333  0.266667      2.000000
 -0.200000  0.333333  0.266667      2.000000
 -0.133333  0.333333  0.266667      2.000000
 -0.066667  0.333333  0.266667      2.000000
 -0.000000  0.400000  0.266667      2.000000
  0.066667  0.400000  0.266667      2.000000
  0.133333  0.400000  0.266667      2.000000
  0.200000  0.400000  0.266667      2.000000
  0.266667  0.400000  0.266667      2.000000
  0.333333  0.400000  0.266667      2.000000
  0.400000  0.400000  0.266667      2.000000
  0.466667  0.400000  0.266667      2.000000
 -0.466667  0.400000  0.266667      2.000000
 -0.400000  0.400000  0.266667      2.000000
 -0.333333  0.400000  0.266667      2.000000
 -0.266667  0.400000  0.266667      2.000000
 -0.200000  0.400000  0.266667      2.000000
 -0.133333  0.400000  0.266667      2.000000
 -0.066667  0.400000  0.266667      2.000000
 -0.000000  0.466667  0.266667      2.000000
  0.066667  0.466667  0.266667      2.000000
  0.133333  0.466667  0.266667      2.000000
  0.200000  0.466667  0.266667      2.000000
  0.266667  0.466667  0.266667      2.000000
  0.333333  0.466667  0.266667      2.000000
  0.400000  0.466667  0.266667      2.000000
  0.466667  0.466667  0.266667      2.000000
 -0.466667  0.466667  0.266667      2.000000
 -0.400000  0.466667  0.266667      2.000000
 -0.333333  0.466667  0.266667      2.000000
 -0.266667  0.466667  0.266667      2.000000
 -0.200000  0.466667  0.266667      2.000000
 -0.133333  0.466667  0.266667      2.000000
 -0.066667  0.466667  0.266667      2.000000
  0.000000 -0.466667  0.266667      2.000000
  0.066667 -0.466667  0.266667      2.000000
  0.133333 -0.466667  0.266667      2.000000
  0.200000 -0.466667  0.266667      2.000000
  0.266667 -0.466667  0.266667      2.000000
  0.333333 -0.466667  0.266667      2.000000
  0.400000 -0.466667  0.266667      2.000000
  0.466667 -0.466667  0.266667      2.000000
 -0.466667 -0.466667  0.266667      2.000000
 -0.400000 -0.466667  0.266667      2.000000
 -0.333333 -0.466667  0.266667      2.000000
 -0.266667 -0.466667  0.266667      2.000000
 -0.200000 -0.466667  0.266667      2.000000
 -0.133333 -0.466667  0.266667      2.000000
 -0.066667 -0.466667  0.266667      2.000000
  0.000000 -0.400000  0.266667      2.000000
  0.066667 -0.400000  0.266667      2.000000
  0.133333 -0.400000  0.266667      2.000000
  0.200000 -0.400000  0.266667      2.000000
  0.266667 -0.400000  0.266667      2.000000
  0.333333 -0.400000  0.266667      2.000000
  0.400000 -0.400000  0.266667      2.000000
  0.466667 -0.400000  0.266667      2.000000
 -0.466667 -0.400000  0.266667      2.000000
 -0.400000 -0.400000  0.266667      2.000000
 -0.333333 -0.400000  0.266667      2.000000
 -0.266667 -0.400000  0.266667      2.000000
 -0.200000 -0.400000  0.266667      2.000000
 -0.133333 -0.400000  0.266667      2.000000
 -0.066667 -0.400000  0.266667      2.000000
  0.000000 -0.333333  0.266667      2.000000
  0.066667 -0.333333  0.266667      2.000000
  0.133333 -0.333333  0.266667      2.000000
  0.200000 -0.333333  0.266667      2.000000
  0.266667 -0.333333  0.266667      2.000000
  0.333333 -0.333333  0.266667      2.000000
  0.400000 -0.333333  0.266667      2.000000
  0.466667 -0.333333  0.266667      2.000000
 -0.466667 -0.333333  0.266667      2.000000
 -0.400000 -0.333333  0.266667      2.000000
 -0.333333 -0.333333  0.266667      2.000000
 -0.266667 -0.333333  0.266667      2.000000
 -0.200000 -0.333333  0.266667      2.000000
 -0.133333 -0.333333  0.266667      2.000000
 -0.066667 -0.333333  0.266667      2.000000
  0.000000 -0.266667  0.266667      2.000000
  0.066667 -0.266667  0.266667      2.000000
  0.133333 -0.266667  0.266667      2.000000
  0.200000 -0.266667  0.266667      2.000000
  0.266667 -0.266667  0.266667      2.000000
  0.333333 -0.266667  0.266667      2.000000
  0.400000 -0.266667  0.266667      2.000000
  0.466667 -0.266667  0.266667      2.000000
 -0.466667 -0.266667  0.266667      2.000000
 -0.400000 -0.266667  0.266667      2.000000
 -0.333333 -0.266667  0.266667      2.000000
 -0.266667 -0.266667  0.266667      2.000000
 -0.200000 -0.266667  0.266667      2.000000
 -0.133333 -0.266667  0.266667      2.000000
 -0.066667 -0.266667  0.266667      2.000000
 -0.000000 -0.200000  0.266667      2.000000
  0.066667 -0.200000  0.266667      2.000000
  0.133333 -0.200000  0.266667      2.000000
  0.200000 -0.200000  0.266667      2.000000
  0.266667 -0.200000  0.266667      2.000000
  0.333333 -0.200000  0.266667      2.000000
  0.400000 -0.200000  0.266667      2.000000
  0.466667 -0.200000  0.266667      2.000000
 -0.466667 -0.200000  0.266667      2.000000
 -0.400000 -0.200000  0.266667      2.000000
 -0.333333 -0.200000  0.266667      2.000000
 -0.266667 -0.200000  0.266667      2.000000
 -0.200000 -0.200000  0.266667      2.000000
 -0.133333 -0.200000  0.266667      2.000000
 -0.066667 -0.200000  0.266667      2.000000
  0.000000 -0.133333  0.266667      2.000000
  0.066667 -0.133333  0.266667      2.000000
  0.133333 -0.133333  0.266667      2.000000
  0.200000 -0.133333  0.266667      2.000000
  0.266667 -0.133333  0.266667      2.000000
  0.333333 -0.133333  0.266667      2.000000
  0.400000 -0.133333  0.266667      2.000000
  0.466667 -0.133333  0.266667      2.000000
 -0.466667 -0.133333  0.266667      2.000000
 -0.400000 -0.133333  0.266667      2.000000
 -0.333333 -0.133333  0.266667      2.000000
 -0.266667 -0.133333  0.266667      2.000000
 -0.200000 -0.133333  0.266667      2.000000
 -0.133333 -0.133333  0.266667      2.000000
 -0.066667 -0.133333  0.266667      2.000000
 -0.000000 -0.066667  0.266667      2.000000
  0.066667 -0.066667  0.266667      2.000000
  0.133333 -0.066667  0.266667      2.000000
  0.200000 -0.066667  0.266667      2.000000
  0.266667 -0.066667  0.266667      2.000000
  0.333333 -0.066667  0.266667      2.000000
  0.400000 -0.066667  0.266667      2.000000
  0.466667 -0.066667  0.266667      2.000000
 -0.466667 -0.066667  0.266667      2.000000
 -0.400000 -0.066667  0.266667      2.000000
 -0.333333 -0.066667  0.266667      2.000000
 -0.266667 -0.066667  0.266667      2.000000
 -0.200000 -0.066667  0.266667      2.000000
 -0.133333 -0.066667  0.266667      2.000000
 -0.066667 -0.066667  0.266667      2.000000
 -0.000000  0.000000  0.333333      2.000000
  0.066667  0.000000  0.333333      2.000000
  0.133333  0.000000  0.333333      2.000000
  0.200000  0.000000  0.333333      2.000000
  0.266667  0.000000  0.333333      2.000000
  0.333333  0.000000  0.333333      2.000000
  0.400000  0.000000  0.333333      2.000000
  0.466667  0.000000  0.333333      2.000000
 -0.466667  0.000000  0.333333      2.000000
 -0.400000  0.000000  0.333333      2.000000
 -0.333333  0.000000  0.333333      2.000000
 -0.266667  0.000000  0.333333      2.000000
 -0.200000  0.000000  0.333333      2.000000
 -0.133333  0.000000  0.333333      2.000000
 -0.066667  0.000000  0.333333      2.000000
  0.000000  0.066667  0.333333      2.000000
  0.066667  0.066667  0.333333      2.000000
  0.133333  0.066667  0.333333      2.000000
  0.200000  0.066667  0.333333      2.000000
  0.266667  0.066667  0.333333      2.000000
  0.333333  0.066667  0.333333      2.000000
  0.400000  0.066667  0.333333      2.000000
  0.466667  0.066667  0.333333      2.000000
 -0.466667  0.066667  0.333333      2.000000
 -0.400000  0.066667  0.333333      2.000000
 -0.333333  0.066667  0.333333      2.000000
 -0.266667  0.066667  0.333333      2.000000
 -0.200000  0.066667  0.333333      2.000000
 -0.133333  0.066667  0.333333      2.000000
 -0.066667  0.066667  0.333333      2.000000
 -0.000000  0.133333  0.333333      2.000000
  0.066667  0.133333  0.333333      2.000000
  0.133333  0.133333  0.333333      2.000000
  0.200000  0.133333  0.333333      2.000000
  0.266667  0.133333  0.333333      2.000000
  0.333333  0.133333  0.333333      2.000000
  0.400000  0.133333  0.333333      2.000000
  0.466667  0.133333  0.333333      2.000000
 -0.466667  0.133333  0.333333      2.000000
 -0.400000  0.133333  0.333333      2.000000
 -0.333333  0.133333  0.333333      2.000000
 -0.266667  0.133333  0.333333      2.000000
 -0.200000  0.133333  0.333333      2.000000
 -0.133333  0.133333  0.333333      2.000000
 -0.066667  0.133333  0.333333      2.000000
  0.000000  0.200000  0.333333      2.000000
  0.066667  0.200000  0.333333      2.000000
  0.133333  0.200000  0.333333      2.000000
  0.200000  0.200000  0.333333      2.000000
  0.266667  0.200000  0.333333      2.000000
  0.333333  0.200000  0.333333      2.000000
  0.400000  0.200000  0.333333      2.000000
  0.466667  0.200000  0.333333      2.000000
 -0.466667  0.200000  0.333333      2.000000
 -0.400000  0.200000  0.333333      2.000000
 -0.333333  0.200000  0.333333      2.000000
 -0.266667  0.200000  0.333333      2.000000
 -0.200000  0.200000  0.333333      2.000000
 -0.133333  0.200000  0.333333      2.000000
 -0.066667  0.200000  0.333333      2.000000
 -0.000000  0.266667  0.333333      2.000000
  0.066667  0.266667  0.333333      2.000000
  0.133333  0.266667  0.333333      2.000000
  0.200000  0.266667  0.333333      2.000000
  0.266667  0.266667  0.333333      2.000000
  0.333333  0.266667  0.333333      2.000000
  0.400000  0.266667  0.333333      2.000000
  0.466667  0.266667  0.333333      2.000000
 -0.466667  0.266667  0.333333      2.000000
 -0.400000  0.266667  0.333333      2.000000
 -0.333333  0.266667  0.333333      2.000000
 -0.266667  0.266667  0.333333      2.000000
 -0.200000  0.266667  0.333333      2.000000
 -0.133333  0.266667  0.333333      2.000000
 -0.066667  0.266667  0.333333      2.000000
 -0.000000  0.333333  0.333333      2.000000
  0.066667  0.333333  0.333333      2.000000
  0.133333  0.333333  0.333333      2.000000
  0.200000  0.333333  0.333333      2.000000
  0.266667  0.333333  0.333333      2.000000
  0.333333  0.333333  0.333333      2.000000
  0.400000  0.333333  0.333333      2.000000
  0.466667  0.333333  0.333333      2.000000
 -0.466667  0.333333  0.333333      2.000000
 -0.400000  0.333333  0.333333      2.000000
 -0.333333  0.333333  0.333333      2.000000
 -0.266667  0.333333  0.333333      2.000000
 -0.200000  0.333333  0.333333      2.000000
 -0.133333  0.333333  0.333333      2.000000
 -0.066667  0.333333  0.333333      2.000000
 -0.000000  0.400000  0.333333      2.000000
  0.066667  0.400000  0.333333      2.000000
  0.133333  0.400000  0.333333      2.000000
  0.200000  0.400000  0.333333      2.000000
  0.266667  0.400000  0.333333      2.000000
  0.333333  0.400000  0.333333      2.000000
  0.400000  0.400000  0.333333      2.000000
  0.466667  0.400000  0.333333      2.000000
 -0.466667  0.400000  0.333333      2.000000
 -0.400000  0.400000  0.333333      2.000000
 -0.333333  0.400000  0.333333      2.000000
 -0.266667  0.400000  0.333333      2.000000
 -0.200000  0.400000  0.333333      2.000000
 -0.133333  0.400000  0.333333      2.000000
 -0.066667  0.400000  0.333333      2.000000
 -0.000000  0.466667  0.333333      2.000000
  0.066667  0.466667  0.333333      2.000000
  0.133333  0.466667  0.333333      2.000000
  0.200000  0.466667  0.333333      2.000000
  0.266667  0.466667  0.333333      2.000000
  0.333333  0.466667  0.333333      2.000000
  0.400000  0.466667  0.333333      2.000000
  0.466667  0.466667  0.333333      2.000000
 -0.466667  0.466667  0.333333      2.000000
 -0.400000  0.466667  0.333333      2.000000
 -0.333333  0.466667  0.333333      2.000000
 -0.266667  0.466667  0.333333      2.000000
 -0.200000  0.466667  0.333333      2.000000
 -0.133333  0.466667  0.333333      2.000000
 -0.066667  0.466667  0.333333      2.000000
  0.000000 -0.466667  0.333333      2.000000
  0.066667 -0.466667  0.333333      2.000000
  0.133333 -0.466667  0.333333      2.000000
  0.200000 -0.466667  0.333333      2.000000
  0.266667 -0.466667  0.333333      2.000000
  0.333333 -0.466667  0.333333      2.000000
  0.400000 -0.466667  0.333333      2.000000
  0.466667 -0.466667  0.333333      2.000000
 -0.466667 -0.466667  0.333333      2.000000
 -0.400000 -0.466667  0.333333      2.000000
 -0.333333 -0.466667  0.333333      2.000000
 -0.266667 -0.466667  0.333333      2.000000
 -0.200000 -0.466667  0.333333      2.000000
 -0.133333 -0.466667  0.333333      2.000000
 -0.066667 -0.466667  0.333333      2.000000
  0.000000 -0.400000  0.333333      2.000000
  0.066667 -0.400000  0.333333      2.000000
  0.133333 -0.400000  0.333333      2.000000
  0.200000 -0.400000  0.333333      2.000000
  0.266667 -0.400000  0.333333      2.000000
  0.333333 -0.400000  0.333333      2.000000
  0.400000 -0.400000  0.333333      2.000000
  0.466667 -0.400000  0.333333      2.000000
 -0.466667 -0.400000  0.333333      2.000000
 -0.400000 -0.400000  0.333333      2.000000
 -0.333333 -0.400000  0.333333      2.000000
 -0.266667 -0.400000  0.333333      2.000000
 -0.200000 -0.400000  0.333333      2.000000
 -0.133333 -0.400000  0.333333      2.000000
 -0.066667 -0.400000  0.333333      2.000000
  0.000000 -0.333333  0.333333      2.000000
  0.066667 -0.333333  0.333333      2.000000
  0.133333 -0.333333  0.333333      2.000000
  0.200000 -0.333333  0.333333      2.000000
  0.266667 -0.333333  0.333333      2.000000
  0.333333 -0.333333  0.333333      2.000000
  0.400000 -0.333333  0.333333      2.000000
  0.466667 -0.333333  0.333333      2.000000
 -0.466667 -0.333333  0.333333      2.000000
 -0.400000 -0.333333  0.333333      2.000000
 -0.333333 -0.333333  0.333333      2.000000
 -0.266667 -0.333333  0.333333      2.000000
 -0.200000 -0.333333  0.333333      2.000000
 -0.133333 -0.333333  0.333333      2.000000
 -0.066667 -0.333333  0.333333      2.000000
 -0.000000 -0.266667  0.333333      2.000000
  0.066667 -0.266667  0.333333      2.000000
  0.133333 -0.266667  0.333333      2.000000
  0.200000 -0.266667  0.333333      2.000000
  0.266667 -0.266667  0.333333      2.000000
  0.333333 -0.266667  0.333333      2.000000
  0.400000 -0.266667  0.333333      2.000000
  0.466667 -0.266667  0.333333      2.000000
 -0.466667 -0.266667  0.333333      2.000000
 -0.400000 -0.266667  0.333333      2.000000
 -0.333333 -0.266667  0.333333      2.000000
 -0.266667 -0.266667  0.333333      2.000000
 -0.200000 -0.266667  0.333333      2.000000
 -0.133333 -0.266667  0.333333      2.000000
 -0.066667 -0.266667  0.333333      2.000000
  0.000000 -0.200000  0.333333      2.000000
  0.066667 -0.200000  0.333333      2.000000
  0.133333 -0.200000  0.333333      2.000000
  0.200000 -0.200000  0.333333      2.000000
  0.266667 -0.200000  0.333333      2.000000
  0.333333 -0.200000  0.333333      2.000000
  0.400000 -0.200000  0.333333      2.000000
  0.466667 -0.200000  0.333333      2.000000
 -0.466667 -0.200000  0.333333      2.000000
 -0.400000 -0.200000  0.333333      2.000000
 -0.333333 -0.200000  0.333333      2.000000
 -0.266667 -0.200000  0.333333      2.000000
 -0.200000 -0.200000  0.333333      2.000000
 -0.133333 -0.200000  0.333333      2.000000
 -0.066667 -0.200000  0.333333      2.000000
  0.000000 -0.133333  0.333333      2.000000
  0.066667 -0.133333  0.333333      2.000000
  0.133333 -0.133333  0.333333      2.000000
  0.200000 -0.133333  0.333333      2.000000
  0.266667 -0.133333  0.333333      2.000000
  0.333333 -0.133333  0.333333      2.000000
  0.400000 -0.133333  0.333333      2.000000
  0.466667 -0.133333  0.333333      2.000000
 -0.466667 -0.133333  0.333333      2.000000
 -0.400000 -0.133333  0.333333      2.000000
 -0.333333 -0.133333  0.333333      2.000000
 -0.266667 -0.133333  0.333333      2.000000
 -0.200000 -0.133333  0.333333      2.000000
 -0.133333 -0.133333  0.333333      2.000000
 -0.066667 -0.133333  0.333333      2.000000
  0.000000 -0.066667  0.333333      2.000000
  0.066667 -0.066667  0.333333      2.000000
  0.133333 -0.066667  0.333333      2.000000
  0.200000 -0.066667  0.333333      2.000000
  0.266667 -0.066667  0.333333      2.000000
  0.333333 -0.066667  0.333333      2.000000
  0.400000 -0.066667  0.333333      2.000000
  0.466667 -0.066667  0.333333      2.000000
 -0.466667 -0.066667  0.333333      2.000000
 -0.400000 -0.066667  0.333333      2.000000
 -0.333333 -0.066667  0.333333      2.000000
 -0.266667 -0.066667  0.333333      2.000000
 -0.200000 -0.066667  0.333333      2.000000
 -0.133333 -0.066667  0.333333      2.000000
 -0.066667 -0.066667  0.333333      2.000000
  0.000000  0.000000  0.400000      2.000000
  0.066667  0.000000  0.400000      2.000000
  0.133333  0.000000  0.400000      2.000000
  0.200000  0.000000  0.400000      2.000000
  0.266667  0.000000  0.400000      2.000000
  0.333333  0.000000  0.400000      2.000000
  0.400000  0.000000  0.400000      2.000000
  0.466667  0.000000  0.400000      2.000000
 -0.466667  0.000000  0.400000      2.000000
 -0.400000  0.000000  0.400000      2.000000
 -0.333333  0.000000  0.400000      2.000000
 -0.266667  0.000000  0.400000      2.000000
 -0.200000  0.000000  0.400000      2.000000
 -0.133333  0.000000  0.400000      2.000000
 -0.066667  0.000000  0.400000      2.000000
  0.000000  0.066667  0.400000      2.000000
  0.066667  0.066667  0.400000      2.000000
  0.133333  0.066667  0.400000      2.000000
  0.200000  0.066667  0.400000      2.000000
  0.266667  0.066667  0.400000      2.000000
  0.333333  0.066667  0.400000      2.000000
  0.400000  0.066667  0.400000      2.000000
  0.466667  0.066667  0.400000      2.000000
 -0.466667  0.066667  0.400000      2.000000
 -0.400000  0.066667  0.400000      2.000000
 -0.333333  0.066667  0.400000      2.000000
 -0.266667  0.066667  0.400000      2.000000
 -0.200000  0.066667  0.400000      2.000000
 -0.133333  0.066667  0.400000      2.000000
 -0.066667  0.066667  0.400000      2.000000
 -0.000000  0.133333  0.400000      2.000000
  0.066667  0.133333  0.400000      2.000000
  0.133333  0.133333  0.400000      2.000000
  0.200000  0.133333  0.400000      2.000000
  0.266667  0.133333  0.400000      2.000000
  0.333333  0.133333  0.400000      2.000000
  0.400000  0.133333  0.400000      2.000000
  0.466667  0.133333  0.400000      2.000000
 -0.466667  0.133333  0.400000      2.000000
 -0.400000  0.133333  0.400000      2.000000
 -0.333333  0.133333  0.400000      2.000000
 -0.266667  0.133333  0.400000      2.000000
 -0.200000  0.133333  0.400000      2.000000
 -0.133333  0.133333  0.400000      2.000000
 -0.066667  0.133333  0.400000      2.000000
 -0.000000  0.200000  0.400000      2.000000
  0.066667  0.200000  0.400000      2.000000
  0.133333  0.200000  0.400000      2.000000
  0.200000  0.200000  0.400000      2.000000
  0.266667  0.200000  0.400000      2.000000
  0.333333  0.200000  0.400000      2.000000
  0.400000  0.200000  0.400000      2.000000
  0.466667  0.200000  0.400000      2.000000
 -0.466667  0.200000  0.400000      2.000000
 -0.400000  0.200000  0.400000      2.000000
 -0.333333  0.200000  0.400000      2.000000
 -0.266667  0.200000  0.400000      2.000000
 -0.200000  0.200000  0.400000      2.000000
 -0.133333  0.200000  0.400000      2.000000
 -0.066667  0.200000  0.400000      2.000000
  0.000000  0.266667  0.400000      2.000000
  0.066667  0.266667  0.400000      2.000000
  0.133333  0.266667  0.400000      2.000000
  0.200000  0.266667  0.400000      2.000000
  0.266667  0.266667  0.400000      2.000000
  0.333333  0.266667  0.400000      2.000000
  0.400000  0.266667  0.400000      2.000000
  0.466667  0.266667  0.400000      2.000000
 -0.466667  0.266667  0.400000      2.000000
 -0.400000  0.266667  0.400000      2.000000
 -0.333333  0.266667  0.400000      2.000000
 -0.266667  0.266667  0.400000      2.000000
 -0.200000  0.266667  0.400000      2.000000
 -0.133333  0.266667  0.400000      2.000000
 -0.066667  0.266667  0.400000      2.000000
 -0.000000  0.333333  0.400000      2.000000
  0.066667  0.333333  0.400000      2.000000
  0.133333  0.333333  0.400000      2.000000
  0.200000  0.333333  0.400000      2.000000
  0.266667  0.333333  0.400000      2.000000
  0.333333  0.333333  0.400000      2.000000
  0.400000  0.333333  0.400000      2.000000
  0.466667  0.333333  0.400000      2.000000
 -0.466667  0.333333  0.400000      2.000000
 -0.400000  0.333333  0.400000      2.000000
 -0.333333  0.333333  0.400000      2.000000
 -0.266667  0.333333  0.400000      2.000000
 -0.200000  0.333333  0.400000      2.000000
 -0.133333  0.333333  0.400000      2.000000
 -0.066667  0.333333  0.400000      2.000000
  0.000000  0.400000  0.400000      2.000000
  0.066667  0.400000  0.400000      2.000000
  0.133333  0.400000  0.400000      2.000000
  0.200000  0.400000  0.400000      2.000000
  0.266667  0.400000  0.400000      2.000000
  0.333333  0.400000  0.400000      2.000000
  0.400000  0.400000  0.400000      2.000000
  0.466667  0.400000  0.400000      2.000000
 -0.466667  0.400000  0.400000      2.000000
 -0.400000  0.400000  0.400000      2.000000
 -0.333333  0.400000  0.400000      2.000000
 -0.266667  0.400000  0.400000      2.000000
 -0.200000  0.400000  0.400000      2.000000
 -0.133333  0.400000  0.400000      2.000000
 -0.066667  0.400000  0.400000      2.000000
 -0.000000  0.466667  0.400000      2.000000
  0.066667  0.466667  0.400000      2.000000
  0.133333  0.466667  0.400000      2.000000
  0.200000  0.466667  0.400000      2.000000
  0.266667  0.466667  0.400000      2.000000
  0.333333  0.466667  0.400000      2.000000
  0.400000  0.466667  0.400000      2.000000
  0.466667  0.466667  0.400000      2.000000
 -0.466667  0.466667  0.400000      2.000000
 -0.400000  0.466667  0.400000      2.000000
 -0.333333  0.466667  0.400000      2.000000
 -0.266667  0.466667  0.400000      2.000000
 -0.200000  0.466667  0.400000      2.000000
 -0.133333  0.466667  0.400000      2.000000
 -0.066667  0.466667  0.400000      2.000000
  0.000000 -0.466667  0.400000      2.000000
  0.066667 -0.466667  0.400000      2.000000
  0.133333 -0.466667  0.400000      2.000000
  0.200000 -0.466667  0.400000      2.000000
  0.266667 -0.466667  0.400000      2.000000
  0.333333 -0.466667  0.400000      2.000000
  0.400000 -0.466667  0.400000      2.000000
  0.466667 -0.466667  0.400000      2.000000
 -0.466667 -0.466667  0.400000      2.000000
 -0.400000 -0.466667  0.400000      2.000000
 -0.333333 -0.466667  0.400000      2.000000
 -0.266667 -0.466667  0.400000      2.000000
 -0.200000 -0.466667  0.400000      2.000000
 -0.133333 -0.466667  0.400000      2.000000
 -0.066667 -0.466667  0.400000      2.000000
 -0.000000 -0.400000  0.400000      2.000000
  0.066667 -0.400000  0.400000      2.000000
  0.133333 -0.400000  0.400000      2.000000
  0.200000 -0.400000  0.400000      2.000000
  0.266667 -0.400000  0.400000      2.000000
  0.333333 -0.400000  0.400000      2.000000
  0.400000 -0.400000  0.400000      2.000000
  0.466667 -0.400000  0.400000      2.000000
 -0.466667 -0.400000  0.400000      2.000000
 -0.400000 -0.400000  0.400000      2.000000
 -0.333333 -0.400000  0.400000      2.000000
 -0.266667 -0.400000  0.400000      2.000000
 -0.200000 -0.400000  0.400000      2.000000
 -0.133333 -0.400000  0.400000      2.000000
 -0.066667 -0.400000  0.400000      2.000000
  0.000000 -0.333333  0.400000      2.000000
  0.066667 -0.333333  0.400000      2.000000
  0.133333 -0.333333  0.400000      2.000000
  0.200000 -0.333333  0.400000      2.000000
  0.266667 -0.333333  0.400000      2.000000
  0.333333 -0.333333  0.400000      2.000000
  0.400000 -0.333333  0.400000      2.000000
  0.466667 -0.333333  0.400000      2.000000
 -0.466667 -0.333333  0.400000      2.000000
 -0.400000 -0.333333  0.400000      2.000000
 -0.333333 -0.333333  0.400000      2.000000
 -0.266667 -0.333333  0.400000      2.000000
 -0.200000 -0.333333  0.400000      2.000000
 -0.133333 -0.333333  0.400000      2.000000
 -0.066667 -0.333333  0.400000      2.000000
  0.000000 -0.266667  0.400000      2.000000
  0.066667 -0.266667  0.400000      2.000000
  0.133333 -0.266667  0.400000      2.000000
  0.200000 -0.266667  0.400000      2.000000
  0.266667 -0.266667  0.400000      2.000000
  0.333333 -0.266667  0.400000      2.000000
  0.400000 -0.266667  0.400000      2.000000
  0.466667 -0.266667  0.400000      2.000000
 -0.466667 -0.266667  0.400000      2.000000
 -0.400000 -0.266667  0.400000      2.000000
 -0.333333 -0.266667  0.400000      2.000000
 -0.266667 -0.266667  0.400000      2.000000
 -0.200000 -0.266667  0.400000      2.000000
 -0.133333 -0.266667  0.400000      2.000000
 -0.066667 -0.266667  0.400000      2.000000
 -0.000000 -0.200000  0.400000      2.000000
  0.066667 -0.200000  0.400000      2.000000
  0.133333 -0.200000  0.400000      2.000000
  0.200000 -0.200000  0.400000      2.000000
  0.266667 -0.200000  0.400000      2.000000
  0.333333 -0.200000  0.400000      2.000000
  0.400000 -0.200000  0.400000      2.000000
  0.466667 -0.200000  0.400000      2.000000
 -0.466667 -0.200000  0.400000      2.000000
 -0.400000 -0.200000  0.400000      2.000000
 -0.333333 -0.200000  0.400000      2.000000
 -0.266667 -0.200000  0.400000      2.000000
 -0.200000 -0.200000  0.400000      2.000000
 -0.133333 -0.200000  0.400000      2.000000
 -0.066667 -0.200000  0.400000      2.000000
  0.000000 -0.133333  0.400000      2.000000
  0.066667 -0.133333  0.400000      2.000000
  0.133333 -0.133333  0.400000      2.000000
  0.200000 -0.133333  0.400000      2.000000
  0.266667 -0.133333  0.400000      2.000000
  0.333333 -0.133333  0.400000      2.000000
  0.400000 -0.133333  0.400000      2.000000
  0.466667 -0.133333  0.400000      2.000000
 -0.466667 -0.133333  0.400000      2.000000
 -0.400000 -0.133333  0.400000      2.000000
 -0.333333 -0.133333  0.400000      2.000000
 -0.266667 -0.133333  0.400000      2.000000
 -0.200000 -0.133333  0.400000      2.000000
 -0.133333 -0.133333  0.400000      2.000000
 -0.066667 -0.133333  0.400000      2.000000
 -0.000000 -0.066667  0.400000      2.000000
  0.066667 -0.066667  0.400000      2.000000
  0.133333 -0.066667  0.400000      2.000000
  0.200000 -0.066667  0.400000      2.000000
  0.266667 -0.066667  0.400000      2.000000
  0.333333 -0.066667  0.400000      2.000000
  0.400000 -0.066667  0.400000      2.000000
  0.466667 -0.066667  0.400000      2.000000
 -0.466667 -0.066667  0.400000      2.000000
 -0.400000 -0.066667  0.400000      2.000000
 -0.333333 -0.066667  0.400000      2.000000
 -0.266667 -0.066667  0.400000      2.000000
 -0.200000 -0.066667  0.400000      2.000000
 -0.133333 -0.066667  0.400000      2.000000
 -0.066667 -0.066667  0.400000      2.000000
 -0.000000  0.000000  0.466667      2.000000
  0.066667  0.000000  0.466667      2.000000
  0.133333  0.000000  0.466667      2.000000
  0.200000  0.000000  0.466667      2.000000
  0.266667  0.000000  0.466667      2.000000
  0.333333  0.000000  0.466667      2.000000
  0.400000  0.000000  0.466667      2.000000
  0.466667  0.000000  0.466667      2.000000
 -0.466667  0.000000  0.466667      2.000000
 -0.400000  0.000000  0.466667      2.000000
 -0.333333  0.000000  0.466667      2.000000
 -0.266667  0.000000  0.466667      2.000000
 -0.200000  0.000000  0.466667      2.000000
 -0.133333  0.000000  0.466667      2.000000
 -0.066667  0.000000  0.466667      2.000000
  0.000000  0.066667  0.466667      2.000000
  0.066667  0.066667  0.466667      2.000000
  0.133333  0.066667  0.466667      2.000000
  0.200000  0.066667  0.466667      2.000000
  0.266667  0.066667  0.466667      2.000000
  0.333333  0.066667  0.466667      2.000000
  0.400000  0.066667  0.466667      2.000000
  0.466667  0.066667  0.466667      2.000000
 -0.466667  0.066667  0.466667      2.000000
 -0.400000  0.066667  0.466667      2.000000
 -0.333333  0.066667  0.466667      2.000000
 -0.266667  0.066667  0.466667      2.000000
 -0.200000  0.066667  0.466667      2.000000
 -0.133333  0.066667  0.466667      2.000000
 -0.066667  0.066667  0.466667      2.000000
 -0.000000  0.133333  0.466667      2.000000
  0.066667  0.133333  0.466667      2.000000
  0.133333  0.133333  0.466667      2.000000
  0.200000  0.133333  0.466667      2.000000
  0.266667  0.133333  0.466667      2.000000
  0.333333  0.133333  0.466667      2.000000
  0.400000  0.133333  0.466667      2.000000
  0.466667  0.133333  0.466667      2.000000
 -0.466667  0.133333  0.466667      2.000000
 -0.400000  0.133333  0.466667      2.000000
 -0.333333  0.133333  0.466667      2.000000
 -0.266667  0.133333  0.466667      2.000000
 -0.200000  0.133333  0.466667      2.000000
 -0.133333  0.133333  0.466667      2.000000
 -0.066667  0.133333  0.466667      2.000000
  0.000000  0.200000  0.466667      2.000000
  0.066667  0.200000  0.466667      2.000000
  0.133333  0.200000  0.466667      2.000000
  0.200000  0.200000  0.466667      2.000000
  0.266667  0.200000  0.466667      2.000000
  0.333333  0.200000  0.466667      2.000000
  0.400000  0.200000  0.466667      2.000000
  0.466667  0.200000  0.466667      2.000000
 -0.466667  0.200000  0.466667      2.000000
 -0.400000  0.200000  0.466667      2.000000
 -0.333333  0.200000  0.466667      2.000000
 -0.266667  0.200000  0.466667      2.000000
 -0.200000  0.200000  0.466667      2.000000
 -0.133333  0.200000  0.466667      2.000000
 -0.066667  0.200000  0.466667      2.000000
  0.000000  0.266667  0.466667      2.000000
  0.066667  0.266667  0.466667      2.000000
  0.133333  0.266667  0.466667      2.000000
  0.200000  0.266667  0.466667      2.000000
  0.266667  0.266667  0.466667      2.000000
  0.333333  0.266667  0.466667      2.000000
  0.400000  0.266667  0.466667      2.000000
  0.466667  0.266667  0.466667      2.000000
 -0.466667  0.266667  0.466667      2.000000
 -0.400000  0.266667  0.466667      2.000000
 -0.333333  0.266667  0.466667      2.000000
 -0.266667  0.266667  0.466667      2.000000
 -0.200000  0.266667  0.466667      2.000000
 -0.133333  0.266667  0.466667      2.000000
 -0.066667  0.266667  0.466667      2.000000
 -0.000000  0.333333  0.466667      2.000000
  0.066667  0.333333  0.466667      2.000000
  0.133333  0.333333  0.466667      2.000000
  0.200000  0.333333  0.466667      2.000000
  0.266667  0.333333  0.466667      2.000000
  0.333333  0.333333  0.466667      2.000000
  0.400000  0.333333  0.466667      2.000000
  0.466667  0.333333  0.466667      2.000000
 -0.466667  0.333333  0.466667      2.000000
 -0.400000  0.333333  0.466667      2.000000
 -0.333333  0.333333  0.466667      2.000000
 -0.266667  0.333333  0.466667      2.000000
 -0.200000  0.333333  0.466667      2.000000
 -0.133333  0.333333  0.466667      2.000000
 -0.066667  0.333333  0.466667      2.000000
 -0.000000  0.400000  0.466667      2.000000
  0.066667  0.400000  0.466667      2.000000
  0.133333  0.400000  0.466667      2.000000
  0.200000  0.400000  0.466667      2.000000
  0.266667  0.400000  0.466667      2.000000
  0.333333  0.400000  0.466667      2.000000
  0.400000  0.400000  0.466667      2.000000
  0.466667  0.400000  0.466667      2.000000
 -0.466667  0.400000  0.466667      2.000000
 -0.400000  0.400000  0.466667      2.000000
 -0.333333  0.400000  0.466667      2.000000
 -0.266667  0.400000  0.466667      2.000000
 -0.200000  0.400000  0.466667      2.000000
 -0.133333  0.400000  0.466667      2.000000
 -0.066667  0.400000  0.466667      2.000000
 -0.000000  0.466667  0.466667      2.000000
  0.066667  0.466667  0.466667      2.000000
  0.133333  0.466667  0.466667      2.000000
  0.200000  0.466667  0.466667      2.000000
  0.266667  0.466667  0.466667      2.000000
  0.333333  0.466667  0.466667      2.000000
  0.400000  0.466667  0.466667      2.000000
  0.466667  0.466667  0.466667      2.000000
 -0.466667  0.466667  0.466667      2.000000
 -0.400000  0.466667  0.466667      2.000000
 -0.333333  0.466667  0.466667      2.000000
 -0.266667  0.466667  0.466667      2.000000
 -0.200000  0.466667  0.466667      2.000000
 -0.133333  0.466667  0.466667      2.000000
 -0.066667  0.466667  0.466667      2.000000
  0.000000 -0.466667  0.466667      2.000000
  0.066667 -0.466667  0.466667      2.000000
  0.133333 -0.466667  0.466667      2.000000
  0.200000 -0.466667  0.466667      2.000000
  0.266667 -0.466667  0.466667      2.000000
  0.333333 -0.466667  0.466667      2.000000
  0.400000 -0.466667  0.466667      2.000000
  0.466667 -0.466667  0.466667      2.000000
 -0.466667 -0.466667  0.466667      2.000000
 -0.400000 -0.466667  0.466667      2.000000
 -0.333333 -0.466667  0.466667      2.000000
 -0.266667 -0.466667  0.466667      2.000000
 -0.200000 -0.466667  0.466667      2.000000
 -0.133333 -0.466667  0.466667      2.000000
 -0.066667 -0.466667  0.466667      2.000000
  0.000000 -0.400000  0.466667      2.000000
  0.066667 -0.400000  0.466667      2.000000
  0.133333 -0.400000  0.466667      2.000000
  0.200000 -0.400000  0.466667      2.000000
  0.266667 -0.400000  0.466667      2.000000
  0.333333 -0.400000  0.466667      2.000000
  0.400000 -0.400000  0.466667      2.000000
  0.466667 -0.400000  0.466667      2.000000
 -0.466667 -0.400000  0.466667      2.000000
 -0.400000 -0.400000  0.466667      2.000000
[...]
      7       3.1781      2.00000
      8       3.2337      2.00000
      9       3.4912      2.00000
     10       3.5367      2.00000
     11       3.7395      2.00000
     12       3.7572      2.00000
     13       4.2220      2.00000
     14       4.5129      2.00000
     15       4.5721      2.00000
     16       4.6559      2.00000
     17       4.6745      2.00000
     18       5.0810      2.00000
     19       5.3734      2.00000
     20       5.4501      2.00000
     21       6.1959      2.00000
     22       6.6110      2.00000
     23       8.4297      0.00000
     24       8.8768      0.00000
     25      13.2205      0.00000
     26      15.3427      0.00000
     27      15.9751      0.00000

 k-point  1680 :       0.4000   -0.0667    0.4667
  band No.  band energies     occupation 
      1       2.0679      2.00000
      2       2.2716      2.00000
      3       2.5980      2.00000
      4       2.6094      2.00000
      5       3.2535      2.00000
      6       3.2944      2.00000
      7       3.2948      2.00000
      8       3.3102      2.00000
      9       3.5251      2.00000
     10       3.5477      2.00000
     11       3.6647      2.00000
     12       3.7024      2.00000
     13       4.2345      2.00000
     14       4.4218      2.00000
     15       4.4731      2.00000
     16       4.5311      2.00000
     17       4.7256      2.00000
     18       5.0276      2.00000
     19       5.2084      2.00000
     20       5.2406      2.00000
     21       6.5422      2.00000
     22       6.9846      2.00000
     23       7.8475      1.40888
     24       8.3171      0.00000
     25      13.6400      0.00000
     26      15.2944      0.00000
     27      15.7657      0.00000

 k-point  1681 :       0.4667   -0.0667    0.4667
  band No.  band energies     occupation 
      1       2.2604      2.00000
      2       2.4060      2.00000
      3       2.4372      2.00000
      4       2.5165      2.00000
      5       3.3563      2.00000
      6       3.3595      2.00000
      7       3.3678      2.00000
      8       3.3865      2.00000
      9       3.5409      2.00000
     10       3.5805      2.00000
     11       3.5891      2.00000
     12       3.6602      2.00000
     13       4.2889      2.00000
     14       4.3711      2.00000
     15       4.3914      2.00000
     16       4.3940      2.00000
     17       4.8544      2.00000
     18       5.0244      2.00000
     19       5.0332      2.00000
     20       5.0863      2.00000
     21       6.9223      2.00000
     22       7.3508      2.00000
     23       7.3841      2.00000
     24       7.8229      1.62400
     25      14.1278      0.00000
     26      14.6791      0.00000
     27      16.2407      0.00000

 k-point  1682 :      -0.4667   -0.0667    0.4667
  band No.  band energies     occupation 
      1       2.2604      2.00000
      2       2.4060      2.00000
      3       2.4372      2.00000
      4       2.5165      2.00000
      5       3.3563      2.00000
      6       3.3595      2.00000
      7       3.3678      2.00000
      8       3.3865      2.00000
      9       3.5409      2.00000
     10       3.5805      2.00000
     11       3.5891      2.00000
     12       3.6602      2.00000
     13       4.2889      2.00000
     14       4.3711      2.00000
     15       4.3914      2.00000
     16       4.3940      2.00000
     17       4.8544      2.00000
     18       5.0244      2.00000
     19       5.0332      2.00000
     20       5.0863      2.00000
     21       6.9223      2.00000
     22       7.3508      2.00000
     23       7.3841      2.00000
     24       7.8229      1.62400
     25      14.1278      0.00000
     26      14.6791      0.00000
     27      16.2408      0.00000

 k-point  1683 :      -0.4000   -0.0667    0.4667
  band No.  band energies     occupation 
      1       2.0679      2.00000
      2       2.2716      2.00000
      3       2.5980      2.00000
      4       2.6094      2.00000
      5       3.2535      2.00000
      6       3.2944      2.00000
      7       3.2948      2.00000
      8       3.3102      2.00000
      9       3.5251      2.00000
     10       3.5477      2.00000
     11       3.6647      2.00000
     12       3.7024      2.00000
     13       4.2345      2.00000
     14       4.4218      2.00000
     15       4.4731      2.00000
     16       4.5311      2.00000
     17       4.7256      2.00000
     18       5.0276      2.00000
     19       5.2084      2.00000
     20       5.2406      2.00000
     21       6.5422      2.00000
     22       6.9846      2.00000
     23       7.8475      1.40888
     24       8.3171      0.00000
     25      13.6400      0.00000
     26      15.2944      0.00000
     27      15.7657      0.00000

 k-point  1684 :      -0.3333   -0.0667    0.4667
  band No.  band energies     occupation 
      1       1.8678      2.00000
      2       2.1150      2.00000
      3       2.6906      2.00000
      4       2.7464      2.00000
      5       3.1186      2.00000
      6       3.1714      2.00000
      7       3.1781      2.00000
      8       3.2337      2.00000
      9       3.4912      2.00000
     10       3.5367      2.00000
     11       3.7395      2.00000
     12       3.7572      2.00000
     13       4.2220      2.00000
     14       4.5129      2.00000
     15       4.5721      2.00000
     16       4.6559      2.00000
     17       4.6745      2.00000
     18       5.0810      2.00000
     19       5.3734      2.00000
     20       5.4501      2.00000
     21       6.1959      2.00000
     22       6.6110      2.00000
     23       8.4297      0.00000
     24       8.8768      0.00000
     25      13.2205      0.00000
     26      15.3427      0.00000
     27      15.9753      0.00000

 k-point  1685 :      -0.2667   -0.0667    0.4667
  band No.  band energies     occupation 
      1       1.6747      2.00000
      2       1.9501      2.00000
      3       2.7560      2.00000
      4       2.8820      2.00000
      5       2.9940      2.00000
      6       3.0389      2.00000
      7       3.0763      2.00000
      8       3.1422      2.00000
      9       3.4669      2.00000
     10       3.5075      2.00000
     11       3.8058      2.00000
     12       3.8537      2.00000
     13       4.2499      2.00000
     14       4.5610      2.00000
     15       4.6609      2.00000
     16       4.6744      2.00000
     17       4.7884      2.00000
     18       5.1581      2.00000
     19       5.5629      2.00000
     20       5.6428      2.00000
     21       5.8791      2.00000
     22       6.2559      2.00000
     23       9.1030      0.00000
     24       9.4939      0.00000
     25      12.8878      0.00000
     26      14.9525      0.00000
     27      15.9797      0.00000

 k-point  1686 :      -0.2000   -0.0667    0.4667
  band No.  band energies     occupation 
      1       1.5052      2.00000
      2       1.7971      2.00000
      3       2.7795      2.00000
      4       2.8917      2.00000
      5       2.9006      2.00000
      6       3.0278      2.00000
      7       3.0304      2.00000
      8       3.0545      2.00000
      9       3.4423      2.00000
     10       3.4684      2.00000
     11       3.9121      2.00000
     12       3.9409      2.00000
     13       4.3292      2.00000
     14       4.5577      2.00000
     15       4.7221      2.00000
     16       4.7383      2.00000
     17       4.8594      2.00000
     18       5.2322      2.00000
     19       5.6003      2.00000
     20       5.7557      2.00000
     21       5.8092      2.00000
     22       5.9200      2.00000
     23       9.8560      0.00000
     24      10.1219      0.00000
     25      12.6936      0.00000
     26      14.5671      0.00000
     27      15.5245      0.00000

 k-point  1687 :      -0.1333   -0.0667    0.4667
  band No.  band energies     occupation 
      1       1.3738      2.00000
      2       1.6747      2.00000
      3       2.7499      2.00000
      4       2.8117      2.00000
      5       2.8163      2.00000
      6       2.9843      2.00000
      7       3.0569      2.00000
      8       3.1360      2.00000
      9       3.4156      2.00000
     10       3.4253      2.00000
     11       4.0009      2.00000
     12       4.0549      2.00000
     13       4.4731      2.00000
     14       4.5549      2.00000
     15       4.7453      2.00000
     16       4.7528      2.00000
     17       4.8936      2.00000
     18       5.2688      2.00000
     19       5.3889      2.00000
     20       5.6236      2.00000
     21       5.9246      2.00000
     22       5.9410      2.00000
     23      10.6429      0.00000
     24      10.6562      0.00000
     25      12.7564      0.00000
     26      14.1433      0.00000
     27      15.1486      0.00000

 k-point  1688 :      -0.0667   -0.0667    0.4667
  band No.  band energies     occupation 
      1       1.2909      2.00000
      2       1.5962      2.00000
      3       2.7136      2.00000
      4       2.7534      2.00000
      5       2.7703      2.00000
      6       2.9397      2.00000
      7       3.1051      2.00000
      8       3.2231      2.00000
      9       3.3859      2.00000
     10       3.3867      2.00000
     11       4.0320      2.00000
     12       4.2195      2.00000
     13       4.5548      2.00000
     14       4.6567      2.00000
     15       4.6746      2.00000
     16       4.7623      2.00000
     17       4.9054      2.00000
     18       5.1631      2.00000
     19       5.2797      2.00000
     20       5.4676      2.00000
     21       6.0273      2.00000
     22       6.0412      2.00000
     23      10.9188      0.00000
     24      11.4190      0.00000
     25      13.2059      0.00000
     26      13.6527      0.00000
     27      14.8732      0.00000


--------------------------------------------------------------------------------------------------------


 soft charge-density along one line, spin component           1
         0         1         2         3         4         5         6         7         8         9
 total charge-density along one line
 
 pseudopotential strength for first ion, spin component:           1
 -4.297   0.000   0.000   0.005   0.000  -4.527   0.000   0.000
  0.000  -4.311   0.010  -0.000  -0.018   0.000  -4.541   0.010
  0.000   0.010  -4.288  -0.000   0.001   0.000   0.010  -4.518
  0.005  -0.000  -0.000  -4.297  -0.000   0.005  -0.000  -0.000
  0.000  -0.018   0.001  -0.000  -4.289   0.000  -0.018   0.001
 -4.527   0.000   0.000   0.005   0.000  -4.740   0.000   0.000
  0.000  -4.541   0.010  -0.000  -0.018   0.000  -4.753   0.010
  0.000   0.010  -4.518  -0.000   0.001   0.000   0.010  -4.731
  0.005  -0.000  -0.000  -4.527  -0.000   0.005  -0.000  -0.000
  0.000  -0.018   0.001  -0.000  -4.519   0.000  -0.017   0.001
  0.000  -0.008   0.001   0.000  -0.001   0.000  -0.008   0.001
  0.000  -0.011   0.001   0.000  -0.002   0.000  -0.011   0.001
 -0.000  -0.000   0.000   0.000   0.000  -0.000  -0.000   0.000
  0.000  -0.000  -0.000  -0.000   0.000   0.000  -0.000  -0.000
 -0.000   0.000   0.000  -0.000  -0.000  -0.000   0.000   0.000
 -0.000  -0.000   0.000   0.000   0.000  -0.000  -0.000   0.000
  0.000  -0.000  -0.000  -0.000   0.000   0.000  -0.000  -0.000
 -0.000   0.000   0.000  -0.000  -0.000  -0.000   0.000   0.000
 total augmentation occupancy for first ion, spin component:           1
  4.398   0.000  -0.000  -0.201   0.000  -2.285  -0.000   0.000   0.154  -0.000   0.000  -0.000  -0.000  -0.000  -0.000   0.000
  0.000   4.252   0.000  -0.000  -0.000  -0.000  -2.317   0.086   0.000  -0.149   0.389  -0.050  -0.000  -0.000  -0.000   0.000
 -0.000   0.000   4.260   0.000   0.102   0.000   0.087  -2.000  -0.000  -0.060  -0.045   0.003  -0.000  -0.000   0.000   0.000
 -0.201  -0.000   0.000   4.398  -0.000   0.154  -0.000  -0.000  -2.285   0.000   0.000  -0.000   0.000  -0.000  -0.000  -0.000
  0.000  -0.000   0.102  -0.000   4.142  -0.000  -0.150  -0.060   0.000  -1.931   0.078  -0.006  -0.000  -0.000  -0.000  -0.000
 -2.285  -0.000   0.000   0.154  -0.000   2.099   0.000  -0.000  -0.120   0.000   0.000  -0.000   0.000   0.000   0.000  -0.000
 -0.000  -2.317   0.087  -0.000  -0.150   0.000   2.279  -0.157   0.000   0.272  -0.395   0.067   0.000   0.000   0.000  -0.000
  0.000   0.086  -2.000  -0.000  -0.060  -0.000  -0.157   1.711   0.000   0.026   0.050  -0.007   0.000   0.000   0.000  -0.000
  0.154   0.000  -0.000  -2.285   0.000  -0.120   0.000   0.000   2.099   0.000  -0.000   0.000  -0.000   0.000   0.000   0.000
 -0.000  -0.149  -0.060   0.000  -1.931   0.000   0.272   0.026   0.000   1.681  -0.087   0.012   0.000   0.000   0.000   0.000
  0.000   0.389  -0.045   0.000   0.078   0.000  -0.395   0.050  -0.000  -0.087   2.327  -0.561   0.000   0.000  -0.000  -0.000
 -0.000  -0.050   0.003  -0.000  -0.006  -0.000   0.067  -0.007   0.000   0.012  -0.561   0.180  -0.000  -0.000   0.000  -0.000
 -0.000  -0.000  -0.000   0.000  -0.000   0.000   0.000   0.000  -0.000   0.000   0.000  -0.000   0.155  -0.022  -0.000  -0.005
 -0.000  -0.000  -0.000  -0.000  -0.000   0.000   0.000   0.000   0.000   0.000   0.000  -0.000  -0.022   0.155   0.000   0.001
 -0.000  -0.000   0.000  -0.000  -0.000   0.000   0.000   0.000   0.000   0.000  -0.000   0.000  -0.000   0.000   0.145   0.000
  0.000   0.000   0.000  -0.000  -0.000  -0.000  -0.000  -0.000   0.000   0.000  -0.000  -0.000  -0.005   0.001   0.000   0.000
  0.000   0.000   0.000   0.000   0.000  -0.000  -0.000  -0.000  -0.000  -0.000   0.000   0.000   0.001  -0.005  -0.000  -0.000
  0.000  -0.000   0.000  -0.000   0.000   0.000   0.000  -0.000   0.000  -0.000   0.000  -0.000   0.000   0.000  -0.005  -0.000


------------------------ aborting loop because EDIFF is reached ----------------------------------------


    CHARGE:  cpu time    0.9189: real time    0.9215
    FORLOC:  cpu time    0.0010: real time    0.0035
    FORNL :  cpu time    2.7766: real time    2.7911
    STRESS:  cpu time    5.1192: real time    5.1349
    FORCOR:  cpu time    0.0080: real time    0.0145
    FORHAR:  cpu time    0.0020: real time    0.0043
    MIXING:  cpu time    0.0000: real time    0.0005
    OFIELD:  cpu time    0.0010: real time    0.0024

  FORCE on cell =-STRESS in cart. coord.  units (eV):
  Direction    XX          YY          ZZ          XY          YZ          ZX
  --------------------------------------------------------------------------------------
  Alpha Z   247.12333   247.12333   247.12333
  Ewald   -1281.05642 -1247.43997 -1247.43997     0.00002   -99.48435     0.00002
  Hartree   162.79748   173.42876   173.42876     0.00001   -40.00170     0.00001
  E(xc)    -197.76869  -197.73743  -197.73743     0.00000    -0.21528     0.00000
  Local     187.14322   145.41649   145.41649    -0.00002   133.33583    -0.00003
  n-local    -6.61903    -5.30616    -5.30615    -0.00000    -0.63222    -0.00000
  augment   271.88059   271.07092   271.07092    -0.00000     1.67317    -0.00000
  Kinetic   613.16060   612.04425   612.04425     0.00000     3.47070    -0.00000
  Fock        0.00000     0.00000     0.00000     0.00000     0.00000     0.00000
  -------------------------------------------------------------------------------------
  Total      -3.33891    -1.39981    -1.39981     0.00000    -1.85384     0.00000
  in kB     -70.93480   -29.73880   -29.73877     0.00001   -39.38455     0.00001
  external pressure =      -43.47 kB  Pullay stress =        0.00 kB


 VOLUME and BASIS-vectors are now :
 -----------------------------------------------------------------------------
  energy-cutoff  :      500.00
  volume of cell :       75.41
      direct lattice vectors                 reciprocal lattice vectors
     4.382873658 -0.000000033 -0.000000063     0.228160809  0.000000002  0.000000003
    -0.000000031  4.154382218  0.228491160     0.000000002  0.241440034 -0.013279210
    -0.000000065  0.228491163  4.154382282     0.000000003 -0.013279210  0.241440030

  length of vectors
     4.382873658  4.160660984  4.160661048     0.228160809  0.241804936  0.241804933


 FORCES acting on ions
    electron-ion (+dipol)            ewald-force                    non-local-force                 convergence-correction
 -----------------------------------------------------------------------------------------------
   0.162E-05 -.112E-05 0.546E-06   -.177E-05 -.254E-06 -.176E-05   -.227E-06 -.101E-05 -.103E-06   0.509E-06 0.212E-05 0.142E-05
   0.304E-05 0.240E-05 0.156E-05   -.321E-05 -.203E-06 -.663E-06   -.237E-06 0.680E-06 0.910E-06   0.120E-07 -.286E-05 -.166E-05
   -.150E-05 -.463E-05 0.429E-06   0.195E-05 0.241E-05 0.103E-05   0.546E-06 -.529E-06 -.960E-07   -.797E-06 0.296E-05 -.147E-05
   -.321E-05 0.342E-05 -.260E-05   0.303E-05 -.196E-05 0.139E-05   -.233E-07 0.804E-06 -.638E-06   0.291E-06 -.223E-05 0.169E-05
 -----------------------------------------------------------------------------------------------
   -.421E-07 0.581E-07 -.559E-07   -.112E-14 0.346E-14 0.301E-14   0.582E-07 -.606E-07 0.725E-07   0.153E-07 -.170E-07 -.226E-07
 
 
 POSITION                                       TOTAL-FORCE (eV/Angst)
 -----------------------------------------------------------------------------------
      4.38287     -0.00000     -0.00000         0.000000     -0.000000      0.000000
     -0.00000      2.19144      2.19144        -0.000000      0.000000      0.000000
      2.19144      4.26863      2.30568         0.000000      0.000000     -0.000000
      2.19144      2.30568      4.26863         0.000000      0.000000     -0.000000
 -----------------------------------------------------------------------------------
    total drift:                                0.000000     -0.000000     -0.000000


--------------------------------------------------------------------------------------------------------



  FREE ENERGIE OF THE ION-ELECTRON SYSTEM (eV)
  ---------------------------------------------------
  free  energy   TOTEN  =       -12.70918267 eV

  energy  without entropy=      -12.70228795  energy(sigma->0) =      -12.70573531
 


--------------------------------------------------------------------------------------------------------


    POTLOK:  cpu time    0.0130: real time    0.0190


--------------------------------------------------------------------------------------------------------


 stress matrix after NEB project (eV)
     -3.33891      0.00000      0.00000
      0.00000     -1.39981     -1.85384
      0.00000     -1.85384     -1.39981
  FORCES: max atom, RMS     0.000000    0.000000
  FORCE total and by dimension    0.000001    0.000000
  Stress total and by dimension    4.684088    3.338912


--------------------------------------------------------------------------------------------------------


  
 reached required accuracy - stopping structural energy minimisation
     LOOP+:  cpu time  237.3919: real time  238.4956
    4ORBIT:  cpu time    0.0000: real time    0.0000

 total amount of memory used by VASP MPI-rank0   159527. kBytes
=======================================================================

   base      :      30000. kBytes
   nonl-proj :      61999. kBytes
   fftplans  :        480. kBytes
   grid      :        675. kBytes
   one-center:         15. kBytes
   wavefun   :      66358. kBytes
 
  
  
 General timing and accounting informations for this job:
 ========================================================
  
                  Total CPU time used (sec):      251.501
                            User time (sec):      246.021
                          System time (sec):        5.480
                         Elapsed time (sec):      253.175
  
                   Maximum memory used (kb):      240292.
                   Average memory used (kb):           0.
  
                          Minor page faults:        66715
                          Major page faults:          382
                 Voluntary context switches:         9703
