   8   8   0   0
  0.5780975E+01  0.3597429E-09  0.3597429E-09  0.3573605E-09  0.5000000E-15
  1.000000000000000E-004
  CAR 
 unknown system                          
     24.08040345    -12.18885297  301     10.91012971      1.00000000
    -12.189  0.0000E+00  0.0000E+00
    -12.068  0.0000E+00  0.0000E+00
    -11.947  0.0000E+00  0.0000E+00
    -11.826  0.0000E+00  0.0000E+00
    -11.705  0.0000E+00  0.0000E+00
    -11.584  0.0000E+00  0.0000E+00
    -11.463  0.0000E+00  0.0000E+00
    -11.343  0.0000E+00  0.0000E+00
    -11.222  0.0000E+00  0.0000E+00
    -11.101  0.0000E+00  0.0000E+00
    -10.980  0.0000E+00  0.0000E+00
    -10.859  0.0000E+00  0.0000E+00
    -10.738  0.5304E-11  0.6412E-12
    -10.617  0.7128E-05  0.8617E-06
    -10.496  0.5438E-03  0.6661E-04
    -10.375  0.1750E-02  0.2782E-03
    -10.254  0.2214E-02  0.5459E-03
    -10.134  0.3302E-02  0.9451E-03
    -10.013  0.2381E-02  0.1233E-02
     -9.892  0.4492E-02  0.1776E-02
     -9.771  0.3450E-02  0.2193E-02
     -9.650  0.4086E-02  0.2687E-02
     -9.529  0.5036E-02  0.3296E-02
     -9.408  0.5008E-02  0.3901E-02
     -9.287  0.5424E-02  0.4557E-02
     -9.166  0.3916E-02  0.5031E-02
     -9.046  0.6961E-02  0.5872E-02
     -8.925  0.6433E-02  0.6650E-02
     -8.804  0.5430E-02  0.7306E-02
     -8.683  0.4855E-02  0.7893E-02
     -8.562  0.7663E-02  0.8820E-02
     -8.441  0.8038E-02  0.9792E-02
     -8.320  0.6039E-02  0.1052E-01
     -8.199  0.7528E-02  0.1143E-01
     -8.078  0.6507E-02  0.1222E-01
     -7.957  0.8756E-02  0.1328E-01
     -7.837  0.5561E-02  0.1395E-01
     -7.716  0.1005E-01  0.1516E-01
     -7.595  0.1014E-01  0.1639E-01
     -7.474  0.5582E-02  0.1707E-01
     -7.353  0.8214E-02  0.1806E-01
     -7.232  0.7567E-02  0.1897E-01
     -7.111  0.1235E-01  0.2047E-01
     -6.990  0.9157E-02  0.2157E-01
     -6.869  0.9119E-02  0.2268E-01
     -6.748  0.8027E-02  0.2365E-01
     -6.628  0.1066E-01  0.2494E-01
     -6.507  0.8722E-02  0.2599E-01
     -6.386  0.1166E-01  0.2740E-01
     -6.265  0.9437E-02  0.2854E-01
     -6.144  0.1185E-01  0.2997E-01
     -6.023  0.1012E-01  0.3120E-01
     -5.902  0.1290E-01  0.3276E-01
     -5.781  0.1132E-01  0.3412E-01
     -5.660  0.7478E-02  0.3503E-01
     -5.539  0.1089E-01  0.3634E-01
     -5.419  0.1686E-01  0.3838E-01
     -5.298  0.1220E-01  0.3986E-01
     -5.177  0.1296E-01  0.4143E-01
     -5.056  0.1479E-01  0.4321E-01
     -4.935  0.1090E-01  0.4453E-01
     -4.814  0.1591E-01  0.4645E-01
     -4.693  0.1587E-01  0.4837E-01
     -4.572  0.1734E-01  0.5047E-01
     -4.451  0.1192E-01  0.5191E-01
     -4.331  0.1418E-01  0.5363E-01
     -4.210  0.1479E-01  0.5541E-01
     -4.089  0.2027E-01  0.5786E-01
     -3.968  0.6952E-02  0.5871E-01
     -3.847  0.1346E-01  0.6033E-01
     -3.726  0.9112E-02  0.6143E-01
     -3.605  0.1277E-01  0.6298E-01
     -3.484  0.1722E-01  0.6506E-01
     -3.363  0.1055E-01  0.6633E-01
     -3.242  0.7146E-02  0.6720E-01
     -3.122  0.1361E-01  0.6884E-01
     -3.001  0.9758E-02  0.7002E-01
     -2.880  0.1334E-01  0.7164E-01
     -2.759  0.7173E-02  0.7250E-01
     -2.638  0.5835E-02  0.7321E-01
     -2.517  0.7226E-02  0.7408E-01
     -2.396  0.9821E-02  0.7527E-01
     -2.275  0.1296E-01  0.7684E-01
     -2.154  0.1326E-01  0.7844E-01
     -2.033  0.1415E-01  0.8015E-01
     -1.913  0.1026E-01  0.8139E-01
     -1.792  0.6609E-02  0.8219E-01
     -1.671  0.7331E-02  0.8307E-01
     -1.550  0.1162E-01  0.8448E-01
     -1.429  0.9113E-02  0.8558E-01
     -1.308  0.9834E-02  0.8677E-01
     -1.187  0.1684E-01  0.8881E-01
     -1.066  0.1934E-01  0.9114E-01
     -0.945  0.1717E-01  0.9322E-01
     -0.824  0.2566E-01  0.9632E-01
     -0.704  0.1941E-01  0.9867E-01
     -0.583  0.2486E-01  0.1017E+00
     -0.462  0.1234E-01  0.1032E+00
     -0.341  0.2265E-01  0.1059E+00
     -0.220  0.2607E-01  0.1091E+00
     -0.099  0.2393E-01  0.1119E+00
      0.022  0.1386E-01  0.1136E+00
      0.143  0.1382E-01  0.1153E+00
      0.264  0.9088E-02  0.1164E+00
      0.384  0.1197E-01  0.1178E+00
      0.505  0.1365E-01  0.1195E+00
      0.626  0.1137E-01  0.1209E+00
      0.747  0.1195E-01  0.1223E+00
      0.868  0.1691E-01  0.1244E+00
      0.989  0.1265E-01  0.1259E+00
      1.110  0.7990E-02  0.1269E+00
      1.231  0.9386E-02  0.1280E+00
      1.352  0.1433E-01  0.1297E+00
      1.473  0.8589E-02  0.1308E+00
      1.593  0.8409E-02  0.1318E+00
      1.714  0.1859E-01  0.1340E+00
      1.835  0.1361E-01  0.1357E+00
      1.956  0.2568E-01  0.1388E+00
      2.077  0.1394E-01  0.1405E+00
      2.198  0.2232E-01  0.1432E+00
      2.319  0.2147E-01  0.1458E+00
      2.440  0.2914E-01  0.1493E+00
      2.561  0.1663E-01  0.1513E+00
      2.682  0.1585E-01  0.1532E+00
      2.802  0.1590E-01  0.1551E+00
      2.923  0.1825E-01  0.1573E+00
      3.044  0.3210E-01  0.1612E+00
      3.165  0.2942E-01  0.1648E+00
      3.286  0.1264E-01  0.1663E+00
      3.407  0.1607E-01  0.1682E+00
      3.528  0.2268E-01  0.1710E+00
      3.649  0.2589E-01  0.1741E+00
      3.770  0.2826E-01  0.1775E+00
      3.891  0.2154E-01  0.1801E+00
      4.011  0.2361E-01  0.1830E+00
      4.132  0.1831E-01  0.1852E+00
      4.253  0.2991E-01  0.1888E+00
      4.374  0.3819E-01  0.1934E+00
      4.495  0.2719E-01  0.1967E+00
      4.616  0.2976E-01  0.2003E+00
      4.737  0.3050E-01  0.2040E+00
      4.858  0.2685E-01  0.2073E+00
      4.979  0.2899E-01  0.2108E+00
      5.099  0.4362E-01  0.2160E+00
      5.220  0.3947E-01  0.2208E+00
      5.341  0.2253E-01  0.2235E+00
      5.462  0.1795E-01  0.2257E+00
      5.583  0.2941E-01  0.2293E+00
      5.704  0.3616E-01  0.2336E+00
      5.825  0.4233E-01  0.2387E+00
      5.946  0.2093E-01  0.2413E+00
      6.067  0.2429E-01  0.2442E+00
      6.188  0.3058E-01  0.2479E+00
      6.308  0.2875E-01  0.2514E+00
      6.429  0.2692E-01  0.2546E+00
      6.550  0.3397E-01  0.2587E+00
      6.671  0.2426E-01  0.2617E+00
      6.792  0.2250E-01  0.2644E+00
      6.913  0.2935E-01  0.2679E+00
      7.034  0.3552E-01  0.2722E+00
      7.155  0.2259E-01  0.2750E+00
      7.276  0.2306E-01  0.2778E+00
      7.397  0.2546E-01  0.2808E+00
      7.517  0.2215E-01  0.2835E+00
      7.638  0.3599E-01  0.2879E+00
      7.759  0.2899E-01  0.2914E+00
      7.880  0.1598E-01  0.2933E+00
      8.001  0.1766E-01  0.2954E+00
      8.122  0.2457E-01  0.2984E+00
      8.243  0.2063E-01  0.3009E+00
      8.364  0.1945E-01  0.3033E+00
      8.485  0.1051E-01  0.3045E+00
      8.606  0.8045E-02  0.3055E+00
      8.726  0.1506E-01  0.3073E+00
      8.847  0.1607E-01  0.3093E+00
      8.968  0.1159E-01  0.3107E+00
      9.089  0.8073E-02  0.3116E+00
      9.210  0.7519E-02  0.3125E+00
      9.331  0.7136E-02  0.3134E+00
      9.452  0.1204E-01  0.3149E+00
      9.573  0.7408E-02  0.3158E+00
      9.694  0.4850E-02  0.3163E+00
      9.814  0.6216E-02  0.3171E+00
      9.935  0.4859E-02  0.3177E+00
     10.056  0.5835E-02  0.3184E+00
     10.177  0.3216E-02  0.3188E+00
     10.298  0.5002E-02  0.3194E+00
     10.419  0.1494E-02  0.3196E+00
     10.540  0.2661E-02  0.3199E+00
     10.661  0.8634E-03  0.3200E+00
     10.782  0.6910E-04  0.3200E+00
     10.903  0.1730E-08  0.3200E+00
     11.023  0.0000E+00  0.3200E+00
     11.144  0.0000E+00  0.3200E+00
     11.265  0.0000E+00  0.3200E+00
     11.386  0.0000E+00  0.3200E+00
     11.507  0.0000E+00  0.3200E+00
     11.628  0.0000E+00  0.3200E+00
     11.749  0.0000E+00  0.3200E+00
     11.870  0.0000E+00  0.3200E+00
     11.991  0.0000E+00  0.3200E+00
     12.112  0.0000E+00  0.3200E+00
     12.232  0.0000E+00  0.3200E+00
     12.353  0.0000E+00  0.3200E+00
     12.474  0.0000E+00  0.3200E+00
     12.595  0.0000E+00  0.3200E+00
     12.716  0.0000E+00  0.3200E+00
     12.837  0.0000E+00  0.3200E+00
     12.958  0.0000E+00  0.3200E+00
     13.079  0.0000E+00  0.3200E+00
     13.200  0.0000E+00  0.3200E+00
     13.321  0.0000E+00  0.3200E+00
     13.441  0.0000E+00  0.3200E+00
     13.562  0.0000E+00  0.3200E+00
     13.683  0.0000E+00  0.3200E+00
     13.804  0.0000E+00  0.3200E+00
     13.925  0.0000E+00  0.3200E+00
     14.046  0.0000E+00  0.3200E+00
     14.167  0.0000E+00  0.3200E+00
     14.288  0.0000E+00  0.3200E+00
     14.409  0.0000E+00  0.3200E+00
     14.529  0.1189E-11  0.3200E+00
     14.650  0.4551E-05  0.3200E+00
     14.771  0.8642E-03  0.3201E+00
     14.892  0.1914E-02  0.3203E+00
     15.013  0.3664E-02  0.3208E+00
     15.134  0.3392E-02  0.3212E+00
     15.255  0.4992E-02  0.3218E+00
     15.376  0.1055E-01  0.3231E+00
     15.497  0.8332E-02  0.3241E+00
     15.618  0.8206E-02  0.3251E+00
     15.738  0.7812E-02  0.3260E+00
     15.859  0.1029E-01  0.3273E+00
     15.980  0.1804E-01  0.3294E+00
     16.101  0.1758E-01  0.3316E+00
     16.222  0.1677E-01  0.3336E+00
     16.343  0.1510E-01  0.3354E+00
     16.464  0.1678E-01  0.3374E+00
     16.585  0.1601E-01  0.3394E+00
     16.706  0.1546E-01  0.3412E+00
     16.827  0.2420E-01  0.3442E+00
     16.947  0.2357E-01  0.3470E+00
     17.068  0.2473E-01  0.3500E+00
     17.189  0.2153E-01  0.3526E+00
     17.310  0.1543E-01  0.3545E+00
     17.431  0.2417E-01  0.3574E+00
     17.552  0.2936E-01  0.3610E+00
     17.673  0.2580E-01  0.3641E+00
     17.794  0.2016E-01  0.3665E+00
     17.915  0.2295E-01  0.3693E+00
     18.036  0.2832E-01  0.3727E+00
     18.156  0.3382E-01  0.3768E+00
     18.277  0.3782E-01  0.3814E+00
     18.398  0.3663E-01  0.3858E+00
     18.519  0.3420E-01  0.3899E+00
     18.640  0.3163E-01  0.3938E+00
     18.761  0.3214E-01  0.3976E+00
     18.882  0.4019E-01  0.4025E+00
     19.003  0.4300E-01  0.4077E+00
     19.124  0.4358E-01  0.4130E+00
     19.245  0.5284E-01  0.4194E+00
     19.365  0.4949E-01  0.4253E+00
     19.486  0.3311E-01  0.4293E+00
     19.607  0.3140E-01  0.4331E+00
     19.728  0.3142E-01  0.4369E+00
     19.849  0.2434E-01  0.4399E+00
     19.970  0.2254E-01  0.4426E+00
     20.091  0.2512E-01  0.4456E+00
     20.212  0.3523E-01  0.4499E+00
     20.333  0.3396E-01  0.4540E+00
     20.453  0.2688E-01  0.4573E+00
     20.574  0.2887E-01  0.4607E+00
     20.695  0.2593E-01  0.4639E+00
     20.816  0.2284E-01  0.4666E+00
     20.937  0.1890E-01  0.4689E+00
     21.058  0.1209E-01  0.4704E+00
     21.179  0.1595E-01  0.4723E+00
     21.300  0.1847E-01  0.4746E+00
     21.421  0.1436E-01  0.4763E+00
     21.542  0.1302E-01  0.4779E+00
     21.662  0.6478E-02  0.4786E+00
     21.783  0.4233E-02  0.4792E+00
     21.904  0.3367E-02  0.4796E+00
     22.025  0.6513E-03  0.4796E+00
     22.146  0.6776E-04  0.4797E+00
     22.267  0.8755E-03  0.4798E+00
     22.388  0.1490E-02  0.4799E+00
     22.509  0.5196E-03  0.4800E+00
     22.630  0.7128E-05  0.4800E+00
     22.751  0.5304E-11  0.4800E+00
     22.871  0.0000E+00  0.4800E+00
     22.992  0.0000E+00  0.4800E+00
     23.113  0.0000E+00  0.4800E+00
     23.234  0.0000E+00  0.4800E+00
     23.355  0.0000E+00  0.4800E+00
     23.476  0.0000E+00  0.4800E+00
     23.597  0.0000E+00  0.4800E+00
     23.718  0.0000E+00  0.4800E+00
     23.839  0.0000E+00  0.4800E+00
     23.960  0.0000E+00  0.4800E+00
     24.080  0.0000E+00  0.4800E+00
