 running on   24 total cores
 distrk:  each k-point on   24 cores,    1 groups
 distr:  one band on    1 cores,   24 groups
 using from now: INCAR     
 vasp.5.4.4.18Apr17-6-g9f103f2a35 (build Jan 14 2019 14:48:31) complex          
  
 POSCAR found type information on POSCAR  C 
 POSCAR found :  1 types and       8 ions
 scaLAPACK will be used

 ----------------------------------------------------------------------------- 
|                                                                             |
|           W    W    AA    RRRRR   N    N  II  N    N   GGGG   !!!           |
|           W    W   A  A   R    R  NN   N  II  NN   N  G    G  !!!           |
|           W    W  A    A  R    R  N N  N  II  N N  N  G       !!!           |
|           W WW W  AAAAAA  RRRRR   N  N N  II  N  N N  G  GGG   !            |
|           WW  WW  A    A  R   R   N   NN  II  N   NN  G    G                |
|           W    W  A    A  R    R  N    N  II  N    N   GGGG   !!!           |
|                                                                             |
|      For optimal performance we recommend to set                            |
|        NCORE= 4 - approx SQRT( number of cores)                             |
|      NCORE specifies how many cores store one orbital (NPAR=cpu/NCORE).     |
|      This setting can  greatly improve the performance of VASP for DFT.     |
|      The default,   NCORE=1            might be grossly inefficient         |
|      on modern multi-core architectures or massively parallel machines.     |
|      Do your own testing !!!!                                               |
|      Unfortunately you need to use the default for GW and RPA calculations. |
|      (for HF NCORE is supported but not extensively tested yet)             |
|                                                                             |
 ----------------------------------------------------------------------------- 

 WARNING: for PREC=h ENMAX is automatically increase by 25 %
        this was not the case for versions prior to vasp.4.4
 LDA part: xc-table for Pade appr. of Perdew
 POSCAR found type information on POSCAR  C 
 POSCAR found :  1 types and       8 ions
 POSCAR, INCAR and KPOINTS ok, starting setup
 FFT: planning ...
 WAVECAR not read
 entering main loop
       N       E                     dE             d eps       ncg     rms          rms(c)
DAV:   1     0.100000226999E+03    0.10000E+03   -0.25807E+04  9408   0.198E+03
DAV:   2    -0.723390277195E+02   -0.17234E+03   -0.16951E+03 15144   0.223E+02
DAV:   3    -0.751480421448E+02   -0.28090E+01   -0.28090E+01 10632   0.404E+01
DAV:   4    -0.751674101829E+02   -0.19368E-01   -0.19368E-01 17760   0.265E+00
DAV:   5    -0.751674131289E+02   -0.29460E-05   -0.29460E-05 10488   0.379E-02    0.162E+01
DAV:   6    -0.734157659826E+02    0.17516E+01   -0.13231E+00 11376   0.611E+00    0.106E+01
DAV:   7    -0.728294091738E+02    0.58636E+00   -0.17212E+00 13800   0.704E+00    0.220E+00
DAV:   8    -0.728278996048E+02    0.15096E-02   -0.23612E-02 15288   0.116E+00    0.119E-01
DAV:   9    -0.728280868292E+02   -0.18722E-03   -0.45876E-04 13704   0.141E-01    0.616E-02
DAV:  10    -0.728282099997E+02   -0.12317E-03   -0.11815E-04 14520   0.858E-02    0.477E-03
DAV:  11    -0.728282111116E+02   -0.11119E-05   -0.15973E-06 14592   0.988E-03    0.281E-03
DAV:  12    -0.728282114741E+02   -0.36255E-06   -0.73108E-08 14472   0.243E-03    0.158E-04
DAV:  13    -0.728282114847E+02   -0.10525E-07   -0.15248E-10 14808   0.945E-05    0.788E-05
DAV:  14    -0.728282114864E+02   -0.17299E-08   -0.92516E-11 13080   0.830E-05
   1 F= -.72828211E+02 E0= -.72828211E+02  d E =-.728282E+02
 curvature:   0.00 expect dE= 0.000E+00 dE for cont linesearch  0.000E+00
 trial: gam= 0.00000 g(F)=  0.375E-59 g(S)=  0.000E+00 ort = 0.000E+00 (trialstep = 0.100E+01)
 search vector abs. value=  0.100E-09
 reached required accuracy - stopping structural energy minimisation
