<?xml version="1.0" encoding="ISO-8859-1"?>
<modeling>
 <generator>
  <i name="program" type="string">vasp </i>
  <i name="version" type="string">5.4.4.18Apr17-6-g9f103f2a35  </i>
  <i name="subversion" type="string">(build Jan 14 2019 14:48:31) complex            parallel </i>
  <i name="platform" type="string">LinuxIFC </i>
  <i name="date" type="string">2019 08 26 </i>
  <i name="time" type="string">21:13:35 </i>
 </generator>
 <incar>
  <i type="int" name="ISTART">     0</i>
  <i type="string" name="PREC">high     (precision level)</i>
  <i type="logical" name="ADDGRID"> T  </i>
  <i type="int" name="NELM">    40</i>
  <i type="int" name="NELMIN">     4</i>
  <i type="int" name="IBRION">     2</i>
  <i name="EDIFF">      0.00000001</i>
  <i name="EDIFFG">     -0.01000000</i>
  <i type="int" name="NSW">   100</i>
  <i type="int" name="ISIF">     2</i>
  <i type="logical" name="LREAL"> F  </i>
  <i type="int" name="ISMEAR">     0</i>
  <i name="SIGMA">      0.05000000</i>
  <i type="logical" name="LWAVE"> F  </i>
  <i type="logical" name="LCHARG"> F  </i>
  <v type="int" name="KPOINT_BSE">    -1     0     0     0</v>
  <i type="int" name="NELM">    40</i>
 </incar>
 <structure name="primitive_cell" >
  <crystal>
   <varray name="basis" >
    <v>       1.79871455       0.00000000       1.78680254 </v>
    <v>      -1.79871455       0.00000000       1.78680254 </v>
    <v>       0.00000000      -1.79871455      -1.78680254 </v>
   </varray>
   <i name="volume">     11.56194908 </i>
   <varray name="rec_basis" >
    <v>       0.27797629      -0.27797629       0.27982947 </v>
    <v>      -0.27797629      -0.27797629       0.27982947 </v>
    <v>       0.00000000      -0.55595258       0.00000000 </v>
   </varray>
  </crystal>
  <varray name="positions" >
   <v>       0.25000000      -0.25000000      -0.50000000 </v>
   <v>       0.00000000       0.00000000       0.00000000 </v>
  </varray>
 </structure>
 <varray name="primitive_index" >
  <v type="int" >        1 </v>
  <v type="int" >        2 </v>
 </varray>
 <kpoints>
  <generation param="Monkhorst-Pack">
   <v type="int" name="divisions">      14       14       14 </v>
   <v name="usershift">      0.00000000       0.00000000       0.00000000 </v>
   <v name="genvec1">      0.07142857       0.00000000       0.00000000 </v>
   <v name="genvec2">      0.00000000       0.07142857       0.00000000 </v>
   <v name="genvec3">      0.00000000       0.00000000       0.07142857 </v>
   <v name="shift">      0.50000000       0.50000000       0.50000000 </v>
  </generation>
  <varray name="kpointlist" >
   <v>       0.03571429       0.03571429       0.03571429 </v>
   <v>       0.10714286       0.03571429       0.03571429 </v>
   <v>       0.17857143       0.03571429       0.03571429 </v>
   <v>       0.25000000       0.03571429       0.03571429 </v>
   <v>       0.32142857       0.03571429       0.03571429 </v>
   <v>       0.39285714       0.03571429       0.03571429 </v>
   <v>       0.46428571       0.03571429       0.03571429 </v>
   <v>       0.10714286       0.10714286       0.03571429 </v>
   <v>       0.17857143       0.10714286       0.03571429 </v>
   <v>       0.25000000       0.10714286       0.03571429 </v>
   <v>       0.32142857       0.10714286       0.03571429 </v>
   <v>       0.39285714       0.10714286       0.03571429 </v>
   <v>       0.46428571       0.10714286       0.03571429 </v>
   <v>       0.17857143       0.17857143       0.03571429 </v>
   <v>       0.25000000       0.17857143       0.03571429 </v>
   <v>       0.32142857       0.17857143       0.03571429 </v>
   <v>       0.39285714       0.17857143       0.03571429 </v>
   <v>       0.46428571       0.17857143       0.03571429 </v>
   <v>       0.25000000       0.25000000       0.03571429 </v>
   <v>       0.32142857       0.25000000       0.03571429 </v>
   <v>       0.39285714       0.25000000       0.03571429 </v>
   <v>       0.46428571       0.25000000       0.03571429 </v>
   <v>       0.32142857       0.32142857       0.03571429 </v>
   <v>       0.39285714       0.32142857       0.03571429 </v>
   <v>       0.46428571       0.32142857       0.03571429 </v>
   <v>       0.39285714       0.39285714       0.03571429 </v>
   <v>       0.46428571       0.39285714       0.03571429 </v>
   <v>       0.46428571       0.46428571       0.03571429 </v>
   <v>       0.03571429       0.03571429       0.10714286 </v>
   <v>       0.10714286       0.03571429       0.10714286 </v>
   <v>       0.17857143       0.03571429       0.10714286 </v>
   <v>       0.25000000       0.03571429       0.10714286 </v>
   <v>       0.32142857       0.03571429       0.10714286 </v>
   <v>       0.39285714       0.03571429       0.10714286 </v>
   <v>       0.46428571       0.03571429       0.10714286 </v>
   <v>       0.10714286       0.10714286       0.10714286 </v>
   <v>       0.17857143       0.10714286       0.10714286 </v>
   <v>       0.25000000       0.10714286       0.10714286 </v>
   <v>       0.32142857       0.10714286       0.10714286 </v>
   <v>       0.39285714       0.10714286       0.10714286 </v>
   <v>       0.46428571       0.10714286       0.10714286 </v>
   <v>       0.17857143       0.17857143       0.10714286 </v>
   <v>       0.25000000       0.17857143       0.10714286 </v>
   <v>       0.32142857       0.17857143       0.10714286 </v>
   <v>       0.39285714       0.17857143       0.10714286 </v>
   <v>       0.46428571       0.17857143       0.10714286 </v>
   <v>       0.25000000       0.25000000       0.10714286 </v>
   <v>       0.32142857       0.25000000       0.10714286 </v>
   <v>       0.39285714       0.25000000       0.10714286 </v>
   <v>       0.46428571       0.25000000       0.10714286 </v>
   <v>       0.32142857       0.32142857       0.10714286 </v>
   <v>       0.39285714       0.32142857       0.10714286 </v>
   <v>       0.46428571       0.32142857       0.10714286 </v>
   <v>       0.39285714       0.39285714       0.10714286 </v>
   <v>       0.46428571       0.39285714       0.10714286 </v>
   <v>       0.46428571       0.46428571       0.10714286 </v>
   <v>       0.03571429       0.03571429       0.17857143 </v>
   <v>       0.10714286       0.03571429       0.17857143 </v>
   <v>       0.17857143       0.03571429       0.17857143 </v>
   <v>       0.25000000       0.03571429       0.17857143 </v>
   <v>       0.32142857       0.03571429       0.17857143 </v>
   <v>       0.39285714       0.03571429       0.17857143 </v>
   <v>       0.46428571       0.03571429       0.17857143 </v>
   <v>       0.10714286       0.10714286       0.17857143 </v>
   <v>       0.17857143       0.10714286       0.17857143 </v>
   <v>       0.25000000       0.10714286       0.17857143 </v>
   <v>       0.32142857       0.10714286       0.17857143 </v>
   <v>       0.39285714       0.10714286       0.17857143 </v>
   <v>       0.46428571       0.10714286       0.17857143 </v>
   <v>       0.17857143       0.17857143       0.17857143 </v>
   <v>       0.25000000       0.17857143       0.17857143 </v>
   <v>       0.32142857       0.17857143       0.17857143 </v>
   <v>       0.39285714       0.17857143       0.17857143 </v>
   <v>       0.46428571       0.17857143       0.17857143 </v>
   <v>       0.25000000       0.25000000       0.17857143 </v>
   <v>       0.32142857       0.25000000       0.17857143 </v>
   <v>       0.39285714       0.25000000       0.17857143 </v>
   <v>       0.46428571       0.25000000       0.17857143 </v>
   <v>       0.32142857       0.32142857       0.17857143 </v>
   <v>       0.39285714       0.32142857       0.17857143 </v>
   <v>       0.46428571       0.32142857       0.17857143 </v>
   <v>       0.39285714       0.39285714       0.17857143 </v>
   <v>       0.46428571       0.39285714       0.17857143 </v>
   <v>       0.46428571       0.46428571       0.17857143 </v>
   <v>       0.03571429       0.03571429       0.25000000 </v>
   <v>       0.10714286       0.03571429       0.25000000 </v>
   <v>       0.17857143       0.03571429       0.25000000 </v>
   <v>       0.25000000       0.03571429       0.25000000 </v>
   <v>       0.32142857       0.03571429       0.25000000 </v>
   <v>       0.39285714       0.03571429       0.25000000 </v>
   <v>       0.46428571       0.03571429       0.25000000 </v>
   <v>       0.10714286       0.10714286       0.25000000 </v>
   <v>       0.17857143       0.10714286       0.25000000 </v>
   <v>       0.25000000       0.10714286       0.25000000 </v>
   <v>       0.32142857       0.10714286       0.25000000 </v>
   <v>       0.39285714       0.10714286       0.25000000 </v>
   <v>       0.46428571       0.10714286       0.25000000 </v>
   <v>       0.17857143       0.17857143       0.25000000 </v>
   <v>       0.25000000       0.17857143       0.25000000 </v>
   <v>       0.32142857       0.17857143       0.25000000 </v>
   <v>       0.39285714       0.17857143       0.25000000 </v>
   <v>       0.46428571       0.17857143       0.25000000 </v>
   <v>       0.25000000       0.25000000       0.25000000 </v>
   <v>       0.32142857       0.25000000       0.25000000 </v>
   <v>       0.39285714       0.25000000       0.25000000 </v>
   <v>       0.46428571       0.25000000       0.25000000 </v>
   <v>       0.32142857       0.32142857       0.25000000 </v>
   <v>       0.39285714       0.32142857       0.25000000 </v>
   <v>       0.46428571       0.32142857       0.25000000 </v>
   <v>       0.39285714       0.39285714       0.25000000 </v>
   <v>       0.46428571       0.39285714       0.25000000 </v>
   <v>       0.46428571       0.46428571       0.25000000 </v>
   <v>       0.03571429       0.03571429       0.32142857 </v>
   <v>       0.10714286       0.03571429       0.32142857 </v>
   <v>       0.17857143       0.03571429       0.32142857 </v>
   <v>       0.25000000       0.03571429       0.32142857 </v>
   <v>       0.32142857       0.03571429       0.32142857 </v>
   <v>       0.39285714       0.03571429       0.32142857 </v>
   <v>       0.46428571       0.03571429       0.32142857 </v>
   <v>       0.10714286       0.10714286       0.32142857 </v>
   <v>       0.17857143       0.10714286       0.32142857 </v>
   <v>       0.25000000       0.10714286       0.32142857 </v>
   <v>       0.32142857       0.10714286       0.32142857 </v>
   <v>       0.39285714       0.10714286       0.32142857 </v>
   <v>       0.46428571       0.10714286       0.32142857 </v>
   <v>       0.17857143       0.17857143       0.32142857 </v>
   <v>       0.25000000       0.17857143       0.32142857 </v>
   <v>       0.32142857       0.17857143       0.32142857 </v>
   <v>       0.39285714       0.17857143       0.32142857 </v>
   <v>       0.46428571       0.17857143       0.32142857 </v>
   <v>       0.25000000       0.25000000       0.32142857 </v>
   <v>       0.32142857       0.25000000       0.32142857 </v>
   <v>       0.39285714       0.25000000       0.32142857 </v>
   <v>       0.46428571       0.25000000       0.32142857 </v>
   <v>       0.32142857       0.32142857       0.32142857 </v>
   <v>       0.39285714       0.32142857       0.32142857 </v>
   <v>       0.46428571       0.32142857       0.32142857 </v>
   <v>       0.39285714       0.39285714       0.32142857 </v>
   <v>       0.46428571       0.39285714       0.32142857 </v>
   <v>       0.46428571       0.46428571       0.32142857 </v>
   <v>       0.03571429       0.03571429       0.39285714 </v>
   <v>       0.10714286       0.03571429       0.39285714 </v>
   <v>       0.17857143       0.03571429       0.39285714 </v>
   <v>       0.25000000       0.03571429       0.39285714 </v>
   <v>       0.32142857       0.03571429       0.39285714 </v>
   <v>       0.39285714       0.03571429       0.39285714 </v>
   <v>       0.46428571       0.03571429       0.39285714 </v>
   <v>       0.10714286       0.10714286       0.39285714 </v>
   <v>       0.17857143       0.10714286       0.39285714 </v>
   <v>       0.25000000       0.10714286       0.39285714 </v>
   <v>       0.32142857       0.10714286       0.39285714 </v>
   <v>       0.39285714       0.10714286       0.39285714 </v>
   <v>       0.46428571       0.10714286       0.39285714 </v>
   <v>       0.17857143       0.17857143       0.39285714 </v>
   <v>       0.25000000       0.17857143       0.39285714 </v>
   <v>       0.32142857       0.17857143       0.39285714 </v>
   <v>       0.39285714       0.17857143       0.39285714 </v>
   <v>       0.46428571       0.17857143       0.39285714 </v>
   <v>       0.25000000       0.25000000       0.39285714 </v>
   <v>       0.32142857       0.25000000       0.39285714 </v>
   <v>       0.39285714       0.25000000       0.39285714 </v>
   <v>       0.46428571       0.25000000       0.39285714 </v>
   <v>       0.32142857       0.32142857       0.39285714 </v>
   <v>       0.39285714       0.32142857       0.39285714 </v>
   <v>       0.46428571       0.32142857       0.39285714 </v>
   <v>       0.39285714       0.39285714       0.39285714 </v>
   <v>       0.46428571       0.39285714       0.39285714 </v>
   <v>       0.46428571       0.46428571       0.39285714 </v>
   <v>       0.03571429       0.03571429       0.46428571 </v>
   <v>       0.10714286       0.03571429       0.46428571 </v>
   <v>       0.17857143       0.03571429       0.46428571 </v>
   <v>       0.25000000       0.03571429       0.46428571 </v>
   <v>       0.32142857       0.03571429       0.46428571 </v>
   <v>       0.39285714       0.03571429       0.46428571 </v>
   <v>       0.46428571       0.03571429       0.46428571 </v>
   <v>       0.10714286       0.10714286       0.46428571 </v>
   <v>       0.17857143       0.10714286       0.46428571 </v>
   <v>       0.25000000       0.10714286       0.46428571 </v>
   <v>       0.32142857       0.10714286       0.46428571 </v>
   <v>       0.39285714       0.10714286       0.46428571 </v>
   <v>       0.46428571       0.10714286       0.46428571 </v>
   <v>       0.17857143       0.17857143       0.46428571 </v>
   <v>       0.25000000       0.17857143       0.46428571 </v>
   <v>       0.32142857       0.17857143       0.46428571 </v>
   <v>       0.39285714       0.17857143       0.46428571 </v>
   <v>       0.46428571       0.17857143       0.46428571 </v>
   <v>       0.25000000       0.25000000       0.46428571 </v>
   <v>       0.32142857       0.25000000       0.46428571 </v>
   <v>       0.39285714       0.25000000       0.46428571 </v>
   <v>       0.46428571       0.25000000       0.46428571 </v>
   <v>       0.32142857       0.32142857       0.46428571 </v>
   <v>       0.39285714       0.32142857       0.46428571 </v>
   <v>       0.46428571       0.32142857       0.46428571 </v>
   <v>       0.39285714       0.39285714       0.46428571 </v>
   <v>       0.46428571       0.39285714       0.46428571 </v>
   <v>       0.46428571       0.46428571       0.46428571 </v>
  </varray>
  <varray name="weights" >
   <v>       0.00291545 </v>
   <v>       0.00583090 </v>
   <v>       0.00583090 </v>
   <v>       0.00583090 </v>
   <v>       0.00583090 </v>
   <v>       0.00583090 </v>
   <v>       0.00583090 </v>
   <v>       0.00291545 </v>
   <v>       0.00583090 </v>
   <v>       0.00583090 </v>
   <v>       0.00583090 </v>
   <v>       0.00583090 </v>
   <v>       0.00583090 </v>
   <v>       0.00291545 </v>
   <v>       0.00583090 </v>
   <v>       0.00583090 </v>
   <v>       0.00583090 </v>
   <v>       0.00583090 </v>
   <v>       0.00291545 </v>
   <v>       0.00583090 </v>
   <v>       0.00583090 </v>
   <v>       0.00583090 </v>
   <v>       0.00291545 </v>
   <v>       0.00583090 </v>
   <v>       0.00583090 </v>
   <v>       0.00291545 </v>
   <v>       0.00583090 </v>
   <v>       0.00291545 </v>
   <v>       0.00291545 </v>
   <v>       0.00583090 </v>
   <v>       0.00583090 </v>
   <v>       0.00583090 </v>
   <v>       0.00583090 </v>
   <v>       0.00583090 </v>
   <v>       0.00583090 </v>
   <v>       0.00291545 </v>
   <v>       0.00583090 </v>
   <v>       0.00583090 </v>
   <v>       0.00583090 </v>
   <v>       0.00583090 </v>
   <v>       0.00583090 </v>
   <v>       0.00291545 </v>
   <v>       0.00583090 </v>
   <v>       0.00583090 </v>
   <v>       0.00583090 </v>
   <v>       0.00583090 </v>
   <v>       0.00291545 </v>
   <v>       0.00583090 </v>
   <v>       0.00583090 </v>
   <v>       0.00583090 </v>
   <v>       0.00291545 </v>
   <v>       0.00583090 </v>
   <v>       0.00583090 </v>
   <v>       0.00291545 </v>
   <v>       0.00583090 </v>
   <v>       0.00291545 </v>
   <v>       0.00291545 </v>
   <v>       0.00583090 </v>
   <v>       0.00583090 </v>
   <v>       0.00583090 </v>
   <v>       0.00583090 </v>
   <v>       0.00583090 </v>
   <v>       0.00583090 </v>
   <v>       0.00291545 </v>
   <v>       0.00583090 </v>
   <v>       0.00583090 </v>
   <v>       0.00583090 </v>
   <v>       0.00583090 </v>
   <v>       0.00583090 </v>
   <v>       0.00291545 </v>
   <v>       0.00583090 </v>
   <v>       0.00583090 </v>
   <v>       0.00583090 </v>
   <v>       0.00583090 </v>
   <v>       0.00291545 </v>
   <v>       0.00583090 </v>
   <v>       0.00583090 </v>
   <v>       0.00583090 </v>
   <v>       0.00291545 </v>
   <v>       0.00583090 </v>
   <v>       0.00583090 </v>
   <v>       0.00291545 </v>
   <v>       0.00583090 </v>
   <v>       0.00291545 </v>
   <v>       0.00291545 </v>
   <v>       0.00583090 </v>
   <v>       0.00583090 </v>
   <v>       0.00583090 </v>
   <v>       0.00583090 </v>
   <v>       0.00583090 </v>
   <v>       0.00583090 </v>
   <v>       0.00291545 </v>
   <v>       0.00583090 </v>
   <v>       0.00583090 </v>
   <v>       0.00583090 </v>
   <v>       0.00583090 </v>
   <v>       0.00583090 </v>
   <v>       0.00291545 </v>
   <v>       0.00583090 </v>
   <v>       0.00583090 </v>
   <v>       0.00583090 </v>
   <v>       0.00583090 </v>
   <v>       0.00291545 </v>
   <v>       0.00583090 </v>
   <v>       0.00583090 </v>
   <v>       0.00583090 </v>
   <v>       0.00291545 </v>
   <v>       0.00583090 </v>
   <v>       0.00583090 </v>
   <v>       0.00291545 </v>
   <v>       0.00583090 </v>
   <v>       0.00291545 </v>
   <v>       0.00291545 </v>
   <v>       0.00583090 </v>
   <v>       0.00583090 </v>
   <v>       0.00583090 </v>
   <v>       0.00583090 </v>
   <v>       0.00583090 </v>
   <v>       0.00583090 </v>
   <v>       0.00291545 </v>
   <v>       0.00583090 </v>
   <v>       0.00583090 </v>
   <v>       0.00583090 </v>
   <v>       0.00583090 </v>
   <v>       0.00583090 </v>
   <v>       0.00291545 </v>
   <v>       0.00583090 </v>
   <v>       0.00583090 </v>
   <v>       0.00583090 </v>
   <v>       0.00583090 </v>
   <v>       0.00291545 </v>
   <v>       0.00583090 </v>
   <v>       0.00583090 </v>
   <v>       0.00583090 </v>
   <v>       0.00291545 </v>
   <v>       0.00583090 </v>
   <v>       0.00583090 </v>
   <v>       0.00291545 </v>
   <v>       0.00583090 </v>
   <v>       0.00291545 </v>
   <v>       0.00291545 </v>
   <v>       0.00583090 </v>
   <v>       0.00583090 </v>
   <v>       0.00583090 </v>
   <v>       0.00583090 </v>
   <v>       0.00583090 </v>
   <v>       0.00583090 </v>
   <v>       0.00291545 </v>
   <v>       0.00583090 </v>
   <v>       0.00583090 </v>
   <v>       0.00583090 </v>
   <v>       0.00583090 </v>
   <v>       0.00583090 </v>
   <v>       0.00291545 </v>
   <v>       0.00583090 </v>
   <v>       0.00583090 </v>
   <v>       0.00583090 </v>
   <v>       0.00583090 </v>
   <v>       0.00291545 </v>
   <v>       0.00583090 </v>
   <v>       0.00583090 </v>
   <v>       0.00583090 </v>
   <v>       0.00291545 </v>
   <v>       0.00583090 </v>
   <v>       0.00583090 </v>
   <v>       0.00291545 </v>
   <v>       0.00583090 </v>
   <v>       0.00291545 </v>
   <v>       0.00291545 </v>
   <v>       0.00583090 </v>
   <v>       0.00583090 </v>
   <v>       0.00583090 </v>
   <v>       0.00583090 </v>
   <v>       0.00583090 </v>
   <v>       0.00583090 </v>
   <v>       0.00291545 </v>
   <v>       0.00583090 </v>
   <v>       0.00583090 </v>
   <v>       0.00583090 </v>
   <v>       0.00583090 </v>
   <v>       0.00583090 </v>
   <v>       0.00291545 </v>
   <v>       0.00583090 </v>
   <v>       0.00583090 </v>
   <v>       0.00583090 </v>
   <v>       0.00583090 </v>
   <v>       0.00291545 </v>
   <v>       0.00583090 </v>
   <v>       0.00583090 </v>
   <v>       0.00583090 </v>
   <v>       0.00291545 </v>
   <v>       0.00583090 </v>
   <v>       0.00583090 </v>
   <v>       0.00291545 </v>
   <v>       0.00583090 </v>
   <v>       0.00291545 </v>
  </varray>
 </kpoints>
 <parameters>
  <separator name="general" >
   <i type="string" name="SYSTEM">unknown system</i>
   <i type="logical" name="LCOMPAT"> F  </i>
  </separator>
  <separator name="electronic" >
   <i type="string" name="PREC">high</i>
   <i name="ENMAX">    875.00000000</i>
   <i name="ENAUG">    946.76800000</i>
   <i name="EDIFF">      0.00000001</i>
   <i type="int" name="IALGO">    38</i>
   <i type="int" name="IWAVPR">    11</i>
   <i type="int" name="NBANDS">    24</i>
   <i name="NELECT">     32.00000000</i>
   <i type="int" name="TURBO">     0</i>
   <i type="int" name="IRESTART">     0</i>
   <i type="int" name="NREBOOT">     0</i>
   <i type="int" name="NMIN">     0</i>
   <i name="EREF">      0.00000000</i>
   <separator name="electronic smearing" >
    <i type="int" name="ISMEAR">     0</i>
    <i name="SIGMA">      0.05000000</i>
    <i name="KSPACING">      0.50000000</i>
    <i type="logical" name="KGAMMA"> T  </i>
   </separator>
   <separator name="electronic projectors" >
    <i type="logical" name="LREAL"> F  </i>
    <v name="ROPT">      0.00000000</v>
    <i type="int" name="LMAXPAW">  -100</i>
    <i type="int" name="LMAXMIX">     2</i>
    <i type="logical" name="NLSPLINE"> F  </i>
   </separator>
   <separator name="electronic startup" >
    <i type="int" name="ISTART">     0</i>
    <i type="int" name="ICHARG">     2</i>
    <i type="int" name="INIWAV">     1</i>
   </separator>
   <separator name="electronic spin" >
    <i type="int" name="ISPIN">     1</i>
    <i type="logical" name="LNONCOLLINEAR"> F  </i>
    <v name="MAGMOM">      1.00000000      1.00000000      1.00000000      1.00000000      1.00000000      1.00000000      1.00000000      1.00000000</v>
    <i name="NUPDOWN">     -1.00000000</i>
    <i type="logical" name="LSORBIT"> F  </i>
    <v name="SAXIS">      0.00000000      0.00000000      1.00000000</v>
    <i type="logical" name="LSPIRAL"> F  </i>
    <v name="QSPIRAL">      0.00000000      0.00000000      0.00000000</v>
    <i type="logical" name="LZEROZ"> F  </i>
   </separator>
   <separator name="electronic exchange-correlation" >
    <i type="logical" name="LASPH"> F  </i>
    <i type="logical" name="LMETAGGA"> F  </i>
   </separator>
   <separator name="electronic convergence" >
    <i type="int" name="NELM">    40</i>
    <i type="int" name="NELMDL">    -5</i>
    <i type="int" name="NELMIN">     4</i>
    <i name="ENINI">    875.00000000</i>
    <separator name="electronic convergence detail" >
     <i type="logical" name="LDIAG"> T  </i>
     <i type="logical" name="LSUBROT"> F  </i>
     <i name="WEIMIN">      0.00100000</i>
     <i name="EBREAK">      0.00000000</i>
     <i name="DEPER">      0.30000000</i>
     <i type="int" name="NRMM">     4</i>
     <i name="TIME">      0.40000000</i>
    </separator>
   </separator>
   <separator name="electronic mixer" >
    <i name="AMIX">      0.40000000</i>
    <i name="BMIX">      1.00000000</i>
    <i name="AMIN">      0.10000000</i>
    <i name="AMIX_MAG">      1.60000000</i>
    <i name="BMIX_MAG">      1.00000000</i>
    <separator name="electronic mixer details" >
     <i type="int" name="IMIX">     4</i>
     <i type="logical" name="MIXFIRST"> F  </i>
     <i type="int" name="MAXMIX">   -45</i>
     <i name="WC">    100.00000000</i>
     <i type="int" name="INIMIX">     1</i>
     <i type="int" name="MIXPRE">     1</i>
     <i type="int" name="MREMOVE">     5</i>
    </separator>
   </separator>
   <separator name="electronic dipolcorrection" >
    <i type="logical" name="LDIPOL"> F  </i>
    <i type="logical" name="LMONO"> F  </i>
    <i type="int" name="IDIPOL">     0</i>
    <i name="EPSILON">      1.00000000</i>
    <v name="DIPOL">   -100.00000000   -100.00000000   -100.00000000</v>
    <i name="EFIELD">      0.00000000</i>
   </separator>
  </separator>
  <separator name="grids" >
   <i type="int" name="NGX">    36</i>
   <i type="int" name="NGY">    36</i>
   <i type="int" name="NGZ">    36</i>
   <i type="int" name="NGXF">    48</i>
   <i type="int" name="NGYF">    48</i>
   <i type="int" name="NGZF">    48</i>
   <i type="logical" name="ADDGRID"> T  </i>
  </separator>
  <separator name="ionic" >
   <i type="int" name="NSW">   100</i>
   <i type="int" name="IBRION">     2</i>
   <i type="int" name="MDALGO">     0</i>
   <i type="int" name="ISIF">     2</i>
   <i name="PSTRESS">      0.00000000</i>
   <i name="EDIFFG">     -0.01000000</i>
   <i type="int" name="NFREE">     1</i>
   <i name="POTIM">      0.50000000</i>
   <i name="SMASS">     -3.00000000</i>
   <i name="SCALEE">      1.00000000</i>
  </separator>
  <separator name="ionic md" >
   <i name="TEBEG">      0.00010000</i>
   <i name="TEEND">      0.00010000</i>
   <i type="int" name="NBLOCK">     1</i>
   <i type="int" name="KBLOCK">   100</i>
   <i type="int" name="NPACO">   256</i>
   <i name="APACO">     16.00000000</i>
  </separator>
  <separator name="symmetry" >
   <i type="int" name="ISYM">     2</i>
   <i name="SYMPREC">      0.00001000</i>
  </separator>
  <separator name="dos" >
   <i type="int" name="LORBIT">     0</i>
   <v name="RWIGS">     -1.00000000</v>
   <i type="int" name="NEDOS">   301</i>
   <i name="EMIN">     10.00000000</i>
   <i name="EMAX">    -10.00000000</i>
   <i name="EFERMI">      0.00000000</i>
  </separator>
  <separator name="writing" >
   <i type="int" name="NWRITE">     2</i>
   <i type="logical" name="LWAVE"> F  </i>
   <i type="logical" name="LDOWNSAMPLE"> F  </i>
   <i type="logical" name="LCHARG"> F  </i>
   <i type="logical" name="LPARD"> F  </i>
   <i type="logical" name="LVTOT"> F  </i>
   <i type="logical" name="LVHAR"> F  </i>
   <i type="logical" name="LELF"> F  </i>
   <i type="logical" name="LOPTICS"> F  </i>
   <v name="STM">      0.00000000      0.00000000      0.00000000      0.00000000      0.00000000      0.00000000      0.00000000</v>
  </separator>
  <separator name="performance" >
   <i type="int" name="NPAR">    24</i>
   <i type="int" name="NSIM">     4</i>
   <i type="int" name="NBLK">    -1</i>
   <i type="logical" name="LPLANE"> T  </i>
   <i type="logical" name="LSCALAPACK"> T  </i>
   <i type="logical" name="LSCAAWARE"> F  </i>
   <i type="logical" name="LSCALU"> F  </i>
   <i type="logical" name="LASYNC"> F  </i>
   <i type="logical" name="LORBITALREAL"> F  </i>
  </separator>
  <separator name="miscellaneous" >
   <i type="int" name="IDIOT">     3</i>
   <i type="int" name="ISPECIAL">     0</i>
   <i type="logical" name="LMUSIC"> F  </i>
   <v name="POMASS">     12.01100000</v>
   <v name="DARWINR">      0.00000000</v>
   <v name="DARWINV">      1.00000000</v>
   <i type="logical" name="LCORR"> T  </i>
  </separator>
  <i type="logical" name="GGA_COMPAT"> T  </i>
  <i type="logical" name="LBERRY"> F  </i>
  <i type="int" name="ICORELEVEL">     0</i>
  <i type="logical" name="LDAU"> F  </i>
  <i type="int" name="I_CONSTRAINED_M">     0</i>
  <separator name="electronic exchange-correlation" >
   <i type="string" name="GGA">--</i>
   <i type="int" name="VOSKOWN">     0</i>
   <i type="logical" name="LHFCALC"> F  </i>
   <i type="string" name="PRECFOCK"></i>
   <i type="logical" name="LSYMGRAD"> F  </i>
   <i type="logical" name="LHFONE"> F  </i>
   <i type="logical" name="LRHFCALC"> F  </i>
   <i type="logical" name="LTHOMAS"> F  </i>
   <i type="logical" name="LMODELHF"> F  </i>
   <i name="ENCUT4O">     -1.00000000</i>
   <i type="int" name="EXXOEP">     0</i>
   <i type="int" name="FOURORBIT">     0</i>
   <i name="AEXX">      0.00000000</i>
   <i name="HFALPHA">      0.00000000</i>
   <i name="MCALPHA">      0.00000000</i>
   <i name="ALDAX">      1.00000000</i>
   <i name="AGGAX">      1.00000000</i>
   <i name="ALDAC">      1.00000000</i>
   <i name="AGGAC">      1.00000000</i>
   <i type="int" name="NKREDX">     1</i>
   <i type="int" name="NKREDY">     1</i>
   <i type="int" name="NKREDZ">     1</i>
   <i type="logical" name="SHIFTRED"> F  </i>
   <i type="logical" name="ODDONLY"> F  </i>
   <i type="logical" name="EVENONLY"> F  </i>
   <i type="int" name="LMAXFOCK">     0</i>
   <i type="int" name="NMAXFOCKAE">     0</i>
   <i type="logical" name="LFOCKAEDFT"> F  </i>
   <i name="HFSCREEN">      0.00000000</i>
   <i name="HFSCREENC">      0.00000000</i>
   <i type="int" name="NBANDSGWLOW">     0</i>
  </separator>
  <separator name="vdW DFT" >
   <i type="logical" name="LUSE_VDW"> F  </i>
   <i name="Zab_VDW">     -0.84910000</i>
   <i name="PARAM1">      0.12340000</i>
   <i name="PARAM2">      1.00000000</i>
   <i name="PARAM3">      0.00000000</i>
  </separator>
  <separator name="model GW" >
   <i type="int" name="MODEL_GW">     0</i>
   <i name="MODEL_EPS0">      3.46858472</i>
   <i name="MODEL_ALPHA">      1.00000000</i>
  </separator>
  <separator name="linear response parameters" >
   <i type="logical" name="LEPSILON"> F  </i>
   <i type="logical" name="LRPA"> F  </i>
   <i type="logical" name="LNABLA"> F  </i>
   <i type="logical" name="LVEL"> F  </i>
   <i type="int" name="KINTER">     0</i>
   <i name="CSHIFT">      0.10000000</i>
   <i name="OMEGAMAX">     -1.00000000</i>
   <i name="DEG_THRESHOLD">      0.00200000</i>
   <i name="RTIME">     -0.10000000</i>
   <i name="WPLASMAI">      0.00000000</i>
   <v name="DFIELD">      0.00000000      0.00000000      0.00000000</v>
   <v name="WPLASMA">      0.00000000      0.00000000      0.00000000      0.00000000      0.00000000      0.00000000      0.00000000      0.00000000      0.00000000</v>
  </separator>
  <separator name="orbital magnetization" >
   <i type="logical" name="NUCIND"> F  </i>
   <v name="MAGPOS">      0.00000000      0.00000000      0.00000000</v>
   <i type="logical" name="LNICSALL"> T  </i>
   <i type="logical" name="ORBITALMAG"> F  </i>
   <i type="logical" name="LMAGBLOCH"> F  </i>
   <i type="logical" name="LCHIMAG"> F  </i>
   <i type="logical" name="LGAUGE"> T  </i>
   <i type="int" name="MAGATOM">     0</i>
   <v name="MAGDIPOL">      0.00000000      0.00000000      0.00000000</v>
   <v name="AVECCONST">      0.00000000      0.00000000      0.00000000</v>
  </separator>
  <separator name="response functions" >
   <i type="logical" name="LADDER"> F  </i>
   <i type="logical" name="LRPAFORCE"> F  </i>
   <i type="logical" name="LFXC"> F  </i>
   <i type="logical" name="LHARTREE"> T  </i>
   <i type="int" name="IBSE">     0</i>
   <v type="int" name="KPOINT">    -1     0     0     0</v>
   <i type="logical" name="LTCTE"> F  </i>
   <i type="logical" name="LTETE"> F  </i>
   <i type="logical" name="LTRIPLET"> F  </i>
   <i type="logical" name="LFXCEPS"> F  </i>
   <i type="logical" name="LFXHEG"> F  </i>
   <i type="int" name="NATURALO">     2</i>
   <i type="logical" name="L2ORDER"> F  </i>
   <i type="logical" name="LMP2LT"> F  </i>
   <i type="logical" name="LUSEW"> F  </i>
   <i name="ENCUTGW">     -2.00000000</i>
   <i name="ENCUTGWSOFT">     -2.00000000</i>
   <i name="ENCUTLF">     -1.00000000</i>
   <i type="int" name="LMAXMP2">    -1</i>
   <i name="SCISSOR">      0.00000000</i>
   <i type="int" name="NOMEGA">     0</i>
   <i type="int" name="NOMEGAR">     0</i>
   <i type="int" name="NBANDSGW">    -1</i>
   <i type="int" name="NBANDSO">    -1</i>
   <i type="int" name="NBANDSV">    -1</i>
   <i type="int" name="NELM">    40</i>
   <i type="int" name="NELMHF">     1</i>
   <i type="int" name="DIM">     3</i>
   <i type="int" name="ANTIRES">     0</i>
   <i name="OMEGAMAX">    -30.00000000</i>
   <i name="OMEGAMIN">    -30.00000000</i>
   <i name="OMEGATL">   -200.00000000</i>
   <i type="int" name="OMEGAGRID">   140</i>
   <i name="CSHIFT">     -0.10000000</i>
   <i type="logical" name="SELFENERGY"> F  </i>
   <i type="logical" name="LSPECTRAL"> F  </i>
   <i type="logical" name="LSPECTRALGW"> F  </i>
   <i type="logical" name="LSINGLES"> F  </i>
   <i type="logical" name="LFERMIGW"> F  </i>
   <i type="logical" name="ODDONLYGW"> F  </i>
   <i type="logical" name="EVENONLYGW"> F  </i>
   <i type="int" name="NKREDLFX">     1</i>
   <i type="int" name="NKREDLFY">     1</i>
   <i type="int" name="NKREDLFZ">     1</i>
   <i type="int" name="MAXMEM">  2800</i>
   <i type="int" name="TELESCOPE">     0</i>
   <i type="int" name="TAUPAR">     1</i>
   <i type="int" name="OMEGAPAR">    -1</i>
   <i name="LAMBDA">      1.00000000</i>
  </separator>
  <separator name="External order field" >
   <i name="OFIELD_KAPPA">      0.00000000</i>
   <v name="OFIELD_K">      0.00000000      0.00000000      0.00000000</v>
   <i name="OFIELD_Q6_NEAR">      0.00000000</i>
   <i name="OFIELD_Q6_FAR">      0.00000000</i>
   <i name="OFIELD_A">      0.00000000</i>
  </separator>
 </parameters>
 <atominfo>
  <atoms>       8 </atoms>
  <types>       1 </types>
  <array name="atoms" >
   <dimension dim="1">ion</dimension>
   <field type="string">element</field>
   <field type="int">atomtype</field>
   <set>
    <rc><c>C </c><c>   1</c></rc>
    <rc><c>C </c><c>   1</c></rc>
    <rc><c>C </c><c>   1</c></rc>
    <rc><c>C </c><c>   1</c></rc>
    <rc><c>C </c><c>   1</c></rc>
    <rc><c>C </c><c>   1</c></rc>
    <rc><c>C </c><c>   1</c></rc>
    <rc><c>C </c><c>   1</c></rc>
   </set>
  </array>
  <array name="atomtypes" >
   <dimension dim="1">type</dimension>
   <field type="int">atomspertype</field>
   <field type="string">element</field>
   <field>mass</field>
   <field>valence</field>
   <field type="string">pseudopotential</field>
   <set>
    <rc><c>   8</c><c>C </c><c>     12.01100000</c><c>      4.00000000</c><c>  PAW_PBE C_h 06Feb2004                 </c></rc>
   </set>
  </array>
 </atominfo>
 <structure name="initialpos" >
  <crystal>
   <varray name="basis" >
    <v>       3.59742910       0.00000000       0.00000000 </v>
    <v>       0.00000000       3.59742910       0.00000000 </v>
    <v>       0.00000000       0.00000000       3.57360507 </v>
   </varray>
   <i name="volume">     46.24779632 </i>
   <varray name="rec_basis" >
    <v>       0.27797629       0.00000000       0.00000000 </v>
    <v>       0.00000000       0.27797629       0.00000000 </v>
    <v>       0.00000000       0.00000000       0.27982947 </v>
   </varray>
  </crystal>
  <varray name="positions" >
   <v>       0.25000000       0.25000000       0.25000000 </v>
   <v>       0.00000000       0.00000000       0.00000000 </v>
   <v>       0.25000000       0.75000000       0.75000000 </v>
   <v>       0.00000000       0.50000000       0.50000000 </v>
   <v>       0.75000000       0.25000000       0.75000000 </v>
   <v>       0.50000000       0.00000000       0.50000000 </v>
   <v>       0.75000000       0.75000000       0.25000000 </v>
   <v>       0.50000000       0.50000000       0.00000000 </v>
  </varray>
 </structure>
 <calculation>
  <scstep>
   <time name="dav">    3.14    3.26</time>
   <time name="total">    3.19    3.36</time>
   <energy>
    <i name="alphaZ">     75.86367125 </i>
    <i name="ewald">  -1383.05466139 </i>
    <i name="hartreedc">    -71.64867232 </i>
    <i name="XCdc">     61.71110477 </i>
    <i name="pawpsdc">    914.77613359 </i>
    <i name="pawaedc">   -872.73161751 </i>
    <i name="eentropy">     -0.00066366 </i>
    <i name="bandstr">    197.87215961 </i>
    <i name="atom">   1177.21277265 </i>
    <i name="e_fr_energy">    100.00022700 </i>
    <i name="e_wo_entrp">    100.00089066 </i>
    <i name="e_0_energy">    100.00055883 </i>
   </energy>
  </scstep>
  <scstep>
   <time name="dav">    5.35    5.38</time>
   <time name="total">    5.35    5.38</time>
   <energy>
    <i name="e_fr_energy">    -72.33902772 </i>
    <i name="e_wo_entrp">    -72.33902772 </i>
    <i name="e_0_energy">    -72.33902772 </i>
   </energy>
  </scstep>
  <scstep>
   <time name="dav">    3.63    3.65</time>
   <time name="total">    3.63    3.65</time>
   <energy>
    <i name="e_fr_energy">    -75.14804214 </i>
    <i name="e_wo_entrp">    -75.14804214 </i>
    <i name="e_0_energy">    -75.14804214 </i>
   </energy>
  </scstep>
  <scstep>
   <time name="dav">    6.78    6.86</time>
   <time name="total">    6.78    6.86</time>
   <energy>
    <i name="e_fr_energy">    -75.16741018 </i>
    <i name="e_wo_entrp">    -75.16741018 </i>
    <i name="e_0_energy">    -75.16741018 </i>
   </energy>
  </scstep>
  <scstep>
   <time name="dav">    3.73    3.83</time>
   <time name="total">    3.89    4.04</time>
   <energy>
    <i name="e_fr_energy">    -75.16741313 </i>
    <i name="e_wo_entrp">    -75.16741313 </i>
    <i name="e_0_energy">    -75.16741313 </i>
   </energy>
  </scstep>
  <scstep>
   <time name="dav">    3.90    3.91</time>
   <time name="total">    4.07    4.10</time>
   <energy>
    <i name="e_fr_energy">    -73.41576598 </i>
    <i name="e_wo_entrp">    -73.41576598 </i>
    <i name="e_0_energy">    -73.41576598 </i>
   </energy>
  </scstep>
  <scstep>
   <time name="dav">    4.89    4.90</time>
   <time name="total">    5.06    5.09</time>
   <energy>
    <i name="e_fr_energy">    -72.82940917 </i>
    <i name="e_wo_entrp">    -72.82940917 </i>
    <i name="e_0_energy">    -72.82940917 </i>
   </energy>
  </scstep>
  <scstep>
   <time name="dav">    5.61    5.62</time>
   <time name="total">    5.77    5.80</time>
   <energy>
    <i name="e_fr_energy">    -72.82789960 </i>
    <i name="e_wo_entrp">    -72.82789960 </i>
    <i name="e_0_energy">    -72.82789960 </i>
   </energy>
  </scstep>
  <scstep>
   <time name="dav">    4.97    4.97</time>
   <time name="total">    5.13    5.15</time>
   <energy>
    <i name="e_fr_energy">    -72.82808683 </i>
    <i name="e_wo_entrp">    -72.82808683 </i>
    <i name="e_0_energy">    -72.82808683 </i>
   </energy>
  </scstep>
  <scstep>
   <time name="dav">    5.33    5.34</time>
   <time name="total">    5.49    5.51</time>
   <energy>
    <i name="e_fr_energy">    -72.82821000 </i>
    <i name="e_wo_entrp">    -72.82821000 </i>
    <i name="e_0_energy">    -72.82821000 </i>
   </energy>
  </scstep>
  <scstep>
   <time name="dav">    5.36    5.37</time>
   <time name="total">    5.52    5.54</time>
   <energy>
    <i name="e_fr_energy">    -72.82821111 </i>
    <i name="e_wo_entrp">    -72.82821111 </i>
    <i name="e_0_energy">    -72.82821111 </i>
   </energy>
  </scstep>
  <scstep>
   <time name="dav">    5.31    5.33</time>
   <time name="total">    5.48    5.50</time>
   <energy>
    <i name="e_fr_energy">    -72.82821147 </i>
    <i name="e_wo_entrp">    -72.82821147 </i>
    <i name="e_0_energy">    -72.82821147 </i>
   </energy>
  </scstep>
  <scstep>
   <time name="dav">    5.45    5.46</time>
   <time name="total">    5.61    5.63</time>
   <energy>
    <i name="e_fr_energy">    -72.82821148 </i>
    <i name="e_wo_entrp">    -72.82821148 </i>
    <i name="e_0_energy">    -72.82821148 </i>
   </energy>
  </scstep>
  <scstep>
   <time name="dav">    4.79    4.80</time>
   <time name="total">    4.80    4.82</time>
   <energy>
    <i name="alphaZ">     75.86367125 </i>
    <i name="ewald">  -1383.05466139 </i>
    <i name="hartreedc">   -106.32634033 </i>
    <i name="XCdc">     64.69548180 </i>
    <i name="pawpsdc">  13970.90472231 </i>
    <i name="pawaedc"> -13929.34684422 </i>
    <i name="eentropy">     -0.00000000 </i>
    <i name="bandstr">     57.22298644 </i>
    <i name="atom">   1177.21277265 </i>
    <i name="e_fr_energy">    -72.82821149 </i>
    <i name="e_wo_entrp">    -72.82821149 </i>
    <i name="e_0_energy">    -72.82821149 </i>
   </energy>
  </scstep>
  <structure>
   <crystal>
    <varray name="basis" >
     <v>       3.59742910       0.00000000       0.00000000 </v>
     <v>       0.00000000       3.59742910       0.00000000 </v>
     <v>       0.00000000       0.00000000       3.57360507 </v>
    </varray>
    <i name="volume">     46.24779632 </i>
    <varray name="rec_basis" >
     <v>       0.27797629       0.00000000       0.00000000 </v>
     <v>       0.00000000       0.27797629       0.00000000 </v>
     <v>       0.00000000       0.00000000       0.27982947 </v>
    </varray>
   </crystal>
   <varray name="positions" >
    <v>       0.25000000       0.25000000       0.25000000 </v>
    <v>       0.00000000       0.00000000       0.00000000 </v>
    <v>       0.25000000       0.75000000       0.75000000 </v>
    <v>       0.00000000       0.50000000       0.50000000 </v>
    <v>       0.75000000       0.25000000       0.75000000 </v>
    <v>       0.50000000       0.00000000       0.50000000 </v>
    <v>       0.75000000       0.75000000       0.25000000 </v>
    <v>       0.50000000       0.50000000       0.00000000 </v>
   </varray>
  </structure>
  <varray name="forces" >
   <v>      -0.00000000       0.00000000      -0.00000000 </v>
   <v>       0.00000000       0.00000000       0.00000000 </v>
   <v>       0.00000000      -0.00000000      -0.00000000 </v>
   <v>       0.00000000      -0.00000000       0.00000000 </v>
   <v>      -0.00000000      -0.00000000      -0.00000000 </v>
   <v>      -0.00000000       0.00000000       0.00000000 </v>
   <v>      -0.00000000      -0.00000000      -0.00000000 </v>
   <v>       0.00000000      -0.00000000       0.00000000 </v>
  </varray>
  <varray name="stress" >
   <v>     -89.46172385       0.00000000       0.00000000 </v>
   <v>       0.00000000     -89.46172385       0.00000000 </v>
   <v>       0.00000000       0.00000000     -29.25712699 </v>
  </varray>
  <energy>
   <i name="e_fr_energy">    -72.82821149 </i>
   <i name="e_wo_entrp">    -72.82821149 </i>
   <i name="e_0_energy">     -0.00000000 </i>
  </energy>
  <time name="totalsc">   73.42   74.19</time>
  <eigenvalues>
   <array>
    <dimension dim="1">band</dimension>
    <dimension dim="2">kpoint</dimension>
    <dimension dim="3">spin</dimension>
    <field>eigene</field>
    <field>occ</field>
    <set>
     <set comment="spin 1">
      <set comment="kpoint 1">
       <r>  -10.5403    1.0000 </r>
       <r>   -2.5584    1.0000 </r>
       <r>   -2.5584    1.0000 </r>
       <r>   -2.4630    1.0000 </r>
       <r>   -1.4384    1.0000 </r>
       <r>   -1.4384    1.0000 </r>
       <r>   -1.3332    1.0000 </r>
       <r>    4.2893    1.0000 </r>
       <r>    4.3834    1.0000 </r>
       <r>    4.3834    1.0000 </r>
       <r>    4.4290    1.0000 </r>
       <r>    4.5254    1.0000 </r>
       <r>    4.5254    1.0000 </r>
       <r>   10.3847    1.0000 </r>
       <r>   10.5481    1.0000 </r>
       <r>   10.6230    1.0000 </r>
       <r>   15.1842    0.0000 </r>
       <r>   15.3399    0.0000 </r>
       <r>   15.3399    0.0000 </r>
       <r>   15.5685    0.0000 </r>
       <r>   15.7195    0.0000 </r>
       <r>   15.7195    0.0000 </r>
       <r>   16.2337    0.0000 </r>
       <r>   16.3018    0.0000 </r>
      </set>
      <set comment="kpoint 2">
       <r>  -10.4477    1.0000 </r>
       <r>   -3.6300    1.0000 </r>
       <r>   -2.4949    1.0000 </r>
       <r>   -2.4013    1.0000 </r>
       <r>   -1.3873    1.0000 </r>
       <r>   -1.2850    1.0000 </r>
       <r>   -0.2818    1.0000 </r>
       <r>    3.9736    1.0000 </r>
       <r>    4.0639    1.0000 </r>
       <r>    4.3671    1.0000 </r>
       <r>    4.4640    1.0000 </r>
       <r>    4.4765    1.0000 </r>
       <r>    4.6153    1.0000 </r>
       <r>    9.9428    1.0000 </r>
       <r>   10.2428    1.0000 </r>
       <r>   10.4523    1.0000 </r>
       <r>   15.1066    0.0000 </r>
       <r>   15.4677    0.0000 </r>
       <r>   15.6204    0.0000 </r>
       <r>   16.0215    0.0000 </r>
       <r>   16.1674    0.0000 </r>
       <r>   16.1740    0.0000 </r>
       <r>   16.2334    0.0000 </r>
       <r>   16.6649    0.0000 </r>
      </set>
      <set comment="kpoint 3">
       <r>  -10.2629    1.0000 </r>
       <r>   -4.6435    1.0000 </r>
       <r>   -2.3724    1.0000 </r>
       <r>   -2.2825    1.0000 </r>
       <r>   -1.2918    1.0000 </r>
       <r>   -1.1958    1.0000 </r>
       <r>    0.8966    1.0000 </r>
       <r>    3.5463    1.0000 </r>
       <r>    3.6303    1.0000 </r>
       <r>    4.1315    1.0000 </r>
       <r>    4.2266    1.0000 </r>
       <r>    4.6627    1.0000 </r>
       <r>    4.7946    1.0000 </r>
       <r>    9.3231    1.0000 </r>
       <r>    9.6618    1.0000 </r>
       <r>   10.0720    1.0000 </r>
       <r>   14.9586    0.0000 </r>
       <r>   16.0676    0.0000 </r>
       <r>   16.0988    0.0000 </r>
       <r>   16.2172    0.0000 </r>
       <r>   16.7438    0.0000 </r>
       <r>   16.8035    0.0000 </r>
       <r>   16.9564    0.0000 </r>
       <r>   17.3847    0.0000 </r>
      </set>
      <set comment="kpoint 4">
       <r>   -9.9863    1.0000 </r>
       <r>   -5.5911    1.0000 </r>
       <r>   -2.2008    1.0000 </r>
       <r>   -2.1178    1.0000 </r>
       <r>   -1.1660    1.0000 </r>
       <r>   -1.0812    1.0000 </r>
       <r>    2.0794    1.0000 </r>
       <r>    3.0849    1.0000 </r>
       <r>    3.1586    1.0000 </r>
       <r>    3.7889    1.0000 </r>
       <r>    3.8782    1.0000 </r>
       <r>    4.9424    1.0000 </r>
       <r>    5.0615    1.0000 </r>
       <r>    8.6145    1.0000 </r>
       <r>    8.9779    1.0000 </r>
       <r>    9.4936    1.0000 </r>
       <r>   14.8940    0.0000 </r>
       <r>   15.9166    0.0000 </r>
       <r>   16.9415    0.0000 </r>
       <r>   17.0880    0.0000 </r>
       <r>   17.4481    0.0000 </r>
       <r>   17.8164    0.0000 </r>
       <r>   17.9684    0.0000 </r>
       <r>   18.2814    0.0000 </r>
      </set>
      <set comment="kpoint 5">
       <r>   -9.6186    1.0000 </r>
       <r>   -6.4665    1.0000 </r>
       <r>   -1.9992    1.0000 </r>
       <r>   -1.9281    1.0000 </r>
       <r>   -1.0336    1.0000 </r>
       <r>   -0.9667    1.0000 </r>
       <r>    2.6654    1.0000 </r>
       <r>    2.7231    1.0000 </r>
       <r>    3.2454    1.0000 </r>
       <r>    3.4195    1.0000 </r>
       <r>    3.4968    1.0000 </r>
       <r>    5.3177    1.0000 </r>
       <r>    5.4142    1.0000 </r>
       <r>    7.8720    1.0000 </r>
       <r>    8.2702    1.0000 </r>
       <r>    8.7700    1.0000 </r>
       <r>   14.9047    0.0000 </r>
       <r>   15.7070    0.0000 </r>
       <r>   18.0172    0.0000 </r>
       <r>   18.1599    0.0000 </r>
       <r>   18.2821    0.0000 </r>
       <r>   18.9807    0.0000 </r>
       <r>   19.1295    0.0000 </r>
       <r>   19.2771    0.0000 </r>
      </set>
      <set comment="kpoint 6">
       <r>   -9.1610    1.0000 </r>
       <r>   -7.2648    1.0000 </r>
       <r>   -1.8016    1.0000 </r>
       <r>   -1.7507    1.0000 </r>
       <r>   -0.9258    1.0000 </r>
       <r>   -0.8839    1.0000 </r>
       <r>    2.3546    1.0000 </r>
       <r>    2.3903    1.0000 </r>
       <r>    3.1057    1.0000 </r>
       <r>    3.1612    1.0000 </r>
       <r>    4.3666    1.0000 </r>
       <r>    5.7944    1.0000 </r>
       <r>    5.8505    1.0000 </r>
       <r>    7.1140    1.0000 </r>
       <r>    7.5822    1.0000 </r>
       <r>    7.9573    1.0000 </r>
       <r>   14.9812    0.0000 </r>
       <r>   15.4910    0.0000 </r>
       <r>   19.2137    0.0000 </r>
       <r>   19.2394    0.0000 </r>
       <r>   19.3496    0.0000 </r>
       <r>   20.2080    0.0000 </r>
       <r>   20.3244    0.0000 </r>
       <r>   20.4100    0.0000 </r>
      </set>
      <set comment="kpoint 7">
       <r>   -8.6148    1.0000 </r>
       <r>   -7.9819    1.0000 </r>
       <r>   -1.6632    1.0000 </r>
       <r>   -1.6440    1.0000 </r>
       <r>   -0.8656    1.0000 </r>
       <r>   -0.8519    1.0000 </r>
       <r>    2.1976    1.0000 </r>
       <r>    2.2093    1.0000 </r>
       <r>    2.9298    1.0000 </r>
       <r>    2.9505    1.0000 </r>
       <r>    5.4035    1.0000 </r>
       <r>    6.3131    1.0000 </r>
       <r>    6.3529    1.0000 </r>
       <r>    6.4020    1.0000 </r>
       <r>    6.9391    1.0000 </r>
       <r>    7.1329    1.0000 </r>
       <r>   15.1128    0.0000 </r>
       <r>   15.2874    0.0000 </r>
       <r>   20.2971    0.0000 </r>
       <r>   20.3904    0.0000 </r>
       <r>   20.4938    0.0000 </r>
       <r>   21.2241    0.0000 </r>
       <r>   21.2867    0.0000 </r>
       <r>   21.3781    0.0000 </r>
      </set>
      <set comment="kpoint 8">
       <r>  -10.3553    1.0000 </r>
       <r>   -3.5577    1.0000 </r>
       <r>   -3.5577    1.0000 </r>
       <r>   -2.3462    1.0000 </r>
       <r>   -1.2408    1.0000 </r>
       <r>   -0.2515    1.0000 </r>
       <r>   -0.2515    1.0000 </r>
       <r>    3.4680    1.0000 </r>
       <r>    4.1650    1.0000 </r>
       <r>    4.1650    1.0000 </r>
       <r>    4.5577    1.0000 </r>
       <r>    4.5577    1.0000 </r>
       <r>    4.5828    1.0000 </r>
       <r>    9.3947    1.0000 </r>
       <r>    9.9952    1.0000 </r>
       <r>   10.4354    1.0000 </r>
       <r>   15.4286    0.0000 </r>
       <r>   15.4460    0.0000 </r>
       <r>   15.4460    0.0000 </r>
       <r>   16.4820    0.0000 </r>
       <r>   16.5593    0.0000 </r>
       <r>   16.5593    0.0000 </r>
       <r>   16.7177    0.0000 </r>
       <r>   16.8470    0.0000 </r>
      </set>
      <set comment="kpoint 9">
       <r>  -10.1707    1.0000 </r>
       <r>   -4.5653    1.0000 </r>
       <r>   -3.4157    1.0000 </r>
       <r>   -2.2447    1.0000 </r>
       <r>   -1.1590    1.0000 </r>
       <r>   -0.2019    1.0000 </r>
       <r>    0.8938    1.0000 </r>
       <r>    2.9285    1.0000 </r>
       <r>    3.7409    1.0000 </r>
       <r>    4.3368    1.0000 </r>
       <r>    4.3687    1.0000 </r>
       <r>    4.5971    1.0000 </r>
       <r>    4.7462    1.0000 </r>
       <r>    8.7203    1.0000 </r>
       <r>    9.4396    1.0000 </r>
       <r>   10.2198    1.0000 </r>
       <r>   15.3186    0.0000 </r>
       <r>   15.7370    0.0000 </r>
       <r>   16.0964    0.0000 </r>
       <r>   16.4450    0.0000 </r>
       <r>   17.1076    0.0000 </r>
       <r>   17.2803    0.0000 </r>
       <r>   17.4849    0.0000 </r>
       <r>   17.5536    0.0000 </r>
      </set>
      <set comment="kpoint 10">
       <r>   -9.8944    1.0000 </r>
       <r>   -5.5088    1.0000 </r>
       <r>   -3.2102    1.0000 </r>
       <r>   -2.1187    1.0000 </r>
       <r>   -1.0517    1.0000 </r>
       <r>   -0.1567    1.0000 </r>
       <r>    2.0219    1.0000 </r>
       <r>    2.4368    1.0000 </r>
       <r>    3.2759    1.0000 </r>
       <r>    4.0266    1.0000 </r>
       <r>    4.4386    1.0000 </r>
       <r>    4.6775    1.0000 </r>
       <r>    5.0339    1.0000 </r>
       <r>    7.9873    1.0000 </r>
       <r>    8.7722    1.0000 </r>
       <r>    9.7620    1.0000 </r>
       <r>   15.2649    0.0000 </r>
       <r>   16.2818    0.0000 </r>
       <r>   16.3829    0.0000 </r>
       <r>   17.0035    0.0000 </r>
       <r>   17.7901    0.0000 </r>
       <r>   18.2428    0.0000 </r>
       <r>   18.3027    0.0000 </r>
       <r>   18.3899    0.0000 </r>
      </set>
      <set comment="kpoint 11">
       <r>   -9.5272    1.0000 </r>
       <r>   -6.3813    1.0000 </r>
       <r>   -2.9521    1.0000 </r>
       <r>   -2.0135    1.0000 </r>
       <r>   -0.9276    1.0000 </r>
       <r>   -0.1522    1.0000 </r>
       <r>    2.0719    1.0000 </r>
       <r>    2.8304    1.0000 </r>
       <r>    3.0969    1.0000 </r>
       <r>    3.7216    1.0000 </r>
       <r>    4.1727    1.0000 </r>
       <r>    5.0902    1.0000 </r>
       <r>    5.4348    1.0000 </r>
       <r>    7.2361    1.0000 </r>
       <r>    8.0746    1.0000 </r>
       <r>    9.1173    1.0000 </r>
       <r>   15.2821    0.0000 </r>
       <r>   16.0810    0.0000 </r>
       <r>   17.2982    0.0000 </r>
       <r>   18.0999    0.0000 </r>
       <r>   18.6031    0.0000 </r>
       <r>   19.1838    0.0000 </r>
       <r>   19.3538    0.0000 </r>
       <r>   19.4019    0.0000 </r>
      </set>
      <set comment="kpoint 12">
       <r>   -9.0701    1.0000 </r>
       <r>   -7.1775    1.0000 </r>
       <r>   -2.6604    1.0000 </r>
       <r>   -1.9997    1.0000 </r>
       <r>   -0.7763    1.0000 </r>
       <r>   -0.2247    1.0000 </r>
       <r>    1.8974    1.0000 </r>
       <r>    2.4412    1.0000 </r>
       <r>    3.5194    1.0000 </r>
       <r>    3.8761    1.0000 </r>
       <r>    4.0777    1.0000 </r>
       <r>    5.5884    1.0000 </r>
       <r>    5.9821    1.0000 </r>
       <r>    6.4851    1.0000 </r>
       <r>    7.3904    1.0000 </r>
       <r>    8.3468    1.0000 </r>
       <r>   15.3621    0.0000 </r>
       <r>   15.8699    0.0000 </r>
       <r>   18.3970    0.0000 </r>
       <r>   19.3084    0.0000 </r>
       <r>   19.5387    0.0000 </r>
       <r>   20.1379    0.0000 </r>
       <r>   20.4618    0.0000 </r>
       <r>   20.4708    0.0000 </r>
      </set>
      <set comment="kpoint 13">
       <r>   -8.5248    1.0000 </r>
       <r>   -7.8931    1.0000 </r>
       <r>   -2.3678    1.0000 </r>
       <r>   -2.1265    1.0000 </r>
       <r>   -0.5847    1.0000 </r>
       <r>   -0.3815    1.0000 </r>
       <r>    1.9295    1.0000 </r>
       <r>    2.1291    1.0000 </r>
       <r>    3.4870    1.0000 </r>
       <r>    3.6237    1.0000 </r>
       <r>    4.9455    1.0000 </r>
       <r>    5.7314    1.0000 </r>
       <r>    6.1421    1.0000 </r>
       <r>    6.6942    1.0000 </r>
       <r>    6.7429    1.0000 </r>
       <r>    7.5134    1.0000 </r>
       <r>   15.4950    0.0000 </r>
       <r>   15.6690    0.0000 </r>
       <r>   19.5694    0.0000 </r>
       <r>   20.3361    0.0000 </r>
       <r>   20.5728    0.0000 </r>
       <r>   20.9570    0.0000 </r>
       <r>   21.1278    0.0000 </r>
       <r>   21.5504    0.0000 </r>
      </set>
      <set comment="kpoint 14">
       <r>   -9.9865    1.0000 </r>
       <r>   -4.4106    1.0000 </r>
       <r>   -4.4106    1.0000 </r>
       <r>   -2.1883    1.0000 </r>
       <r>   -1.0891    1.0000 </r>
       <r>    0.8711    1.0000 </r>
       <r>    0.8711    1.0000 </r>
       <r>    2.3566    1.0000 </r>
       <r>    3.9617    1.0000 </r>
       <r>    3.9617    1.0000 </r>
       <r>    4.5666    1.0000 </r>
       <r>    4.5666    1.0000 </r>
       <r>    4.8850    1.0000 </r>
       <r>    8.0172    1.0000 </r>
       <r>    8.9179    1.0000 </r>
       <r>   10.1997    1.0000 </r>
       <r>   15.7411    0.0000 </r>
       <r>   15.9967    0.0000 </r>
       <r>   15.9967    0.0000 </r>
       <r>   16.8417    0.0000 </r>
       <r>   17.6877    0.0000 </r>
       <r>   17.7854    0.0000 </r>
       <r>   17.7854    0.0000 </r>
       <r>   17.8815    0.0000 </r>
      </set>
      <set comment="kpoint 15">
       <r>   -9.7108    1.0000 </r>
       <r>   -5.3454    1.0000 </r>
       <r>   -4.1834    1.0000 </r>
       <r>   -2.1600    1.0000 </r>
       <r>   -0.9844    1.0000 </r>
       <r>    0.7961    1.0000 </r>
       <r>    1.8870    1.0000 </r>
       <r>    1.9148    1.0000 </r>
       <r>    3.5012    1.0000 </r>
       <r>    4.2865    1.0000 </r>
       <r>    4.3459    1.0000 </r>
       <r>    4.9384    1.0000 </r>
       <r>    4.9718    1.0000 </r>
       <r>    7.2754    1.0000 </r>
       <r>    8.2767    1.0000 </r>
       <r>    9.9173    1.0000 </r>
       <r>   15.9576    0.0000 </r>
       <r>   16.1099    0.0000 </r>
       <r>   16.8733    0.0000 </r>
       <r>   16.9276    0.0000 </r>
       <r>   18.3932    0.0000 </r>
       <r>   18.4001    0.0000 </r>
       <r>   18.4298    0.0000 </r>
       <r>   18.6971    0.0000 </r>
      </set>
      <set comment="kpoint 16">
       <r>   -9.3446    1.0000 </r>
       <r>   -6.2118    1.0000 </r>
       <r>   -3.8906    1.0000 </r>
       <r>   -2.2318    1.0000 </r>
       <r>   -0.8250    1.0000 </r>
       <r>    0.6347    1.0000 </r>
       <r>    1.6752    1.0000 </r>
       <r>    2.8066    1.0000 </r>
       <r>    3.0302    1.0000 </r>
       <r>    4.1870    1.0000 </r>
       <r>    4.6976    1.0000 </r>
       <r>    4.8865    1.0000 </r>
       <r>    5.4832    1.0000 </r>
       <r>    6.5281    1.0000 </r>
       <r>    7.5989    1.0000 </r>
       <r>    9.3997    1.0000 </r>
       <r>   15.9819    0.0000 </r>
       <r>   16.7299    0.0000 </r>
       <r>   16.8067    0.0000 </r>
       <r>   18.0413    0.0000 </r>
       <r>   19.0576    0.0000 </r>
       <r>   19.2039    0.0000 </r>
       <r>   19.3732    0.0000 </r>
       <r>   19.7329    0.0000 </r>
      </set>
      <set comment="kpoint 17">
       <r>   -8.8888    1.0000 </r>
       <r>   -7.0036    1.0000 </r>
       <r>   -3.5437    1.0000 </r>
       <r>   -2.4484    1.0000 </r>
       <r>   -0.5881    1.0000 </r>
       <r>    0.3780    1.0000 </r>
       <r>    1.6636    1.0000 </r>
       <r>    2.5763    1.0000 </r>
       <r>    3.6198    1.0000 </r>
       <r>    4.1582    1.0000 </r>
       <r>    4.6924    1.0000 </r>
       <r>    5.1741    1.0000 </r>
       <r>    5.7929    1.0000 </r>
       <r>    6.2015    1.0000 </r>
       <r>    6.9298    1.0000 </r>
       <r>    8.7042    1.0000 </r>
       <r>   16.0636    0.0000 </r>
       <r>   16.5453    0.0000 </r>
       <r>   17.7549    0.0000 </r>
       <r>   19.2618    0.0000 </r>
       <r>   19.8314    0.0000 </r>
       <r>   20.0968    0.0000 </r>
       <r>   20.4400    0.0000 </r>
       <r>   20.5614    0.0000 </r>
      </set>
      <set comment="kpoint 18">
       <r>   -8.3453    1.0000 </r>
       <r>   -7.7159    1.0000 </r>
       <r>   -3.1625    1.0000 </r>
       <r>   -2.7799    1.0000 </r>
       <r>   -0.2825    1.0000 </r>
       <r>    0.0556    1.0000 </r>
       <r>    1.8472    1.0000 </r>
       <r>    2.1688    1.0000 </r>
       <r>    4.2640    1.0000 </r>
       <r>    4.3599    1.0000 </r>
       <r>    4.4622    1.0000 </r>
       <r>    5.0739    1.0000 </r>
       <r>    5.7075    1.0000 </r>
       <r>    6.2947    1.0000 </r>
       <r>    7.0336    1.0000 </r>
       <r>    7.8935    1.0000 </r>
       <r>   16.1935    0.0000 </r>
       <r>   16.3592    0.0000 </r>
       <r>   18.8555    0.0000 </r>
       <r>   19.9074    0.0000 </r>
       <r>   20.6760    0.0000 </r>
       <r>   20.7046    0.0000 </r>
       <r>   21.0777    0.0000 </r>
       <r>   21.5381    0.0000 </r>
      </set>
      <set comment="kpoint 19">
       <r>   -9.4362    1.0000 </r>
       <r>   -5.1036    1.0000 </r>
       <r>   -5.1036    1.0000 </r>
       <r>   -2.3104    1.0000 </r>
       <r>   -0.8542    1.0000 </r>
       <r>    1.5982    1.0000 </r>
       <r>    1.6511    1.0000 </r>
       <r>    1.6511    1.0000 </r>
       <r>    3.8159    1.0000 </r>
       <r>    3.8159    1.0000 </r>
       <r>    4.8655    1.0000 </r>
       <r>    4.8655    1.0000 </r>
       <r>    5.3249    1.0000 </r>
       <r>    6.5366    1.0000 </r>
       <r>    7.6599    1.0000 </r>
       <r>    9.8293    1.0000 </r>
       <r>   16.1820    0.0000 </r>
       <r>   16.8998    0.0000 </r>
       <r>   16.8998    0.0000 </r>
       <r>   17.3785    0.0000 </r>
       <r>   18.6099    0.0000 </r>
       <r>   18.6603    0.0000 </r>
       <r>   19.2874    0.0000 </r>
       <r>   19.2874    0.0000 </r>
      </set>
      <set comment="kpoint 20">
       <r>   -9.0714    1.0000 </r>
       <r>   -5.9598    1.0000 </r>
       <r>   -4.7879    1.0000 </r>
       <r>   -2.6107    1.0000 </r>
       <r>   -0.6356    1.0000 </r>
       <r>    1.3137    1.0000 </r>
       <r>    1.5198    1.0000 </r>
       <r>    2.4004    1.0000 </r>
       <r>    3.3090    1.0000 </r>
       <r>    4.2019    1.0000 </r>
       <r>    4.8767    1.0000 </r>
       <r>    5.4771    1.0000 </r>
       <r>    5.5798    1.0000 </r>
       <r>    5.8005    1.0000 </r>
       <r>    7.0028    1.0000 </r>
       <r>    9.4823    1.0000 </r>
       <r>   16.6077    0.0000 </r>
       <r>   16.9260    0.0000 </r>
       <r>   17.4913    0.0000 </r>
       <r>   18.0182    0.0000 </r>
       <r>   18.9790    0.0000 </r>
       <r>   19.4117    0.0000 </r>
       <r>   19.9947    0.0000 </r>
       <r>   20.2026    0.0000 </r>
      </set>
      <set comment="kpoint 21">
       <r>   -8.6178    1.0000 </r>
       <r>   -6.7444    1.0000 </r>
       <r>   -4.4058    1.0000 </r>
       <r>   -3.0286    1.0000 </r>
       <r>   -0.3286    1.0000 </r>
       <r>    0.9054    1.0000 </r>
       <r>    1.6516    1.0000 </r>
       <r>    2.8044    1.0000 </r>
       <r>    3.0781    1.0000 </r>
       <r>    4.6518    1.0000 </r>
       <r>    4.9801    1.0000 </r>
       <r>    5.0843    1.0000 </r>
       <r>    5.4567    1.0000 </r>
       <r>    6.3515    1.0000 </r>
       <r>    6.4253    1.0000 </r>
       <r>    8.9091    1.0000 </r>
       <r>   17.0018    0.0000 </r>
       <r>   17.3426    0.0000 </r>
       <r>   17.3993    0.0000 </r>
       <r>   19.2350    0.0000 </r>
       <r>   19.4899    0.0000 </r>
       <r>   20.3935    0.0000 </r>
       <r>   20.4276    0.0000 </r>
       <r>   20.7664    0.0000 </r>
      </set>
      <set comment="kpoint 22">
       <r>   -8.0770    1.0000 </r>
       <r>   -7.4515    1.0000 </r>
       <r>   -3.9695    1.0000 </r>
       <r>   -3.4992    1.0000 </r>
       <r>    0.0485    1.0000 </r>
       <r>    0.4704    1.0000 </r>
       <r>    1.9399    1.0000 </r>
       <r>    2.3368    1.0000 </r>
       <r>    3.7320    1.0000 </r>
       <r>    4.3954    1.0000 </r>
       <r>    5.1452    1.0000 </r>
       <r>    5.1635    1.0000 </r>
       <r>    5.3239    1.0000 </r>
       <r>    5.7331    1.0000 </r>
       <r>    7.3140    1.0000 </r>
       <r>    8.1652    1.0000 </r>
       <r>   17.1172    0.0000 </r>
       <r>   17.2576    0.0000 </r>
       <r>   18.3034    0.0000 </r>
       <r>   19.3656    0.0000 </r>
       <r>   20.1105    0.0000 </r>
       <r>   20.5970    0.0000 </r>
       <r>   20.7802    0.0000 </r>
       <r>   21.5249    0.0000 </r>
      </set>
      <set comment="kpoint 23">
       <r>   -8.7088    1.0000 </r>
       <r>   -5.6286    1.0000 </r>
       <r>   -5.6286    1.0000 </r>
       <r>   -3.1116    1.0000 </r>
       <r>   -0.3571    1.0000 </r>
       <r>    1.5834    1.0000 </r>
       <r>    1.9197    1.0000 </r>
       <r>    1.9197    1.0000 </r>
       <r>    3.6613    1.0000 </r>
       <r>    3.6613    1.0000 </r>
       <r>    5.0801    1.0000 </r>
       <r>    5.7209    1.0000 </r>
       <r>    5.7209    1.0000 </r>
       <r>    5.8854    1.0000 </r>
       <r>    6.3642    1.0000 </r>
       <r>    9.3227    1.0000 </r>
       <r>   16.7421    0.0000 </r>
       <r>   18.0380    0.0000 </r>
       <r>   18.0380    0.0000 </r>
       <r>   18.0866    0.0000 </r>
       <r>   19.0139    0.0000 </r>
       <r>   19.7290    0.0000 </r>
       <r>   20.6038    0.0000 </r>
       <r>   20.6038    0.0000 </r>
      </set>
      <set comment="kpoint 24">
       <r>   -8.2582    1.0000 </r>
       <r>   -6.4023    1.0000 </r>
       <r>   -5.2231    1.0000 </r>
       <r>   -3.6681    1.0000 </r>
       <r>    0.0009    1.0000 </r>
       <r>    1.4080    1.0000 </r>
       <r>    1.8151    1.0000 </r>
       <r>    2.5018    1.0000 </r>
       <r>    3.1207    1.0000 </r>
       <r>    4.0847    1.0000 </r>
       <r>    4.3838    1.0000 </r>
       <r>    5.7298    1.0000 </r>
       <r>    5.8843    1.0000 </r>
       <r>    6.0919    1.0000 </r>
       <r>    6.6270    1.0000 </r>
       <r>    8.9169    1.0000 </r>
       <r>   17.2102    0.0000 </r>
       <r>   18.0955    0.0000 </r>
       <r>   18.2840    0.0000 </r>
       <r>   19.1966    0.0000 </r>
       <r>   19.2327    0.0000 </r>
       <r>   19.9749    0.0000 </r>
       <r>   20.4524    0.0000 </r>
       <r>   20.5126    0.0000 </r>
      </set>
      <set comment="kpoint 25">
       <r>   -7.7215    1.0000 </r>
       <r>   -7.1016    1.0000 </r>
       <r>   -4.7515    1.0000 </r>
       <r>   -4.2262    1.0000 </r>
       <r>    0.4254    1.0000 </r>
       <r>    0.9010    1.0000 </r>
       <r>    2.1699    1.0000 </r>
       <r>    2.6143    1.0000 </r>
       <r>    3.0961    1.0000 </r>
       <r>    3.7215    1.0000 </r>
       <r>    4.5758    1.0000 </r>
       <r>    5.1278    1.0000 </r>
       <r>    6.0347    1.0000 </r>
       <r>    6.1232    1.0000 </r>
       <r>    7.5098    1.0000 </r>
       <r>    8.2949    1.0000 </r>
       <r>   17.9619    0.0000 </r>
       <r>   18.1780    0.0000 </r>
       <r>   18.2604    0.0000 </r>
       <r>   18.9051    0.0000 </r>
       <r>   19.5265    0.0000 </r>
       <r>   19.9733    0.0000 </r>
       <r>   20.5332    0.0000 </r>
       <r>   21.5524    0.0000 </r>
      </set>
      <set comment="kpoint 26">
       <r>   -7.8117    1.0000 </r>
       <r>   -5.9809    1.0000 </r>
       <r>   -5.9809    1.0000 </r>
       <r>   -4.3119    1.0000 </r>
       <r>    0.3979    1.0000 </r>
       <r>    1.9244    1.0000 </r>
       <r>    1.9244    1.0000 </r>
       <r>    2.1110    1.0000 </r>
       <r>    3.5183    1.0000 </r>
       <r>    3.5183    1.0000 </r>
       <r>    3.7087    1.0000 </r>
       <r>    5.1112    1.0000 </r>
       <r>    6.5413    1.0000 </r>
       <r>    6.7810    1.0000 </r>
       <r>    6.7810    1.0000 </r>
       <r>    8.6983    1.0000 </r>
       <r>   17.3900    0.0000 </r>
       <r>   18.9557    0.0000 </r>
       <r>   19.0226    0.0000 </r>
       <r>   19.2399    0.0000 </r>
       <r>   19.2399    0.0000 </r>
       <r>   19.5519    0.0000 </r>
       <r>   19.5519    0.0000 </r>
       <r>   20.8901    0.0000 </r>
      </set>
      <set comment="kpoint 27">
       <r>   -7.2809    1.0000 </r>
       <r>   -6.6690    1.0000 </r>
       <r>   -5.4856    1.0000 </r>
       <r>   -4.9249    1.0000 </r>
       <r>    0.8572    1.0000 </r>
       <r>    1.3703    1.0000 </r>
       <r>    2.4757    1.0000 </r>
       <r>    2.5088    1.0000 </r>
       <r>    2.9849    1.0000 </r>
       <r>    3.0705    1.0000 </r>
       <r>    3.9896    1.0000 </r>
       <r>    4.5248    1.0000 </r>
       <r>    6.7862    1.0000 </r>
       <r>    6.8502    1.0000 </r>
       <r>    7.5916    1.0000 </r>
       <r>    8.2482    1.0000 </r>
       <r>   17.8745    0.0000 </r>
       <r>   18.6078    0.0000 </r>
       <r>   19.0114    0.0000 </r>
       <r>   19.1552    0.0000 </r>
       <r>   19.2401    0.0000 </r>
       <r>   19.3210    0.0000 </r>
       <r>   20.4659    0.0000 </r>
       <r>   21.5267    0.0000 </r>
      </set>
      <set comment="kpoint 28">
       <r>   -6.7581    1.0000 </r>
       <r>   -6.1576    1.0000 </r>
       <r>   -6.1576    1.0000 </r>
       <r>   -5.5733    1.0000 </r>
       <r>    1.3459    1.0000 </r>
       <r>    1.8882    1.0000 </r>
       <r>    1.8882    1.0000 </r>
       <r>    2.4563    1.0000 </r>
       <r>    2.9363    1.0000 </r>
       <r>    3.4357    1.0000 </r>
       <r>    3.4357    1.0000 </r>
       <r>    3.9540    1.0000 </r>
       <r>    7.2584    1.0000 </r>
       <r>    7.5209    1.0000 </r>
       <r>    7.5209    1.0000 </r>
       <r>    7.9940    1.0000 </r>
       <r>   18.0653    0.0000 </r>
       <r>   18.5200    0.0000 </r>
       <r>   18.5200    0.0000 </r>
       <r>   18.6612    0.0000 </r>
       <r>   19.9692    0.0000 </r>
       <r>   20.3282    0.0000 </r>
       <r>   20.3282    0.0000 </r>
       <r>   21.1020    0.0000 </r>
      </set>
      <set comment="kpoint 29">
       <r>  -10.4465    1.0000 </r>
       <r>   -3.5452    1.0000 </r>
       <r>   -2.4944    1.0000 </r>
       <r>   -2.4944    1.0000 </r>
       <r>   -1.3872    1.0000 </r>
       <r>   -1.3872    1.0000 </r>
       <r>   -0.1686    1.0000 </r>
       <r>    4.0591    1.0000 </r>
       <r>    4.0591    1.0000 </r>
       <r>    4.3839    1.0000 </r>
       <r>    4.4589    1.0000 </r>
       <r>    4.4589    1.0000 </r>
       <r>    4.5200    1.0000 </r>
       <r>    9.9401    1.0000 </r>
       <r>   10.1935    1.0000 </r>
       <r>   10.5055    1.0000 </r>
       <r>   14.9477    0.0000 </r>
       <r>   15.6277    0.0000 </r>
       <r>   15.6277    0.0000 </r>
       <r>   16.0256    0.0000 </r>
       <r>   16.1507    0.0000 </r>
       <r>   16.1809    0.0000 </r>
       <r>   16.1809    0.0000 </r>
       <r>   16.7324    0.0000 </r>
      </set>
      <set comment="kpoint 30">
       <r>  -10.3541    1.0000 </r>
       <r>   -3.5569    1.0000 </r>
       <r>   -3.4739    1.0000 </r>
       <r>   -2.4371    1.0000 </r>
       <r>   -1.3398    1.0000 </r>
       <r>   -0.2520    1.0000 </r>
       <r>   -0.1433    1.0000 </r>
       <r>    3.5454    1.0000 </r>
       <r>    4.0765    1.0000 </r>
       <r>    4.1595    1.0000 </r>
       <r>    4.4630    1.0000 </r>
       <r>    4.5537    1.0000 </r>
       <r>    4.6795    1.0000 </r>
       <r>    9.4034    1.0000 </r>
       <r>    9.9317    1.0000 </r>
       <r>   10.4914    1.0000 </r>
       <r>   15.2894    0.0000 </r>
       <r>   15.4530    0.0000 </r>
       <r>   15.5825    0.0000 </r>
       <r>   16.4165    0.0000 </r>
       <r>   16.4370    0.0000 </r>
       <r>   16.5661    0.0000 </r>
       <r>   16.7997    0.0000 </r>
       <r>   16.8804    0.0000 </r>
      </set>
      <set comment="kpoint 31">
       <r>  -10.1694    1.0000 </r>
       <r>   -4.5644    1.0000 </r>
       <r>   -3.3341    1.0000 </r>
       <r>   -2.3304    1.0000 </r>
       <r>   -1.2513    1.0000 </r>
       <r>   -0.1050    1.0000 </r>
       <r>    0.8924    1.0000 </r>
       <r>    2.9944    1.0000 </r>
       <r>    3.6590    1.0000 </r>
       <r>    4.2475    1.0000 </r>
       <r>    4.3614    1.0000 </r>
       <r>    4.6973    1.0000 </r>
       <r>    4.7451    1.0000 </r>
       <r>    8.7293    1.0000 </r>
       <r>    9.3851    1.0000 </r>
       <r>   10.2661    1.0000 </r>
       <r>   15.3254    0.0000 </r>
       <r>   15.8851    0.0000 </r>
       <r>   15.9433    0.0000 </r>
       <r>   16.4407    0.0000 </r>
       <r>   17.1141    0.0000 </r>
       <r>   17.1366    0.0000 </r>
       <r>   17.3794    0.0000 </r>
       <r>   17.6569    0.0000 </r>
      </set>
      <set comment="kpoint 32">
       <r>   -9.8931    1.0000 </r>
       <r>   -5.5078    1.0000 </r>
       <r>   -3.1325    1.0000 </r>
       <r>   -2.1938    1.0000 </r>
       <r>   -1.1333    1.0000 </r>
       <r>   -0.0796    1.0000 </r>
       <r>    2.0191    1.0000 </r>
       <r>    2.4849    1.0000 </r>
       <r>    3.2025    1.0000 </r>
       <r>    3.9507    1.0000 </r>
       <r>    4.5392    1.0000 </r>
       <r>    4.6660    1.0000 </r>
       <r>    5.0388    1.0000 </r>
       <r>    7.9939    1.0000 </r>
       <r>    8.7241    1.0000 </r>
       <r>    9.8027    1.0000 </r>
       <r>   15.2714    0.0000 </r>
       <r>   16.2819    0.0000 </r>
       <r>   16.5255    0.0000 </r>
       <r>   16.8540    0.0000 </r>
       <r>   17.7962    0.0000 </r>
       <r>   18.0994    0.0000 </r>
       <r>   18.2563    0.0000 </r>
       <r>   18.4323    0.0000 </r>
      </set>
      <set comment="kpoint 33">
       <r>   -9.5259    1.0000 </r>
       <r>   -6.3803    1.0000 </r>
       <r>   -2.8809    1.0000 </r>
       <r>   -2.0684    1.0000 </r>
       <r>   -0.9957    1.0000 </r>
       <r>   -0.1047    1.0000 </r>
       <r>    2.0940    1.0000 </r>
       <r>    2.7656    1.0000 </r>
       <r>    3.0924    1.0000 </r>
       <r>    3.6717    1.0000 </r>
       <r>    4.2689    1.0000 </r>
       <r>    5.0704    1.0000 </r>
       <r>    5.4504    1.0000 </r>
       <r>    7.2397    1.0000 </r>
       <r>    8.0309    1.0000 </r>
       <r>    9.1548    1.0000 </r>
       <r>   15.2881    0.0000 </r>
       <r>   16.0826    0.0000 </r>
       <r>   17.4356    0.0000 </r>
       <r>   17.9544    0.0000 </r>
       <r>   18.6087    0.0000 </r>
       <r>   19.2144    0.0000 </r>
       <r>   19.2479    0.0000 </r>
       <r>   19.3351    0.0000 </r>
      </set>
      <set comment="kpoint 34">
       <r>   -9.0689    1.0000 </r>
       <r>   -7.1764    1.0000 </r>
       <r>   -2.6000    1.0000 </r>
       <r>   -2.0222    1.0000 </r>
       <r>   -0.8322    1.0000 </r>
       <r>   -0.2131    1.0000 </r>
       <r>    1.8884    1.0000 </r>
       <r>    2.3823    1.0000 </r>
       <r>    3.5090    1.0000 </r>
       <r>    3.9613    1.0000 </r>
       <r>    4.0722    1.0000 </r>
       <r>    5.5581    1.0000 </r>
       <r>    6.0101    1.0000 </r>
       <r>    6.4857    1.0000 </r>
       <r>    7.3498    1.0000 </r>
       <r>    8.3828    1.0000 </r>
       <r>   15.3676    0.0000 </r>
       <r>   15.8729    0.0000 </r>
       <r>   18.5283    0.0000 </r>
       <r>   19.1705    0.0000 </r>
       <r>   19.5435    0.0000 </r>
       <r>   20.2852    0.0000 </r>
       <r>   20.3226    0.0000 </r>
       <r>   20.3452    0.0000 </r>
      </set>
      <set comment="kpoint 35">
       <r>   -8.5236    1.0000 </r>
       <r>   -7.8919    1.0000 </r>
       <r>   -2.3256    1.0000 </r>
       <r>   -2.1126    1.0000 </r>
       <r>   -0.6274    1.0000 </r>
       <r>   -0.4025    1.0000 </r>
       <r>    1.8935    1.0000 </r>
       <r>    2.0773    1.0000 </r>
       <r>    3.5189    1.0000 </r>
       <r>    3.6885    1.0000 </r>
       <r>    4.9407    1.0000 </r>
       <r>    5.7290    1.0000 </r>
       <r>    6.1057    1.0000 </r>
       <r>    6.7043    1.0000 </r>
       <r>    6.7285    1.0000 </r>
       <r>    7.5489    1.0000 </r>
       <r>   15.4998    0.0000 </r>
       <r>   15.6730    0.0000 </r>
       <r>   19.6854    0.0000 </r>
       <r>   20.2866    0.0000 </r>
       <r>   20.5765    0.0000 </r>
       <r>   20.9244    0.0000 </r>
       <r>   21.3027    0.0000 </r>
       <r>   21.3821    0.0000 </r>
      </set>
      <set comment="kpoint 36">
       <r>  -10.2617    1.0000 </r>
       <r>   -3.4873    1.0000 </r>
       <r>   -3.4873    1.0000 </r>
       <r>   -3.4054    1.0000 </r>
       <r>   -0.2341    1.0000 </r>
       <r>   -0.2341    1.0000 </r>
       <r>   -0.1318    1.0000 </r>
       <r>    3.5963    1.0000 </r>
       <r>    3.6688    1.0000 </r>
       <r>    3.6688    1.0000 </r>
       <r>    4.6720    1.0000 </r>
       <r>    4.7678    1.0000 </r>
       <r>    4.7678    1.0000 </r>
       <r>    8.7919    1.0000 </r>
       <r>   10.1164    1.0000 </r>
       <r>   10.1882    1.0000 </r>
       <r>   15.3780    0.0000 </r>
       <r>   15.5342    0.0000 </r>
       <r>   15.5342    0.0000 </r>
       <r>   16.8090    0.0000 </r>
       <r>   16.8640    0.0000 </r>
       <r>   16.9820    0.0000 </r>
       <r>   17.1364    0.0000 </r>
       <r>   17.2007    0.0000 </r>
      </set>
      <set comment="kpoint 37">
       <r>  -10.0773    1.0000 </r>
       <r>   -4.4876    1.0000 </r>
       <r>   -3.3517    1.0000 </r>
       <r>   -3.2724    1.0000 </r>
       <r>   -0.2142    1.0000 </r>
       <r>   -0.1267    1.0000 </r>
       <r>    0.8626    1.0000 </r>
       <r>    3.0974    1.0000 </r>
       <r>    3.1536    1.0000 </r>
       <r>    3.9253    1.0000 </r>
       <r>    4.6899    1.0000 </r>
       <r>    4.7879    1.0000 </r>
       <r>    4.9435    1.0000 </r>
       <r>    8.0749    1.0000 </r>
       <r>    9.6321    1.0000 </r>
       <r>   10.0594    1.0000 </r>
       <r>   15.4908    0.0000 </r>
       <r>   15.7391    0.0000 </r>
       <r>   15.8879    0.0000 </r>
       <r>   16.7614    0.0000 </r>
       <r>   17.4763    0.0000 </r>
       <r>   17.5943    0.0000 </r>
       <r>   17.6678    0.0000 </r>
       <r>   17.8777    0.0000 </r>
      </set>
      <set comment="kpoint 38">
       <r>   -9.8013    1.0000 </r>
       <r>   -5.4264    1.0000 </r>
       <r>   -3.1591    1.0000 </r>
       <r>   -3.0849    1.0000 </r>
       <r>   -0.2250    1.0000 </r>
       <r>   -0.1626    1.0000 </r>
       <r>    1.9063    1.0000 </r>
       <r>    2.6699    1.0000 </r>
       <r>    2.7023    1.0000 </r>
       <r>    4.3369    1.0000 </r>
       <r>    4.5462    1.0000 </r>
       <r>    4.6420    1.0000 </r>
       <r>    5.2052    1.0000 </r>
       <r>    7.3199    1.0000 </r>
       <r>    8.9916    1.0000 </r>
       <r>    9.7010    1.0000 </r>
       <r>   15.4887    0.0000 </r>
       <r>   16.4077    0.0000 </r>
       <r>   16.5502    0.0000 </r>
       <r>   16.5949    0.0000 </r>
       <r>   18.2156    0.0000 </r>
       <r>   18.2698    0.0000 </r>
       <r>   18.4030    0.0000 </r>
       <r>   18.9678    0.0000 </r>
      </set>
      <set comment="kpoint 39">
       <r>   -9.4346    1.0000 </r>
       <r>   -6.2956    1.0000 </r>
       <r>   -2.9279    1.0000 </r>
       <r>   -2.8627    1.0000 </r>
       <r>   -0.3040    1.0000 </r>
       <r>   -0.2737    1.0000 </r>
       <r>    2.3862    1.0000 </r>
       <r>    2.3907    1.0000 </r>
       <r>    2.8474    1.0000 </r>
       <r>    4.3125    1.0000 </r>
       <r>    4.3979    1.0000 </r>
       <r>    4.9312    1.0000 </r>
       <r>    5.5502    1.0000 </r>
       <r>    6.5629    1.0000 </r>
       <r>    8.3191    1.0000 </r>
       <r>    9.1149    1.0000 </r>
       <r>   15.5392    0.0000 </r>
       <r>   16.3933    0.0000 </r>
       <r>   17.3319    0.0000 </r>
       <r>   17.4689    0.0000 </r>
       <r>   18.9823    0.0000 </r>
       <r>   19.1461    0.0000 </r>
       <r>   19.3135    0.0000 </r>
       <r>   20.1621    0.0000 </r>
      </set>
      <set comment="kpoint 40">
       <r>   -8.9782    1.0000 </r>
       <r>   -7.0894    1.0000 </r>
       <r>   -2.6943    1.0000 </r>
       <r>   -2.6459    1.0000 </r>
       <r>   -0.4495    1.0000 </r>
       <r>   -0.4450    1.0000 </r>
       <r>    2.2458    1.0000 </r>
       <r>    2.2590    1.0000 </r>
       <r>    3.6651    1.0000 </r>
       <r>    4.0788    1.0000 </r>
       <r>    4.1417    1.0000 </r>
       <r>    5.7042    1.0000 </r>
       <r>    5.8232    1.0000 </r>
       <r>    5.9755    1.0000 </r>
       <r>    7.6589    1.0000 </r>
       <r>    8.3626    1.0000 </r>
       <r>   15.6417    0.0000 </r>
       <r>   16.1800    0.0000 </r>
       <r>   18.4298    0.0000 </r>
       <r>   18.5595    0.0000 </r>
       <r>   19.8789    0.0000 </r>
       <r>   20.1016    0.0000 </r>
       <r>   20.2967    0.0000 </r>
       <r>   21.2981    0.0000 </r>
      </set>
      <set comment="kpoint 41">
       <r>   -8.4338    1.0000 </r>
       <r>   -7.8033    1.0000 </r>
       <r>   -2.5263    1.0000 </r>
       <r>   -2.5074    1.0000 </r>
       <r>   -0.5825    1.0000 </r>
       <r>   -0.5801    1.0000 </r>
       <r>    2.2171    1.0000 </r>
       <r>    2.2257    1.0000 </r>
       <r>    3.9398    1.0000 </r>
       <r>    3.9639    1.0000 </r>
       <r>    4.3982    1.0000 </r>
       <r>    5.1056    1.0000 </r>
       <r>    6.4701    1.0000 </r>
       <r>    6.5948    1.0000 </r>
       <r>    7.0376    1.0000 </r>
       <r>    7.5024    1.0000 </r>
       <r>   15.7898    0.0000 </r>
       <r>   15.9735    0.0000 </r>
       <r>   19.5582    0.0000 </r>
       <r>   19.6574    0.0000 </r>
       <r>   20.8752    0.0000 </r>
       <r>   21.1008    0.0000 </r>
       <r>   21.1704    0.0000 </r>
       <r>   21.2942    0.0000 </r>
      </set>
      <set comment="kpoint 42">
       <r>   -9.8933    1.0000 </r>
       <r>   -4.3363    1.0000 </r>
       <r>   -4.3363    1.0000 </r>
       <r>   -3.1564    1.0000 </r>
       <r>   -0.1970    1.0000 </r>
       <r>    0.7755    1.0000 </r>
       <r>    0.7755    1.0000 </r>
[...]
       <r>   -5.3988    1.0000 </r>
       <r>   -4.9526    1.0000 </r>
       <r>   -1.9204    1.0000 </r>
       <r>   -1.4843    1.0000 </r>
       <r>   -1.4784    1.0000 </r>
       <r>   -0.9634    1.0000 </r>
       <r>    6.5787    1.0000 </r>
       <r>    6.8570    1.0000 </r>
       <r>    6.8732    1.0000 </r>
       <r>    7.2196    1.0000 </r>
       <r>    7.6470    1.0000 </r>
       <r>    7.7663    1.0000 </r>
       <r>    7.7736    1.0000 </r>
       <r>    8.0584    1.0000 </r>
       <r>   18.7088    0.0000 </r>
       <r>   18.9167    0.0000 </r>
       <r>   18.9428    0.0000 </r>
       <r>   19.0474    0.0000 </r>
       <r>   19.1674    0.0000 </r>
       <r>   19.1929    0.0000 </r>
       <r>   19.3825    0.0000 </r>
       <r>   19.6499    0.0000 </r>
      </set>
      <set comment="kpoint 194">
       <r>   -6.0201    1.0000 </r>
       <r>   -5.4828    1.0000 </r>
       <r>   -4.7558    1.0000 </r>
       <r>   -4.7558    1.0000 </r>
       <r>   -2.2784    1.0000 </r>
       <r>   -2.2784    1.0000 </r>
       <r>   -1.5658    1.0000 </r>
       <r>   -1.0420    1.0000 </r>
       <r>    6.9482    1.0000 </r>
       <r>    6.9482    1.0000 </r>
       <r>    7.5439    1.0000 </r>
       <r>    7.5599    1.0000 </r>
       <r>    7.5599    1.0000 </r>
       <r>    7.6203    1.0000 </r>
       <r>    7.7960    1.0000 </r>
       <r>    8.0404    1.0000 </r>
       <r>   18.5696    0.0000 </r>
       <r>   18.7585    0.0000 </r>
       <r>   18.7585    0.0000 </r>
       <r>   18.7851    0.0000 </r>
       <r>   19.2021    0.0000 </r>
       <r>   19.3813    0.0000 </r>
       <r>   19.5529    0.0000 </r>
       <r>   19.5530    0.0000 </r>
      </set>
      <set comment="kpoint 195">
       <r>   -5.5746    1.0000 </r>
       <r>   -5.1232    1.0000 </r>
       <r>   -5.1180    1.0000 </r>
       <r>   -4.8360    1.0000 </r>
       <r>   -2.3632    1.0000 </r>
       <r>   -2.0859    1.0000 </r>
       <r>   -2.0811    1.0000 </r>
       <r>   -1.6389    1.0000 </r>
       <r>    7.2779    1.0000 </r>
       <r>    7.4293    1.0000 </r>
       <r>    7.4642    1.0000 </r>
       <r>    7.6964    1.0000 </r>
       <r>    7.7587    1.0000 </r>
       <r>    7.7980    1.0000 </r>
       <r>    7.8275    1.0000 </r>
       <r>    8.0198    1.0000 </r>
       <r>   18.8644    0.0000 </r>
       <r>   18.8842    0.0000 </r>
       <r>   18.9119    0.0000 </r>
       <r>   19.0043    0.0000 </r>
       <r>   19.0757    0.0000 </r>
       <r>   19.1792    0.0000 </r>
       <r>   19.3151    0.0000 </r>
       <r>   19.3466    0.0000 </r>
      </set>
      <set comment="kpoint 196">
       <r>   -5.2066    1.0000 </r>
       <r>   -4.9201    1.0000 </r>
       <r>   -4.9201    1.0000 </r>
       <r>   -4.9180    1.0000 </r>
       <r>   -2.4475    1.0000 </r>
       <r>   -2.4455    1.0000 </r>
       <r>   -2.4455    1.0000 </r>
       <r>   -2.1637    1.0000 </r>
       <r>    7.7220    1.0000 </r>
       <r>    7.7220    1.0000 </r>
       <r>    7.7698    1.0000 </r>
       <r>    7.8288    1.0000 </r>
       <r>    7.8588    1.0000 </r>
       <r>    7.8753    1.0000 </r>
       <r>    7.8753    1.0000 </r>
       <r>    7.9745    1.0000 </r>
       <r>   18.9134    0.0000 </r>
       <r>   18.9661    0.0000 </r>
       <r>   18.9661    0.0000 </r>
       <r>   18.9946    0.0000 </r>
       <r>   19.0025    0.0000 </r>
       <r>   19.1209    0.0000 </r>
       <r>   19.1209    0.0000 </r>
       <r>   19.1239    0.0000 </r>
      </set>
     </set>
    </set>
   </array>
  </eigenvalues>
  <separator name="orbital magnetization" >
   <v name="MAGDIPOLOUT">      0.00000000      0.00000000      0.00000000</v>
  </separator>
  <dos>
   <i name="efermi">     10.91012971 </i>
   <total>
    <array>
     <dimension dim="1">gridpoints</dimension>
     <dimension dim="2">spin</dimension>
     <field>energy</field>
     <field>total</field>
     <field>integrated</field>
     <set>
      <set comment="spin 1">
       <r>   -12.1889     0.0000     0.0000 </r>
       <r>   -12.0680     0.0000     0.0000 </r>
       <r>   -11.9471     0.0000     0.0000 </r>
       <r>   -11.8262     0.0000     0.0000 </r>
       <r>   -11.7053     0.0000     0.0000 </r>
       <r>   -11.5844     0.0000     0.0000 </r>
       <r>   -11.4635     0.0000     0.0000 </r>
       <r>   -11.3426     0.0000     0.0000 </r>
       <r>   -11.2217     0.0000     0.0000 </r>
       <r>   -11.1008     0.0000     0.0000 </r>
       <r>   -10.9799     0.0000     0.0000 </r>
       <r>   -10.8590     0.0000     0.0000 </r>
       <r>   -10.7381     0.0000     0.0000 </r>
       <r>   -10.6172     0.0007     0.0001 </r>
       <r>   -10.4963     0.0544     0.0067 </r>
       <r>   -10.3754     0.1750     0.0278 </r>
       <r>   -10.2545     0.2214     0.0546 </r>
       <r>   -10.1336     0.3302     0.0945 </r>
       <r>   -10.0127     0.2381     0.1233 </r>
       <r>    -9.8918     0.4492     0.1776 </r>
       <r>    -9.7709     0.3450     0.2193 </r>
       <r>    -9.6500     0.4086     0.2687 </r>
       <r>    -9.5291     0.5036     0.3296 </r>
       <r>    -9.4082     0.5008     0.3901 </r>
       <r>    -9.2873     0.5424     0.4557 </r>
       <r>    -9.1664     0.3916     0.5031 </r>
       <r>    -9.0455     0.6961     0.5872 </r>
       <r>    -8.9246     0.6433     0.6650 </r>
       <r>    -8.8037     0.5430     0.7306 </r>
       <r>    -8.6828     0.4855     0.7893 </r>
       <r>    -8.5619     0.7663     0.8820 </r>
       <r>    -8.4410     0.8038     0.9792 </r>
       <r>    -8.3201     0.6039     1.0522 </r>
       <r>    -8.1992     0.7528     1.1432 </r>
       <r>    -8.0783     0.6507     1.2219 </r>
       <r>    -7.9574     0.8756     1.3277 </r>
       <r>    -7.8365     0.5561     1.3949 </r>
       <r>    -7.7156     1.0050     1.5164 </r>
       <r>    -7.5947     1.0143     1.6391 </r>
       <r>    -7.4738     0.5582     1.7065 </r>
       <r>    -7.3530     0.8214     1.8059 </r>
       <r>    -7.2321     0.7567     1.8973 </r>
       <r>    -7.1112     1.2352     2.0467 </r>
       <r>    -6.9903     0.9157     2.1574 </r>
       <r>    -6.8694     0.9119     2.2676 </r>
       <r>    -6.7485     0.8027     2.3647 </r>
       <r>    -6.6276     1.0662     2.4936 </r>
       <r>    -6.5067     0.8722     2.5990 </r>
       <r>    -6.3858     1.1660     2.7400 </r>
       <r>    -6.2649     0.9437     2.8541 </r>
       <r>    -6.1440     1.1847     2.9973 </r>
       <r>    -6.0231     1.0115     3.1196 </r>
       <r>    -5.9022     1.2903     3.2756 </r>
       <r>    -5.7813     1.1319     3.4124 </r>
       <r>    -5.6604     0.7478     3.5028 </r>
       <r>    -5.5395     1.0890     3.6345 </r>
       <r>    -5.4186     1.6858     3.8383 </r>
       <r>    -5.2977     1.2201     3.9858 </r>
       <r>    -5.1768     1.2962     4.1425 </r>
       <r>    -5.0559     1.4793     4.3214 </r>
       <r>    -4.9350     1.0897     4.4531 </r>
       <r>    -4.8141     1.5911     4.6455 </r>
       <r>    -4.6932     1.5872     4.8374 </r>
       <r>    -4.5723     1.7343     5.0470 </r>
       <r>    -4.4514     1.1919     5.1911 </r>
       <r>    -4.3305     1.4178     5.3625 </r>
       <r>    -4.2096     1.4792     5.5414 </r>
       <r>    -4.0887     2.0274     5.7865 </r>
       <r>    -3.9678     0.6952     5.8705 </r>
       <r>    -3.8469     1.3457     6.0332 </r>
       <r>    -3.7260     0.9112     6.1434 </r>
       <r>    -3.6051     1.2766     6.2977 </r>
       <r>    -3.4842     1.7216     6.5059 </r>
       <r>    -3.3633     1.0549     6.6334 </r>
       <r>    -3.2424     0.7146     6.7198 </r>
       <r>    -3.1215     1.3607     6.8843 </r>
       <r>    -3.0006     0.9758     7.0023 </r>
       <r>    -2.8797     1.3344     7.1636 </r>
       <r>    -2.7588     0.7173     7.2503 </r>
       <r>    -2.6379     0.5835     7.3208 </r>
       <r>    -2.5171     0.7226     7.4082 </r>
       <r>    -2.3962     0.9821     7.5269 </r>
       <r>    -2.2753     1.2956     7.6836 </r>
       <r>    -2.1544     1.3260     7.8439 </r>
       <r>    -2.0335     1.4148     8.0149 </r>
       <r>    -1.9126     1.0256     8.1389 </r>
       <r>    -1.7917     0.6609     8.2188 </r>
       <r>    -1.6708     0.7331     8.3075 </r>
       <r>    -1.5499     1.1620     8.4479 </r>
       <r>    -1.4290     0.9113     8.5581 </r>
       <r>    -1.3081     0.9834     8.6770 </r>
       <r>    -1.1872     1.6840     8.8806 </r>
       <r>    -1.0663     1.9340     9.1144 </r>
       <r>    -0.9454     1.7169     9.3220 </r>
       <r>    -0.8245     2.5658     9.6322 </r>
       <r>    -0.7036     1.9414     9.8669 </r>
       <r>    -0.5827     2.4865    10.1675 </r>
       <r>    -0.4618     1.2337    10.3167 </r>
       <r>    -0.3409     2.2645    10.5904 </r>
       <r>    -0.2200     2.6071    10.9056 </r>
       <r>    -0.0991     2.3934    11.1950 </r>
       <r>     0.0218     1.3863    11.3626 </r>
       <r>     0.1427     1.3822    11.5297 </r>
       <r>     0.2636     0.9088    11.6396 </r>
       <r>     0.3845     1.1965    11.7842 </r>
       <r>     0.5054     1.3653    11.9493 </r>
       <r>     0.6263     1.1368    12.0867 </r>
       <r>     0.7472     1.1948    12.2312 </r>
       <r>     0.8681     1.6905    12.4356 </r>
       <r>     0.9890     1.2649    12.5885 </r>
       <r>     1.1099     0.7990    12.6851 </r>
       <r>     1.2308     0.9386    12.7985 </r>
       <r>     1.3517     1.4333    12.9718 </r>
       <r>     1.4726     0.8589    13.0757 </r>
       <r>     1.5935     0.8409    13.1773 </r>
       <r>     1.7144     1.8590    13.4021 </r>
       <r>     1.8353     1.3608    13.5666 </r>
       <r>     1.9562     2.5682    13.8771 </r>
       <r>     2.0771     1.3936    14.0456 </r>
       <r>     2.1980     2.2325    14.3155 </r>
       <r>     2.3188     2.1474    14.5751 </r>
       <r>     2.4397     2.9144    14.9274 </r>
       <r>     2.5606     1.6632    15.1285 </r>
       <r>     2.6815     1.5853    15.3202 </r>
       <r>     2.8024     1.5902    15.5124 </r>
       <r>     2.9233     1.8255    15.7331 </r>
       <r>     3.0442     3.2097    16.1211 </r>
       <r>     3.1651     2.9420    16.4768 </r>
       <r>     3.2860     1.2637    16.6296 </r>
       <r>     3.4069     1.6073    16.8239 </r>
       <r>     3.5278     2.2683    17.0982 </r>
       <r>     3.6487     2.5887    17.4111 </r>
       <r>     3.7696     2.8260    17.7528 </r>
       <r>     3.8905     2.1535    18.0131 </r>
       <r>     4.0114     2.3611    18.2986 </r>
       <r>     4.1323     1.8308    18.5199 </r>
       <r>     4.2532     2.9912    18.8815 </r>
       <r>     4.3741     3.8190    19.3433 </r>
       <r>     4.4950     2.7194    19.6720 </r>
       <r>     4.6159     2.9764    20.0319 </r>
       <r>     4.7368     3.0500    20.4006 </r>
       <r>     4.8577     2.6850    20.7252 </r>
       <r>     4.9786     2.8992    21.0757 </r>
       <r>     5.0995     4.3621    21.6031 </r>
       <r>     5.2204     3.9466    22.0802 </r>
       <r>     5.3413     2.2532    22.3526 </r>
       <r>     5.4622     1.7945    22.5696 </r>
       <r>     5.5831     2.9413    22.9252 </r>
       <r>     5.7040     3.6158    23.3623 </r>
       <r>     5.8249     4.2327    23.8740 </r>
       <r>     5.9458     2.0927    24.1270 </r>
       <r>     6.0667     2.4288    24.4207 </r>
       <r>     6.1876     3.0585    24.7904 </r>
       <r>     6.3085     2.8748    25.1380 </r>
       <r>     6.4294     2.6921    25.4635 </r>
       <r>     6.5503     3.3967    25.8741 </r>
       <r>     6.6712     2.4257    26.1674 </r>
       <r>     6.7921     2.2502    26.4394 </r>
       <r>     6.9130     2.9348    26.7942 </r>
       <r>     7.0339     3.5522    27.2237 </r>
       <r>     7.1548     2.2595    27.4968 </r>
       <r>     7.2756     2.3063    27.7757 </r>
       <r>     7.3965     2.5464    28.0835 </r>
       <r>     7.5174     2.2147    28.3513 </r>
       <r>     7.6383     3.5991    28.7864 </r>
       <r>     7.7592     2.8991    29.1369 </r>
       <r>     7.8801     1.5982    29.3301 </r>
       <r>     8.0010     1.7662    29.5436 </r>
       <r>     8.1219     2.4570    29.8407 </r>
       <r>     8.2428     2.0633    30.0901 </r>
       <r>     8.3637     1.9455    30.3253 </r>
       <r>     8.4846     1.0513    30.4524 </r>
       <r>     8.6055     0.8045    30.5497 </r>
       <r>     8.7264     1.5057    30.7317 </r>
       <r>     8.8473     1.6069    30.9260 </r>
       <r>     8.9682     1.1593    31.0662 </r>
       <r>     9.0891     0.8073    31.1638 </r>
       <r>     9.2100     0.7519    31.2547 </r>
       <r>     9.3309     0.7136    31.3409 </r>
       <r>     9.4518     1.2041    31.4865 </r>
       <r>     9.5727     0.7408    31.5761 </r>
       <r>     9.6936     0.4850    31.6347 </r>
       <r>     9.8145     0.6216    31.7098 </r>
       <r>     9.9354     0.4859    31.7686 </r>
       <r>    10.0563     0.5835    31.8391 </r>
       <r>    10.1772     0.3216    31.8780 </r>
       <r>    10.2981     0.5002    31.9385 </r>
       <r>    10.4190     0.1494    31.9566 </r>
       <r>    10.5399     0.2661    31.9887 </r>
       <r>    10.6608     0.0863    31.9992 </r>
       <r>    10.7817     0.0069    32.0000 </r>
       <r>    10.9026     0.0000    32.0000 </r>
       <r>    11.0235     0.0000    32.0000 </r>
       <r>    11.1444     0.0000    32.0000 </r>
       <r>    11.2653     0.0000    32.0000 </r>
       <r>    11.3862     0.0000    32.0000 </r>
       <r>    11.5071     0.0000    32.0000 </r>
       <r>    11.6280     0.0000    32.0000 </r>
       <r>    11.7489     0.0000    32.0000 </r>
       <r>    11.8698     0.0000    32.0000 </r>
       <r>    11.9907     0.0000    32.0000 </r>
       <r>    12.1115     0.0000    32.0000 </r>
       <r>    12.2324     0.0000    32.0000 </r>
       <r>    12.3533     0.0000    32.0000 </r>
       <r>    12.4742     0.0000    32.0000 </r>
       <r>    12.5951     0.0000    32.0000 </r>
       <r>    12.7160     0.0000    32.0000 </r>
       <r>    12.8369     0.0000    32.0000 </r>
       <r>    12.9578     0.0000    32.0000 </r>
       <r>    13.0787     0.0000    32.0000 </r>
       <r>    13.1996     0.0000    32.0000 </r>
       <r>    13.3205     0.0000    32.0000 </r>
       <r>    13.4414     0.0000    32.0000 </r>
       <r>    13.5623     0.0000    32.0000 </r>
       <r>    13.6832     0.0000    32.0000 </r>
       <r>    13.8041     0.0000    32.0000 </r>
       <r>    13.9250     0.0000    32.0000 </r>
       <r>    14.0459     0.0000    32.0000 </r>
       <r>    14.1668     0.0000    32.0000 </r>
       <r>    14.2877     0.0000    32.0000 </r>
       <r>    14.4086     0.0000    32.0000 </r>
       <r>    14.5295     0.0000    32.0000 </r>
       <r>    14.6504     0.0005    32.0001 </r>
       <r>    14.7713     0.0864    32.0105 </r>
       <r>    14.8922     0.1914    32.0336 </r>
       <r>    15.0131     0.3664    32.0779 </r>
       <r>    15.1340     0.3392    32.1190 </r>
       <r>    15.2549     0.4992    32.1793 </r>
       <r>    15.3758     1.0549    32.3068 </r>
       <r>    15.4967     0.8332    32.4076 </r>
       <r>    15.6176     0.8206    32.5068 </r>
       <r>    15.7385     0.7812    32.6012 </r>
       <r>    15.8594     1.0286    32.7256 </r>
       <r>    15.9803     1.8043    32.9437 </r>
       <r>    16.1012     1.7577    33.1562 </r>
       <r>    16.2221     1.6766    33.3589 </r>
       <r>    16.3430     1.5102    33.5415 </r>
       <r>    16.4639     1.6785    33.7444 </r>
       <r>    16.5848     1.6012    33.9380 </r>
       <r>    16.7057     1.5459    34.1249 </r>
       <r>    16.8266     2.4203    34.4175 </r>
       <r>    16.9474     2.3570    34.7025 </r>
       <r>    17.0683     2.4734    35.0015 </r>
       <r>    17.1892     2.1531    35.2618 </r>
       <r>    17.3101     1.5428    35.4483 </r>
       <r>    17.4310     2.4165    35.7405 </r>
       <r>    17.5519     2.9365    36.0955 </r>
       <r>    17.6728     2.5803    36.4074 </r>
       <r>    17.7937     2.0158    36.6511 </r>
       <r>    17.9146     2.2954    36.9286 </r>
       <r>    18.0355     2.8319    37.2710 </r>
       <r>    18.1564     3.3820    37.6799 </r>
       <r>    18.2773     3.7816    38.1371 </r>
       <r>    18.3982     3.6633    38.5800 </r>
       <r>    18.5191     3.4195    38.9934 </r>
       <r>    18.6400     3.1626    39.3757 </r>
       <r>    18.7609     3.2142    39.7643 </r>
       <r>    18.8818     4.0186    40.2502 </r>
       <r>    19.0027     4.2997    40.7700 </r>
       <r>    19.1236     4.3583    41.2969 </r>
       <r>    19.2445     5.2837    41.9357 </r>
       <r>    19.3654     4.9493    42.5340 </r>
       <r>    19.4863     3.3113    42.9344 </r>
       <r>    19.6072     3.1402    43.3140 </r>
       <r>    19.7281     3.1419    43.6938 </r>
       <r>    19.8490     2.4338    43.9881 </r>
       <r>    19.9699     2.2541    44.2606 </r>
       <r>    20.0908     2.5119    44.5643 </r>
       <r>    20.2117     3.5227    44.9902 </r>
       <r>    20.3326     3.3957    45.4007 </r>
       <r>    20.4535     2.6876    45.7256 </r>
       <r>    20.5744     2.8871    46.0747 </r>
       <r>    20.6953     2.5933    46.3882 </r>
       <r>    20.8162     2.2837    46.6643 </r>
       <r>    20.9371     1.8898    46.8928 </r>
       <r>    21.0580     1.2090    47.0389 </r>
       <r>    21.1789     1.5951    47.2318 </r>
       <r>    21.2998     1.8473    47.4551 </r>
       <r>    21.4207     1.4360    47.6287 </r>
       <r>    21.5416     1.3021    47.7861 </r>
       <r>    21.6625     0.6478    47.8645 </r>
       <r>    21.7834     0.4233    47.9156 </r>
       <r>    21.9042     0.3367    47.9563 </r>
       <r>    22.0251     0.0651    47.9642 </r>
       <r>    22.1460     0.0068    47.9650 </r>
       <r>    22.2669     0.0875    47.9756 </r>
       <r>    22.3878     0.1490    47.9936 </r>
       <r>    22.5087     0.0520    47.9999 </r>
       <r>    22.6296     0.0007    48.0000 </r>
       <r>    22.7505     0.0000    48.0000 </r>
       <r>    22.8714     0.0000    48.0000 </r>
       <r>    22.9923     0.0000    48.0000 </r>
       <r>    23.1132     0.0000    48.0000 </r>
       <r>    23.2341     0.0000    48.0000 </r>
       <r>    23.3550     0.0000    48.0000 </r>
       <r>    23.4759     0.0000    48.0000 </r>
       <r>    23.5968     0.0000    48.0000 </r>
       <r>    23.7177     0.0000    48.0000 </r>
       <r>    23.8386     0.0000    48.0000 </r>
       <r>    23.9595     0.0000    48.0000 </r>
       <r>    24.0804     0.0000    48.0000 </r>
      </set>
     </set>
    </array>
   </total>
  </dos>
 </calculation>
 <structure name="finalpos" >
  <crystal>
   <varray name="basis" >
    <v>       3.59742910       0.00000000       0.00000000 </v>
    <v>       0.00000000       3.59742910       0.00000000 </v>
    <v>       0.00000000       0.00000000       3.57360507 </v>
   </varray>
   <i name="volume">     46.24779632 </i>
   <varray name="rec_basis" >
    <v>       0.27797629       0.00000000       0.00000000 </v>
    <v>       0.00000000       0.27797629       0.00000000 </v>
    <v>       0.00000000       0.00000000       0.27982947 </v>
   </varray>
  </crystal>
  <varray name="positions" >
   <v>       0.25000000       0.25000000       0.25000000 </v>
   <v>       0.00000000       0.00000000       0.00000000 </v>
   <v>       0.25000000       0.75000000       0.75000000 </v>
   <v>       0.00000000       0.50000000       0.50000000 </v>
   <v>       0.75000000       0.25000000       0.75000000 </v>
   <v>       0.50000000       0.00000000       0.50000000 </v>
   <v>       0.75000000       0.75000000       0.25000000 </v>
   <v>       0.50000000       0.50000000       0.00000000 </v>
  </varray>
 </structure>
</modeling>
