   2   2   0   0
  0.7989630E+02  0.2464857E-09  0.2471982E-09  0.3028239E-08  0.5000000E-15
  1.000000000000000E-004
  CAR 
 unknown system                          
     18.55864885    -24.59823291  301     -3.57723509      1.00000000
    -24.598  0.0000E+00  0.0000E+00
    -24.454  0.0000E+00  0.0000E+00
    -24.311  0.0000E+00  0.0000E+00
    -24.167  0.0000E+00  0.0000E+00
    -24.023  0.0000E+00  0.0000E+00
    -23.879  0.0000E+00  0.0000E+00
    -23.735  0.0000E+00  0.0000E+00
    -23.591  0.0000E+00  0.0000E+00
    -23.447  0.0000E+00  0.0000E+00
    -23.304  0.0000E+00  0.0000E+00
    -23.160  0.0000E+00  0.0000E+00
    -23.016  0.0000E+00  0.0000E+00
    -22.872  0.2677E-13  0.3851E-14
    -22.728  0.9286E-05  0.1336E-05
    -22.584  0.2178E-02  0.3146E-03
    -22.440  0.1994E-02  0.6014E-03
    -22.297  0.4776E-02  0.1288E-02
    -22.153  0.2375E-02  0.1630E-02
    -22.009  0.2190E-02  0.1945E-02
    -21.865  0.3742E-02  0.2484E-02
    -21.721  0.4047E-02  0.3066E-02
    -21.577  0.2846E-02  0.3475E-02
    -21.433  0.2206E-02  0.3793E-02
    -21.290  0.2603E-02  0.4167E-02
    -21.146  0.3403E-02  0.4657E-02
    -21.002  0.4424E-02  0.5293E-02
    -20.858  0.3696E-02  0.5825E-02
    -20.714  0.1798E-02  0.6083E-02
    -20.570  0.4055E-02  0.6666E-02
    -20.426  0.3256E-03  0.6713E-02
    -20.283  0.3676E-02  0.7242E-02
    -20.139  0.5668E-02  0.8057E-02
    -19.995  0.3304E-02  0.8533E-02
    -19.851  0.2484E-02  0.8890E-02
    -19.707  0.3574E-02  0.9404E-02
    -19.563  0.2518E-02  0.9766E-02
    -19.419  0.4815E-02  0.1046E-01
    -19.276  0.6715E-03  0.1056E-01
    -19.132  0.1039E-03  0.1057E-01
    -18.988  0.8572E-02  0.1180E-01
    -18.844  0.3958E-02  0.1237E-01
    -18.700  0.2817E-02  0.1278E-01
    -18.556  0.3315E-02  0.1326E-01
    -18.412  0.9635E-03  0.1339E-01
    -18.269  0.6508E-02  0.1433E-01
    -18.125  0.1230E-02  0.1451E-01
    -17.981  0.3838E-02  0.1506E-01
    -17.837  0.1521E-02  0.1528E-01
    -17.693  0.2870E-02  0.1569E-01
    -17.549  0.8823E-02  0.1696E-01
    -17.405  0.4876E-02  0.1766E-01
    -17.262  0.4645E-02  0.1833E-01
    -17.118  0.2685E-04  0.1833E-01
    -16.974  0.2771E-02  0.1873E-01
    -16.830  0.3017E-02  0.1917E-01
    -16.686  0.2360E-05  0.1917E-01
    -16.542  0.3166E-03  0.1921E-01
    -16.398  0.1936E-02  0.1949E-01
    -16.255  0.5403E-02  0.2027E-01
    -16.111  0.3908E-02  0.2083E-01
    -15.967  0.3218E-02  0.2129E-01
    -15.823  0.2011E-02  0.2158E-01
    -15.679  0.1300E-02  0.2177E-01
    -15.535  0.5200E-02  0.2252E-01
    -15.391  0.6505E-02  0.2345E-01
    -15.248  0.5169E-02  0.2420E-01
    -15.104  0.3591E-02  0.2471E-01
    -14.960  0.9840E-04  0.2473E-01
    -14.816  0.7150E-02  0.2576E-01
    -14.672  0.2467E-02  0.2611E-01
    -14.528  0.7980E-06  0.2611E-01
    -14.384  0.3776E-02  0.2665E-01
    -14.241  0.5290E-02  0.2742E-01
    -14.097  0.2559E-02  0.2778E-01
    -13.953  0.3572E-02  0.2830E-01
    -13.809  0.2143E-02  0.2861E-01
    -13.665  0.7327E-03  0.2871E-01
    -13.521  0.3354E-02  0.2919E-01
    -13.377  0.4187E-02  0.2980E-01
    -13.234  0.4879E-02  0.3050E-01
    -13.090  0.7999E-02  0.3165E-01
    -12.946  0.4336E-03  0.3171E-01
    -12.802  0.2053E-02  0.3201E-01
    -12.658  0.3525E-02  0.3251E-01
    -12.514  0.3704E-02  0.3305E-01
    -12.370  0.1717E-02  0.3329E-01
    -12.227  0.4125E-02  0.3389E-01
    -12.083  0.8342E-02  0.3509E-01
    -11.939  0.3255E-02  0.3555E-01
    -11.795  0.3637E-02  0.3608E-01
    -11.651  0.5941E-02  0.3693E-01
    -11.507  0.2921E-03  0.3697E-01
    -11.363  0.5635E-02  0.3779E-01
    -11.220  0.3158E-02  0.3824E-01
    -11.076  0.6417E-02  0.3916E-01
    -10.932  0.4015E-02  0.3974E-01
    -10.788  0.1935E-02  0.4002E-01
    -10.644  0.8063E-02  0.4118E-01
    -10.500  0.7622E-02  0.4228E-01
    -10.356  0.7687E-02  0.4338E-01
    -10.213  0.7111E-02  0.4440E-01
    -10.069  0.1399E-01  0.4642E-01
     -9.925  0.5161E-02  0.4716E-01
     -9.781  0.9355E-02  0.4850E-01
     -9.637  0.8620E-02  0.4975E-01
     -9.493  0.1082E-01  0.5130E-01
     -9.349  0.1209E-01  0.5304E-01
     -9.206  0.8587E-02  0.5428E-01
     -9.062  0.2634E-02  0.5465E-01
     -8.918  0.1187E-01  0.5636E-01
     -8.774  0.6510E-02  0.5730E-01
     -8.630  0.1216E-01  0.5905E-01
     -8.486  0.5325E-02  0.5981E-01
     -8.342  0.5821E-02  0.6065E-01
     -8.199  0.1794E-02  0.6091E-01
     -8.055  0.9889E-02  0.6233E-01
     -7.911  0.2645E-02  0.6271E-01
     -7.767  0.8671E-02  0.6396E-01
     -7.623  0.1070E-01  0.6550E-01
     -7.479  0.2380E-02  0.6584E-01
     -7.335  0.4573E-02  0.6650E-01
     -7.192  0.8571E-02  0.6773E-01
     -7.048  0.5620E-02  0.6854E-01
     -6.904  0.2185E-02  0.6886E-01
     -6.760  0.4314E-02  0.6948E-01
     -6.616  0.6690E-02  0.7044E-01
     -6.472  0.8118E-02  0.7161E-01
     -6.328  0.6971E-02  0.7261E-01
     -6.185  0.4629E-02  0.7327E-01
     -6.041  0.1283E-02  0.7346E-01
     -5.897  0.4232E-02  0.7407E-01
     -5.753  0.5113E-02  0.7480E-01
     -5.609  0.3653E-02  0.7533E-01
     -5.465  0.3472E-02  0.7583E-01
     -5.321  0.2122E-02  0.7613E-01
     -5.178  0.1110E-01  0.7773E-01
     -5.034  0.4187E-02  0.7833E-01
     -4.890  0.2413E-06  0.7833E-01
     -4.746  0.1333E-03  0.7835E-01
     -4.602  0.3624E-02  0.7887E-01
     -4.458  0.1333E-02  0.7907E-01
     -4.314  0.7030E-03  0.7917E-01
     -4.171  0.1428E-02  0.7937E-01
     -4.027  0.5019E-03  0.7944E-01
     -3.883  0.6729E-03  0.7954E-01
     -3.739  0.3176E-02  0.8000E-01
     -3.595  0.1261E-04  0.8000E-01
     -3.451  0.5095E-13  0.8000E-01
     -3.308  0.0000E+00  0.8000E-01
     -3.164  0.0000E+00  0.8000E-01
     -3.020  0.0000E+00  0.8000E-01
     -2.876  0.0000E+00  0.8000E-01
     -2.732  0.6926E-11  0.8000E-01
     -2.588  0.9428E-04  0.8001E-01
     -2.444  0.3634E-02  0.8054E-01
     -2.301  0.1610E-03  0.8056E-01
     -2.157  0.1845E-02  0.8083E-01
     -2.013  0.5808E-04  0.8083E-01
     -1.869  0.2031E-02  0.8113E-01
     -1.725  0.3758E-02  0.8167E-01
     -1.581  0.3319E-03  0.8171E-01
     -1.437  0.7408E-02  0.8278E-01
     -1.294  0.6513E-02  0.8372E-01
     -1.150  0.7187E-02  0.8475E-01
     -1.006  0.1906E-02  0.8502E-01
     -0.862  0.4811E-02  0.8572E-01
     -0.718  0.2741E-02  0.8611E-01
     -0.574  0.2248E-05  0.8611E-01
     -0.430  0.5219E-02  0.8686E-01
     -0.287  0.2504E-02  0.8722E-01
     -0.143  0.3800E-04  0.8723E-01
      0.001  0.3779E-02  0.8777E-01
      0.145  0.4644E-02  0.8844E-01
      0.289  0.5559E-02  0.8924E-01
      0.433  0.2882E-02  0.8965E-01
      0.577  0.7134E-02  0.9068E-01
      0.720  0.3007E-02  0.9111E-01
      0.864  0.3622E-02  0.9163E-01
      1.008  0.6246E-02  0.9253E-01
      1.152  0.7262E-02  0.9358E-01
      1.296  0.1243E-01  0.9536E-01
      1.440  0.6264E-02  0.9627E-01
      1.584  0.1103E-01  0.9785E-01
      1.727  0.1123E-01  0.9947E-01
      1.871  0.1296E-01  0.1013E+00
      2.015  0.1129E-01  0.1030E+00
      2.159  0.1458E-01  0.1051E+00
      2.303  0.2109E-01  0.1081E+00
      2.447  0.1197E-01  0.1098E+00
      2.591  0.1317E-01  0.1117E+00
      2.734  0.1650E-01  0.1141E+00
      2.878  0.1832E-01  0.1167E+00
      3.022  0.1676E-01  0.1191E+00
      3.166  0.1498E-01  0.1213E+00
      3.310  0.1784E-01  0.1238E+00
      3.454  0.1356E-01  0.1258E+00
      3.598  0.2284E-01  0.1291E+00
      3.741  0.2134E-01  0.1322E+00
      3.885  0.2209E-01  0.1353E+00
      4.029  0.1800E-01  0.1379E+00
      4.173  0.2090E-01  0.1409E+00
      4.317  0.2609E-01  0.1447E+00
      4.461  0.2858E-01  0.1488E+00
      4.605  0.2488E-01  0.1524E+00
      4.748  0.3282E-01  0.1571E+00
      4.892  0.1707E-01  0.1595E+00
      5.036  0.3644E-01  0.1648E+00
      5.180  0.3103E-01  0.1693E+00
      5.324  0.4551E-01  0.1758E+00
      5.468  0.2079E-01  0.1788E+00
      5.612  0.2983E-01  0.1831E+00
      5.755  0.2992E-01  0.1874E+00
      5.899  0.3679E-01  0.1927E+00
      6.043  0.3537E-01  0.1978E+00
      6.187  0.2762E-01  0.2017E+00
      6.331  0.4302E-01  0.2079E+00
      6.475  0.1415E-01  0.2100E+00
      6.619  0.2754E-01  0.2139E+00
      6.762  0.3703E-01  0.2193E+00
      6.906  0.2672E-01  0.2231E+00
      7.050  0.3073E-01  0.2275E+00
      7.194  0.2813E-01  0.2316E+00
      7.338  0.3297E-01  0.2363E+00
      7.482  0.3870E-01  0.2419E+00
      7.626  0.3184E-01  0.2465E+00
      7.769  0.4407E-01  0.2528E+00
      7.913  0.3075E-01  0.2572E+00
      8.057  0.4015E-01  0.2630E+00
      8.201  0.2628E-01  0.2668E+00
      8.345  0.4074E-01  0.2726E+00
      8.489  0.2508E-01  0.2762E+00
      8.633  0.2719E-01  0.2802E+00
      8.776  0.3381E-01  0.2850E+00
      8.920  0.3405E-01  0.2899E+00
      9.064  0.4069E-01  0.2958E+00
      9.208  0.4790E-01  0.3027E+00
      9.352  0.3209E-01  0.3073E+00
      9.496  0.3290E-01  0.3120E+00
      9.640  0.2618E-01  0.3158E+00
      9.783  0.5102E-01  0.3231E+00
      9.927  0.3121E-01  0.3276E+00
     10.071  0.4793E-01  0.3345E+00
     10.215  0.4354E-01  0.3408E+00
     10.359  0.3863E-01  0.3463E+00
     10.503  0.3327E-01  0.3511E+00
     10.647  0.2937E-01  0.3553E+00
     10.790  0.3840E-01  0.3609E+00
     10.934  0.3457E-01  0.3658E+00
     11.078  0.5797E-01  0.3742E+00
     11.222  0.4242E-01  0.3803E+00
     11.366  0.3432E-01  0.3852E+00
     11.510  0.3650E-01  0.3905E+00
     11.654  0.3741E-01  0.3958E+00
     11.797  0.2805E-01  0.3999E+00
     11.941  0.3297E-01  0.4046E+00
     12.085  0.4424E-01  0.4110E+00
     12.229  0.3419E-01  0.4159E+00
     12.373  0.3102E-01  0.4204E+00
     12.517  0.4153E-01  0.4263E+00
     12.661  0.5023E-01  0.4336E+00
     12.804  0.2724E-01  0.4375E+00
     12.948  0.3393E-01  0.4424E+00
     13.092  0.3134E-01  0.4469E+00
     13.236  0.1958E-01  0.4497E+00
     13.380  0.3668E-01  0.4550E+00
     13.524  0.1656E-01  0.4574E+00
     13.668  0.2527E-01  0.4610E+00
     13.811  0.2426E-01  0.4645E+00
     13.955  0.2458E-01  0.4680E+00
     14.099  0.2322E-01  0.4714E+00
     14.243  0.1404E-01  0.4734E+00
     14.387  0.1374E-01  0.4753E+00
     14.531  0.3534E-02  0.4759E+00
     14.675  0.8099E-02  0.4770E+00
     14.818  0.3047E-02  0.4775E+00
     14.962  0.4345E-02  0.4781E+00
     15.106  0.4056E-02  0.4787E+00
     15.250  0.3398E-02  0.4792E+00
     15.394  0.1882E-02  0.4794E+00
     15.538  0.1331E-03  0.4794E+00
     15.682  0.1821E-02  0.4797E+00
     15.825  0.9527E-04  0.4797E+00
     15.969  0.1028E-10  0.4797E+00
     16.113  0.0000E+00  0.4797E+00
     16.257  0.0000E+00  0.4797E+00
     16.401  0.2782E-10  0.4797E+00
     16.545  0.1342E-03  0.4797E+00
     16.689  0.1787E-02  0.4800E+00
     16.832  0.9286E-05  0.4800E+00
     16.976  0.2677E-13  0.4800E+00
     17.120  0.0000E+00  0.4800E+00
     17.264  0.0000E+00  0.4800E+00
     17.408  0.0000E+00  0.4800E+00
     17.552  0.0000E+00  0.4800E+00
     17.696  0.0000E+00  0.4800E+00
     17.839  0.0000E+00  0.4800E+00
     17.983  0.0000E+00  0.4800E+00
     18.127  0.0000E+00  0.4800E+00
     18.271  0.0000E+00  0.4800E+00
     18.415  0.0000E+00  0.4800E+00
     18.559  0.0000E+00  0.4800E+00
