 vasp.5.4.4.18Apr17-6-g9f103f2a35 (build Jan 14 2019 14:48:31) complex          
  
 executed on             LinuxIFC date 2019.09.10  15:54:32
 running on   24 total cores
 distrk:  each k-point on   24 cores,    1 groups
 distr:  one band on NCORES_PER_BAND=   1 cores,   24 groups


--------------------------------------------------------------------------------------------------------


 INCAR:
 POTCAR:    PAW_PBE C_h 06Feb2004                 

 ----------------------------------------------------------------------------- 
|                                                                             |
|           W    W    AA    RRRRR   N    N  II  N    N   GGGG   !!!           |
|           W    W   A  A   R    R  NN   N  II  NN   N  G    G  !!!           |
|           W    W  A    A  R    R  N N  N  II  N N  N  G       !!!           |
|           W WW W  AAAAAA  RRRRR   N  N N  II  N  N N  G  GGG   !            |
|           WW  WW  A    A  R   R   N   NN  II  N   NN  G    G                |
|           W    W  A    A  R    R  N    N  II  N    N   GGGG   !!!           |
|                                                                             |
|      For optimal performance we recommend to set                            |
|        NCORE= 4 - approx SQRT( number of cores)                             |
|      NCORE specifies how many cores store one orbital (NPAR=cpu/NCORE).     |
|      This setting can  greatly improve the performance of VASP for DFT.     |
|      The default,   NCORE=1            might be grossly inefficient         |
|      on modern multi-core architectures or massively parallel machines.     |
|      Do your own testing !!!!                                               |
|      Unfortunately you need to use the default for GW and RPA calculations. |
|      (for HF NCORE is supported but not extensively tested yet)             |
|                                                                             |
 ----------------------------------------------------------------------------- 

 POTCAR:    PAW_PBE C_h 06Feb2004                 
   VRHFIN =C: s2p2                                                              
   LEXCH  = PE                                                                  
   EATOM  =   147.1560 eV,   10.8157 Ry                                         
                                                                                
   TITEL  = PAW_PBE C_h 06Feb2004                                               
   LULTRA =        F    use ultrasoft PP ?                                      
   IUNSCR =        1    unscreen: 0-lin 1-nonlin 2-no                           
   RPACOR =    0.800    partial core radius                                     
   POMASS =   12.011; ZVAL   =    4.000    mass and valenz                      
   RCORE  =    1.100    outmost cutoff radius                                   
   RWIGS  =    1.630; RWIGS  =    0.863    wigner-seitz radius (au A)           
   ENMAX  =  700.000; ENMIN  =  500.000 eV                                      
   ICORE  =        2    local potential                                         
   LCOR   =        T    correct aug charges                                     
   LPAW   =        T    paw PP                                                  
   EAUG   =  946.768                                                            
   DEXC   =    0.000                                                            
   RMAX   =    1.128    core radius for proj-oper                               
   RAUG   =    1.300    factor for augmentation sphere                          
   RDEP   =    1.162    radius for radial grids                                 
   RDEPT  =    1.088    core radius for aug-charge                              
                                                                                
   Atomic configuration                                                         
    4 entries                                                                   
     n  l   j            E        occ.                                          
     1  0  0.50      -273.3789   2.0000                                         
     2  0  0.50       -13.7508   2.0000                                         
     2  1  0.50        -5.2854   2.0000                                         
     3  2  1.50        -5.4423   0.0000                                         
   Description                                                                  
     l       E           TYP  RCUT    TYP  RCUT                                 
     0    -13.7508458     23  1.100                                             
     0     -8.2022199     23  1.100                                             
     1     -5.2854383     23  1.100                                             
     1      1.1560700     23  1.100                                             
     2     -5.4423304      7  1.100                                             
  local pseudopotential read in
  partial core-charges read in
  partial kinetic energy density read in
  atomic valenz-charges read in
  non local Contribution for L=           0  read in
    real space projection operators read in
  non local Contribution for L=           0  read in
    real space projection operators read in
  non local Contribution for L=           1  read in
    real space projection operators read in
  non local Contribution for L=           1  read in
    real space projection operators read in
    PAW grid and wavefunctions read in
 
   number of l-projection  operators is LMAX  =           4
   number of lm-projection operators is LMMAX =           8
 
  PAW_PBE C_h 06Feb2004                 :
 energy of atom  1       EATOM= -147.1560
 kinetic energy error for atom=    0.0044 (will be added to EATOM!!)
 
 
 POSCAR: graphene                                
  positions in direct lattice
  velocities in cartesian coordinates
 exchange correlation table for  LEXCH =        8
   RHO(1)=    0.500       N(1)  =     2000
   RHO(2)=  100.500       N(2)  =     4000

 VTST: version 3.1, (03/28/14)

 CHAIN: initializing optimizer
 
 OPT: Using VASP Conjugate-Gradient optimizer
 CHAIN: Read ICHAIN            0
 
 POSCAR: graphene                                
  positions in direct lattice
  velocities in cartesian coordinates
 


--------------------------------------------------------------------------------------------------------


 ion  position               nearest neighbor table
   1  0.000  1.000  0.500-   2 1.42   2 1.43   2 1.43
   2  0.667  0.333  0.500-   1 1.42   1 1.43   1 1.43
 
  LATTYP: Found a simple monoclinic cell.
 ALAT       =     4.2692512863
 B/A-ratio  =     7.0931392208
 C/A-ratio  =     1.5272100057
 COS(beta)  =    -0.9818676593
  
  Lattice vectors:
  
 A1 = (  -3.6990578779,   2.1315434224,   0.0000000000)
 A2 = (   0.0000000000,   0.0000000000, -30.2823937426)
 A3 = (   4.9297019323,  -4.2672008679,   0.0000000000)


Analysis of symmetry for initial positions (statically):
=====================================================================
 Subroutine PRICEL returns:
 Original cell was already a primitive cell.
 

 Routine SETGRP: Setting up the symmetry group for a 
 simple monoclinic supercell.


 Subroutine GETGRP returns: Found  4 space group operations
 (whereof  2 operations were pure point group operations)
 out of a pool of  4 trial point group operations.


The static configuration has the point symmetry C_1h.
 The point group associated with its full space group is C_2h.


Analysis of symmetry for dynamics (positions and initial velocities):
=====================================================================
 Subroutine PRICEL returns:
 Original cell was already a primitive cell.
 

 Routine SETGRP: Setting up the symmetry group for a 
 simple monoclinic supercell.


 Subroutine GETGRP returns: Found  4 space group operations
 (whereof  2 operations were pure point group operations)
 out of a pool of  4 trial point group operations.


The dynamic configuration has the point symmetry C_1h.
 The point group associated with its full space group is C_2h.


 Subroutine INISYM returns: Found  4 space group operations
 (whereof  2 operations are pure point group operations),
 and found     1 'primitive' translations

 
 
 KPOINTS: K-Mesh Generated with KP-Resolved Value 

Automatic generation of k-mesh.
Space group operators:
 irot       det(A)        alpha          n_x          n_y          n_z        tau_x        tau_y        tau_z
    1     1.000000     0.000001     1.000000     0.000000     0.000000     0.000000     0.000000     0.000000
    2    -1.000000   179.999999     0.000000     0.000000     1.000000     0.000000     0.000000     0.000000
    3    -1.000000     0.000001     1.000000     0.000000     0.000000    -1.333330    -0.666670     0.000000
    4     1.000000   179.999999     0.000000     0.000000     1.000000    -1.333330    -0.666670     0.000000
 
 Subroutine IBZKPT returns following result:
 ===========================================
 
 Found     72 irreducible k-points:
 
 Following reciprocal coordinates:
            Coordinates               Weight
  0.041667  0.041667  0.000000      2.000000
  0.125000  0.041667  0.000000      2.000000
  0.208333  0.041667  0.000000      2.000000
  0.291667  0.041667  0.000000      2.000000
  0.375000  0.041667  0.000000      2.000000
  0.458333  0.041667  0.000000      2.000000
 -0.458333  0.041667  0.000000      2.000000
 -0.375000  0.041667  0.000000      2.000000
 -0.291667  0.041667  0.000000      2.000000
 -0.208333  0.041667  0.000000      2.000000
 -0.125000  0.041667  0.000000      2.000000
 -0.041667  0.041667  0.000000      2.000000
  0.041667  0.125000  0.000000      2.000000
  0.125000  0.125000  0.000000      2.000000
  0.208333  0.125000  0.000000      2.000000
  0.291667  0.125000  0.000000      2.000000
  0.375000  0.125000  0.000000      2.000000
  0.458333  0.125000  0.000000      2.000000
 -0.458333  0.125000  0.000000      2.000000
 -0.375000  0.125000  0.000000      2.000000
 -0.291667  0.125000  0.000000      2.000000
 -0.208333  0.125000  0.000000      2.000000
 -0.125000  0.125000  0.000000      2.000000
 -0.041667  0.125000  0.000000      2.000000
  0.041667  0.208333  0.000000      2.000000
  0.125000  0.208333  0.000000      2.000000
  0.208333  0.208333  0.000000      2.000000
  0.291667  0.208333  0.000000      2.000000
  0.375000  0.208333  0.000000      2.000000
  0.458333  0.208333  0.000000      2.000000
 -0.458333  0.208333  0.000000      2.000000
 -0.375000  0.208333  0.000000      2.000000
 -0.291667  0.208333  0.000000      2.000000
 -0.208333  0.208333  0.000000      2.000000
 -0.125000  0.208333  0.000000      2.000000
 -0.041667  0.208333  0.000000      2.000000
  0.041667  0.291667  0.000000      2.000000
  0.125000  0.291667  0.000000      2.000000
  0.208333  0.291667  0.000000      2.000000
  0.291667  0.291667  0.000000      2.000000
  0.375000  0.291667  0.000000      2.000000
  0.458333  0.291667  0.000000      2.000000
 -0.458333  0.291667  0.000000      2.000000
 -0.375000  0.291667  0.000000      2.000000
 -0.291667  0.291667  0.000000      2.000000
 -0.208333  0.291667  0.000000      2.000000
 -0.125000  0.291667  0.000000      2.000000
 -0.041667  0.291667  0.000000      2.000000
  0.041667  0.375000  0.000000      2.000000
  0.125000  0.375000  0.000000      2.000000
  0.208333  0.375000  0.000000      2.000000
  0.291667  0.375000  0.000000      2.000000
  0.375000  0.375000  0.000000      2.000000
  0.458333  0.375000  0.000000      2.000000
 -0.458333  0.375000  0.000000      2.000000
 -0.375000  0.375000  0.000000      2.000000
 -0.291667  0.375000  0.000000      2.000000
 -0.208333  0.375000  0.000000      2.000000
 -0.125000  0.375000  0.000000      2.000000
 -0.041667  0.375000  0.000000      2.000000
  0.041667  0.458333  0.000000      2.000000
  0.125000  0.458333  0.000000      2.000000
  0.208333  0.458333  0.000000      2.000000
  0.291667  0.458333  0.000000      2.000000
  0.375000  0.458333  0.000000      2.000000
  0.458333  0.458333  0.000000      2.000000
 -0.458333  0.458333  0.000000      2.000000
 -0.375000  0.458333  0.000000      2.000000
 -0.291667  0.458333  0.000000      2.000000
 -0.208333  0.458333  0.000000      2.000000
 -0.125000  0.458333  0.000000      2.000000
 -0.041667  0.458333  0.000000      2.000000
 
 Following cartesian coordinates:
            Coordinates               Weight
  0.083050 -0.000138  0.000000      2.000000
  0.166179 -0.048225  0.000000      2.000000
  0.249308 -0.096312  0.000000      2.000000
  0.332438 -0.144399  0.000000      2.000000
  0.415567 -0.192486  0.000000      2.000000
  0.498697 -0.240573  0.000000      2.000000
 -0.415727  0.288383  0.000000      2.000000
 -0.332598  0.240296  0.000000      2.000000
 -0.249468  0.192209  0.000000      2.000000
 -0.166339  0.144122  0.000000      2.000000
 -0.083209  0.096035  0.000000      2.000000
 -0.000080  0.047949  0.000000      2.000000
  0.166019  0.047672  0.000000      2.000000
  0.249149 -0.000415  0.000000      2.000000
  0.332278 -0.048502  0.000000      2.000000
  0.415407 -0.096589  0.000000      2.000000
  0.498537 -0.144676  0.000000      2.000000
  0.581666 -0.192763  0.000000      2.000000
 -0.332757  0.336193  0.000000      2.000000
 -0.249628  0.288106  0.000000      2.000000
 -0.166499  0.240020  0.000000      2.000000
 -0.083369  0.191933  0.000000      2.000000
 -0.000240  0.143846  0.000000      2.000000
  0.082890  0.095759  0.000000      2.000000
  0.248989  0.095482  0.000000      2.000000
  0.332118  0.047395  0.000000      2.000000
  0.415248 -0.000692  0.000000      2.000000
  0.498377 -0.048779  0.000000      2.000000
  0.581506 -0.096866  0.000000      2.000000
  0.664636 -0.144953  0.000000      2.000000
 -0.249788  0.384004  0.000000      2.000000
 -0.166658  0.335917  0.000000      2.000000
 -0.083529  0.287830  0.000000      2.000000
 -0.000400  0.239743  0.000000      2.000000
  0.082730  0.191656  0.000000      2.000000
  0.165859  0.143569  0.000000      2.000000
  0.331958  0.143292  0.000000      2.000000
  0.415088  0.095205  0.000000      2.000000
  0.498217  0.047118  0.000000      2.000000
  0.581347 -0.000969  0.000000      2.000000
  0.664476 -0.049056  0.000000      2.000000
  0.747605 -0.097143  0.000000      2.000000
 -0.166818  0.431814  0.000000      2.000000
 -0.083689  0.383727  0.000000      2.000000
 -0.000559  0.335640  0.000000      2.000000
  0.082570  0.287553  0.000000      2.000000
  0.165699  0.239466  0.000000      2.000000
  0.248829  0.191379  0.000000      2.000000
  0.414928  0.191102  0.000000      2.000000
  0.498057  0.143015  0.000000      2.000000
  0.581187  0.094928  0.000000      2.000000
  0.664316  0.046841  0.000000      2.000000
  0.747446 -0.001246  0.000000      2.000000
  0.830575 -0.049333  0.000000      2.000000
 -0.083849  0.479624  0.000000      2.000000
 -0.000719  0.431537  0.000000      2.000000
  0.082410  0.383450  0.000000      2.000000
  0.165540  0.335363  0.000000      2.000000
  0.248669  0.287276  0.000000      2.000000
  0.331798  0.239189  0.000000      2.000000
  0.497898  0.238912  0.000000      2.000000
  0.581027  0.190825  0.000000      2.000000
  0.664156  0.142738  0.000000      2.000000
  0.747286  0.094651  0.000000      2.000000
  0.830415  0.046564  0.000000      2.000000
  0.913545 -0.001523  0.000000      2.000000
 -0.000879  0.527434  0.000000      2.000000
  0.082250  0.479347  0.000000      2.000000
  0.165380  0.431260  0.000000      2.000000
  0.248509  0.383173  0.000000      2.000000
  0.331639  0.335086  0.000000      2.000000
  0.414768  0.286999  0.000000      2.000000
 


--------------------------------------------------------------------------------------------------------




 Dimension of arrays:
   k-points           NKPTS =     72   k-points in BZ     NKDIM =     72   number of bands    NBANDS=     24
   number of dos      NEDOS =    301   number of ions     NIONS =      2
   non local maximal  LDIM  =      4   non local SUM 2l+1 LMDIM =      8
   total plane-waves  NPLWV = 169344
   max r-space proj   IRMAX =      1   max aug-charges    IRDMAX=   2710
   dimension x,y,z NGX =    24 NGY =   24 NGZ =  294
   dimension x,y,z NGXF=    32 NGYF=   36 NGZF=  420
   support grid    NGXF=    32 NGYF=   36 NGZF=  420
   ions per type =               2
   NGX,Y,Z   is equivalent  to a cutoff of  16.19, 16.14, 16.14 a.u.
   NGXF,Y,Z  is equivalent  to a cutoff of  21.58, 24.21, 23.06 a.u.

 SYSTEM =  unknown system                          
 POSCAR =  graphene                                

 Startparameter for this run:
   NWRITE =      2    write-flag & timer
   PREC   = high      normal or accurate (medium, high low for compatibility)
   ISTART =      0    job   : 0-new  1-cont  2-samecut
   ICHARG =      2    charge: 1-file 2-atom 10-const
   ISPIN  =      1    spin polarized calculation?
   LNONCOLLINEAR =      F non collinear calculations
   LSORBIT =      F    spin-orbit coupling
   INIWAV =      1    electr: 0-lowe 1-rand  2-diag
   LASPH  =      F    aspherical Exc in radial PAW
   METAGGA=      F    non-selfconsistent MetaGGA calc.

 Electronic Relaxation 1
   ENCUT  =  875.0 eV  64.31 Ry    8.02 a.u.   5.95  5.96 73.04*2*pi/ulx,y,z
   ENINI  =  875.0     initial cutoff
   ENAUG  =  946.8 eV  augmentation charge cutoff
   NELM   =     40;   NELMIN=  2; NELMDL=  0     # of ELM steps 
   EDIFF  = 0.1E-06   stopping-criterion for ELM
   LREAL  =      F    real-space projection
   NLSPLINE    = F    spline interpolate recip. space projectors
   LCOMPAT=      F    compatible to vasp.4.4
   GGA_COMPAT  = T    GGA compatible to vasp.4.4-vasp.4.6
   LMAXPAW     = -100 max onsite density
   LMAXMIX     =    2 max onsite mixed and CHGCAR
   VOSKOWN=      0    Vosko Wilk Nusair interpolation
   ROPT   =    0.00000
 Ionic relaxation
   EDIFFG = -.1E-01   stopping-criterion for IOM
   NSW    =    100    number of steps for IOM
   NBLOCK =      1;   KBLOCK =    100    inner block; outer block 
   IBRION =      2    ionic relax: 0-MD 1-quasi-New 2-CG
   NFREE  =      1    steps in history (QN), initial steepest desc. (CG)
   ISIF   =      2    stress and relaxation
   IWAVPR =     11    prediction:  0-non 1-charg 2-wave 3-comb
   ISYM   =      2    0-nonsym 1-usesym 2-fastsym
   LCORR  =      T    Harris-Foulkes like correction to forces

   POTIM  = 0.5000    time-step for ionic-motion
   TEIN   =    0.0    initial temperature
   TEBEG  =    0.0;   TEEND  =   0.0 temperature during run
   SMASS  =  -3.00    Nose mass-parameter (am)
   estimated Nose-frequenzy (Omega)   =  0.10E-29 period in steps =****** mass=  -0.139E-27a.u.
   SCALEE = 1.0000    scale energy and forces
   NPACO  =    256;   APACO  = 16.0  distance and # of slots for P.C.
   PSTRESS=    0.0 pullay stress

  Mass of Ions in am
   POMASS =  12.01
  Ionic Valenz
   ZVAL   =   4.00
  Atomic Wigner-Seitz radii
   RWIGS  =  -1.00
  virtual crystal weights 
   VCA    =   1.00
   NELECT =       8.0000    total number of electrons
   NUPDOWN=      -1.0000    fix difference up-down

 DOS related values:
   EMIN   =  10.00;   EMAX   =-10.00  energy-range for DOS
   EFERMI =   0.00
   ISMEAR =     0;   SIGMA  =   0.05  broadening in eV -4-tet -1-fermi 0-gaus

 Electronic relaxation 2 (details)
   IALGO  =     48    algorithm
   LDIAG  =      T    sub-space diagonalisation (order eigenvalues)
   LSUBROT=      F    optimize rotation matrix (better conditioning)
   TURBO    =      0    0=normal 1=particle mesh
   IRESTART =      0    0=no restart 2=restart with 2 vectors
   NREBOOT  =      0    no. of reboots
   NMIN     =      0    reboot dimension
   EREF     =   0.00    reference energy to select bands
   IMIX   =      4    mixing-type and parameters
     AMIX     =   0.40;   BMIX     =  1.00
     AMIX_MAG =   1.60;   BMIX_MAG =  1.00
     AMIN     =   0.10
     WC   =   100.;   INIMIX=   1;  MIXPRE=   1;  MAXMIX= -45

 Intra band minimization:
   WEIMIN = 0.0010     energy-eigenvalue tresh-hold
   EBREAK =  0.10E-08  absolut break condition
   DEPER  =   0.30     relativ break condition  

   TIME   =   0.40     timestep for ELM

  volume/ion in A,a.u.               =      79.90       539.17
  Fermi-wavevector in a.u.,A,eV,Ry     =   0.603373  1.140210  4.953325  0.364059
  Thomas-Fermi vector in A             =   1.656330
 
 Write flags
   LWAVE        =      F    write WAVECAR
   LDOWNSAMPLE  =      F    k-point downsampling of WAVECAR
   LCHARG       =      F    write CHGCAR
   LVTOT        =      F    write LOCPOT, total local potential
   LVHAR        =      F    write LOCPOT, Hartree potential only
   LELF         =      F    write electronic localiz. function (ELF)
   LORBIT       =      0    0 simple, 1 ext, 2 COOP (PROOUT), +10 PAW based schemes


 Dipole corrections
   LMONO  =      F    monopole corrections only (constant potential shift)
   LDIPOL =      F    correct potential (dipole corrections)
   IDIPOL =      0    1-x, 2-y, 3-z, 4-all directions 
   EPSILON=  1.0000000 bulk dielectric constant

 Exchange correlation treatment:
   GGA     =    --    GGA type
   LEXCH   =     8    internal setting for exchange type
   VOSKOWN=      0    Vosko Wilk Nusair interpolation
   LHFCALC =     F    Hartree Fock is set to
   LHFONE  =     F    Hartree Fock one center treatment
   AEXX    =    0.0000 exact exchange contribution

 Linear response parameters
   LEPSILON=     F    determine dielectric tensor
   LRPA    =     F    only Hartree local field effects (RPA)
   LNABLA  =     F    use nabla operator in PAW spheres
   LVEL    =     F    velocity operator in full k-point grid
   LINTERFAST=   F  fast interpolation
   KINTER  =     0    interpolate to denser k-point grid
   CSHIFT  =0.1000    complex shift for real part using Kramers Kronig
   OMEGAMAX=  -1.0    maximum frequency
   DEG_THRESHOLD= 0.2000000E-02 threshold for treating states as degnerate
   RTIME   =   -0.100 relaxation time in fs
  (WPLASMAI=    0.000 imaginary part of plasma frequency in eV, 0.658/RTIME)
   DFIELD  = 0.0000000 0.0000000 0.0000000 field for delta impulse in time
 
 Orbital magnetization related:
   ORBITALMAG=     F  switch on orbital magnetization
   LCHIMAG   =     F  perturbation theory with respect to B field
   DQ        =  0.001000  dq finite difference perturbation B field
   LLRAUG    =     F  two centre corrections for induced B field



--------------------------------------------------------------------------------------------------------


 conjugate gradient relaxation of ions
 charge density and potential will be updated during run
 non-spin polarized calculation
 RMM-DIIS sequential band-by-band
 perform sub-space diagonalisation
    before iterative eigenvector-optimisation
 modified Broyden-mixing scheme, WC =      100.0
 initial mixing is a Kerker type mixing with AMIX =  0.4000 and BMIX =      1.0000
 Hartree-type preconditioning will be used
 using additional bands           20
 reciprocal scheme for non local part
 use partial core corrections
 calculate Harris-corrections to forces 
   (improved forces if not selfconsistent)
 use gradient corrections 
 use of overlap-Matrix (Vanderbilt PP)
 Gauss-broadening in eV      SIGMA  =   0.05


--------------------------------------------------------------------------------------------------------


  energy-cutoff  :      875.00
  volume of cell :      159.79
      direct lattice vectors                 reciprocal lattice vectors
     1.230644054 -2.135657445  0.000000000     0.405509408 -0.234570511  0.000000000
     1.237769769  2.139771468  0.000000000     0.404729757  0.233220112  0.000000000
     0.000000000  0.000000000 30.282393743     0.000000000  0.000000000  0.033022489

  length of vectors
     2.464856489  2.471982188 30.282393743     0.468466866  0.467116470  0.033022489


 
 k-points in units of 2pi/SCALE and weight: K-Mesh Generated with KP-Resolved Value 
   0.08304951 -0.00013842  0.00000000       0.014
   0.16617894 -0.04822537  0.00000000       0.014
   0.24930837 -0.09631233  0.00000000       0.014
   0.33243780 -0.14439928  0.00000000       0.014
   0.41556723 -0.19248623  0.00000000       0.014
   0.49869666 -0.24057319  0.00000000       0.014
  -0.41572706  0.28838331  0.00000000       0.014
  -0.33259763  0.24029636  0.00000000       0.014
  -0.24946820  0.19220940  0.00000000       0.014
  -0.16633877  0.14412245  0.00000000       0.014
  -0.08320934  0.09603549  0.00000000       0.014
  -0.00007991  0.04794854  0.00000000       0.014
   0.16601911  0.04767171  0.00000000       0.014
   0.24914854 -0.00041525  0.00000000       0.014
   0.33227797 -0.04850220  0.00000000       0.014
   0.41540740 -0.09658916  0.00000000       0.014
   0.49853683 -0.14467611  0.00000000       0.014
   0.58166626 -0.19276307  0.00000000       0.014
  -0.33275746  0.33619344  0.00000000       0.014
  -0.24962803  0.28810648  0.00000000       0.014
  -0.16649860  0.24001953  0.00000000       0.014
  -0.08336917  0.19193257  0.00000000       0.014
  -0.00023974  0.14384562  0.00000000       0.014
   0.08288969  0.09575866  0.00000000       0.014
   0.24898871  0.09548183  0.00000000       0.014
   0.33211814  0.04739488  0.00000000       0.014
   0.41524757 -0.00069208  0.00000000       0.014
   0.49837700 -0.04877903  0.00000000       0.014
   0.58150643 -0.09686599  0.00000000       0.014
   0.66463586 -0.14495294  0.00000000       0.014
  -0.24978786  0.38400356  0.00000000       0.014
  -0.16665843  0.33591660  0.00000000       0.014
  -0.08352900  0.28782965  0.00000000       0.014
  -0.00039957  0.23974269  0.00000000       0.014
   0.08272986  0.19165574  0.00000000       0.014
   0.16585929  0.14356878  0.00000000       0.014
   0.33195832  0.14329195  0.00000000       0.014
   0.41508774  0.09520500  0.00000000       0.014
   0.49821717  0.04711804  0.00000000       0.014
   0.58134660 -0.00096891  0.00000000       0.014
   0.66447603 -0.04905587  0.00000000       0.014
   0.74760546 -0.09714282  0.00000000       0.014
  -0.16681826  0.43181368  0.00000000       0.014
  -0.08368883  0.38372673  0.00000000       0.014
  -0.00055940  0.33563977  0.00000000       0.014
   0.08257003  0.28755282  0.00000000       0.014
   0.16569946  0.23946586  0.00000000       0.014
   0.24882889  0.19137891  0.00000000       0.014
   0.41492792  0.19110208  0.00000000       0.014
   0.49805734  0.14301512  0.00000000       0.014
   0.58118677  0.09492817  0.00000000       0.014
   0.66431620  0.04684121  0.00000000       0.014
   0.74744563 -0.00124574  0.00000000       0.014
   0.83057506 -0.04933270  0.00000000       0.014
  -0.08384866  0.47962380  0.00000000       0.014
  -0.00071923  0.43153685  0.00000000       0.014
   0.08241020  0.38344990  0.00000000       0.014
   0.16553963  0.33536294  0.00000000       0.014
   0.24866906  0.28727599  0.00000000       0.014
   0.33179849  0.23918903  0.00000000       0.014
   0.49789752  0.23891220  0.00000000       0.014
   0.58102694  0.19082524  0.00000000       0.014
   0.66415637  0.14273829  0.00000000       0.014
   0.74728580  0.09465134  0.00000000       0.014
   0.83041523  0.04656438  0.00000000       0.014
   0.91354466 -0.00152257  0.00000000       0.014
  -0.00087906  0.52743393  0.00000000       0.014
   0.08225037  0.47934697  0.00000000       0.014
   0.16537980  0.43126002  0.00000000       0.014
   0.24850923  0.38317306  0.00000000       0.014
   0.33163866  0.33508611  0.00000000       0.014
   0.41476809  0.28699915  0.00000000       0.014
 
 k-points in reciprocal lattice and weights: K-Mesh Generated with KP-Resolved Value 
   0.04166667  0.04166667  0.00000000       0.014
   0.12500000  0.04166667  0.00000000       0.014
   0.20833333  0.04166667  0.00000000       0.014
   0.29166667  0.04166667  0.00000000       0.014
   0.37500000  0.04166667  0.00000000       0.014
   0.45833333  0.04166667  0.00000000       0.014
  -0.45833333  0.04166667  0.00000000       0.014
  -0.37500000  0.04166667  0.00000000       0.014
  -0.29166667  0.04166667  0.00000000       0.014
  -0.20833333  0.04166667  0.00000000       0.014
  -0.12500000  0.04166667  0.00000000       0.014
  -0.04166667  0.04166667  0.00000000       0.014
   0.04166667  0.12500000  0.00000000       0.014
   0.12500000  0.12500000  0.00000000       0.014
   0.20833333  0.12500000  0.00000000       0.014
   0.29166667  0.12500000  0.00000000       0.014
   0.37500000  0.12500000  0.00000000       0.014
   0.45833333  0.12500000  0.00000000       0.014
  -0.45833333  0.12500000  0.00000000       0.014
  -0.37500000  0.12500000  0.00000000       0.014
  -0.29166667  0.12500000  0.00000000       0.014
  -0.20833333  0.12500000  0.00000000       0.014
  -0.12500000  0.12500000  0.00000000       0.014
  -0.04166667  0.12500000  0.00000000       0.014
   0.04166667  0.20833333  0.00000000       0.014
   0.12500000  0.20833333  0.00000000       0.014
   0.20833333  0.20833333  0.00000000       0.014
   0.29166667  0.20833333  0.00000000       0.014
   0.37500000  0.20833333  0.00000000       0.014
   0.45833333  0.20833333  0.00000000       0.014
  -0.45833333  0.20833333  0.00000000       0.014
  -0.37500000  0.20833333  0.00000000       0.014
  -0.29166667  0.20833333  0.00000000       0.014
  -0.20833333  0.20833333  0.00000000       0.014
  -0.12500000  0.20833333  0.00000000       0.014
  -0.04166667  0.20833333  0.00000000       0.014
   0.04166667  0.29166667  0.00000000       0.014
   0.12500000  0.29166667  0.00000000       0.014
   0.20833333  0.29166667  0.00000000       0.014
   0.29166667  0.29166667  0.00000000       0.014
   0.37500000  0.29166667  0.00000000       0.014
   0.45833333  0.29166667  0.00000000       0.014
  -0.45833333  0.29166667  0.00000000       0.014
  -0.37500000  0.29166667  0.00000000       0.014
  -0.29166667  0.29166667  0.00000000       0.014
  -0.20833333  0.29166667  0.00000000       0.014
  -0.12500000  0.29166667  0.00000000       0.014
  -0.04166667  0.29166667  0.00000000       0.014
   0.04166667  0.37500000  0.00000000       0.014
   0.12500000  0.37500000  0.00000000       0.014
   0.20833333  0.37500000  0.00000000       0.014
   0.29166667  0.37500000  0.00000000       0.014
   0.37500000  0.37500000  0.00000000       0.014
   0.45833333  0.37500000  0.00000000       0.014
  -0.45833333  0.37500000  0.00000000       0.014
  -0.37500000  0.37500000  0.00000000       0.014
  -0.29166667  0.37500000  0.00000000       0.014
  -0.20833333  0.37500000  0.00000000       0.014
  -0.12500000  0.37500000  0.00000000       0.014
  -0.04166667  0.37500000  0.00000000       0.014
   0.04166667  0.45833333  0.00000000       0.014
   0.12500000  0.45833333  0.00000000       0.014
   0.20833333  0.45833333  0.00000000       0.014
   0.29166667  0.45833333  0.00000000       0.014
   0.37500000  0.45833333  0.00000000       0.014
   0.45833333  0.45833333  0.00000000       0.014
  -0.45833333  0.45833333  0.00000000       0.014
  -0.37500000  0.45833333  0.00000000       0.014
  -0.29166667  0.45833333  0.00000000       0.014
  -0.20833333  0.45833333  0.00000000       0.014
  -0.12500000  0.45833333  0.00000000       0.014
  -0.04166667  0.45833333  0.00000000       0.014
 
 position of ions in fractional coordinates (direct lattice) 
   0.00000262  0.99999738  0.50000000
   0.66666738  0.33333262  0.50000000
 
 position of ions in cartesian coordinates  (Angst):
   1.23776975  2.13976026 15.14119687
   1.23301929 -0.71051752 15.14119687
 


--------------------------------------------------------------------------------------------------------


 k-point  1 :   0.0417 0.0417 0.0000  plane waves:    9285
 k-point  2 :   0.1250 0.0417 0.0000  plane waves:    9294
 k-point  3 :   0.2083 0.0417 0.0000  plane waves:    9336
 k-point  4 :   0.2917 0.0417 0.0000  plane waves:    9377
 k-point  5 :   0.3750 0.0417 0.0000  plane waves:    9366
 k-point  6 :   0.4583 0.0417 0.0000  plane waves:    9408
 k-point  7 :  -0.4583 0.0417 0.0000  plane waves:    9390
 k-point  8 :  -0.3750 0.0417 0.0000  plane waves:    9369
 k-point  9 :  -0.2917 0.0417 0.0000  plane waves:    9355
 k-point 10 :  -0.2083 0.0417 0.0000  plane waves:    9326
 k-point 11 :  -0.1250 0.0417 0.0000  plane waves:    9294
 k-point 12 :  -0.0417 0.0417 0.0000  plane waves:    9262
 k-point 13 :   0.0417 0.1250 0.0000  plane waves:    9300
 k-point 14 :   0.1250 0.1250 0.0000  plane waves:    9345
 k-point 15 :   0.2083 0.1250 0.0000  plane waves:    9384
 k-point 16 :   0.2917 0.1250 0.0000  plane waves:    9419
 k-point 17 :   0.3750 0.1250 0.0000  plane waves:    9430
 k-point 18 :   0.4583 0.1250 0.0000  plane waves:    9436
 k-point 19 :  -0.4583 0.1250 0.0000  plane waves:    9421
 k-point 20 :  -0.3750 0.1250 0.0000  plane waves:    9405
 k-point 21 :  -0.2917 0.1250 0.0000  plane waves:    9374
 k-point 22 :  -0.2083 0.1250 0.0000  plane waves:    9328
 k-point 23 :  -0.1250 0.1250 0.0000  plane waves:    9287
 k-point 24 :  -0.0417 0.1250 0.0000  plane waves:    9293
 k-point 25 :   0.0417 0.2083 0.0000  plane waves:    9339
 k-point 26 :   0.1250 0.2083 0.0000  plane waves:    9380
 k-point 27 :   0.2083 0.2083 0.0000  plane waves:    9418
 k-point 28 :   0.2917 0.2083 0.0000  plane waves:    9423
 k-point 29 :   0.3750 0.2083 0.0000  plane waves:    9462
 k-point 30 :   0.4583 0.2083 0.0000  plane waves:    9448
 k-point 31 :  -0.4583 0.2083 0.0000  plane waves:    9423
 k-point 32 :  -0.3750 0.2083 0.0000  plane waves:    9404
 k-point 33 :  -0.2917 0.2083 0.0000  plane waves:    9374
 k-point 34 :  -0.2083 0.2083 0.0000  plane waves:    9348
 k-point 35 :  -0.1250 0.2083 0.0000  plane waves:    9319
 k-point 36 :  -0.0417 0.2083 0.0000  plane waves:    9335
 k-point 37 :   0.0417 0.2917 0.0000  plane waves:    9379
 k-point 38 :   0.1250 0.2917 0.0000  plane waves:    9415
 k-point 39 :   0.2083 0.2917 0.0000  plane waves:    9432
 k-point 40 :   0.2917 0.2917 0.0000  plane waves:    9460
 k-point 41 :   0.3750 0.2917 0.0000  plane waves:    9463
 k-point 42 :   0.4583 0.2917 0.0000  plane waves:    9447
 k-point 43 :  -0.4583 0.2917 0.0000  plane waves:    9425
 k-point 44 :  -0.3750 0.2917 0.0000  plane waves:    9392
 k-point 45 :  -0.2917 0.2917 0.0000  plane waves:    9363
 k-point 46 :  -0.2083 0.2917 0.0000  plane waves:    9361
 k-point 47 :  -0.1250 0.2917 0.0000  plane waves:    9364
 k-point 48 :  -0.0417 0.2917 0.0000  plane waves:    9361
 k-point 49 :   0.0417 0.3750 0.0000  plane waves:    9376
 k-point 50 :   0.1250 0.3750 0.0000  plane waves:    9435
 k-point 51 :   0.2083 0.3750 0.0000  plane waves:    9474
 k-point 52 :   0.2917 0.3750 0.0000  plane waves:    9476
 k-point 53 :   0.3750 0.3750 0.0000  plane waves:    9480
 k-point 54 :   0.4583 0.3750 0.0000  plane waves:    9461
 k-point 55 :  -0.4583 0.3750 0.0000  plane waves:    9399
 k-point 56 :  -0.3750 0.3750 0.0000  plane waves:    9376
 k-point 57 :  -0.2917 0.3750 0.0000  plane waves:    9386
 k-point 58 :  -0.2083 0.3750 0.0000  plane waves:    9402
 k-point 59 :  -0.1250 0.3750 0.0000  plane waves:    9405
 k-point 60 :  -0.0417 0.3750 0.0000  plane waves:    9376
 k-point 61 :   0.0417 0.4583 0.0000  plane waves:    9422
 k-point 62 :   0.1250 0.4583 0.0000  plane waves:    9438
 k-point 63 :   0.2083 0.4583 0.0000  plane waves:    9457
 k-point 64 :   0.2917 0.4583 0.0000  plane waves:    9451
 k-point 65 :   0.3750 0.4583 0.0000  plane waves:    9449
 k-point 66 :   0.4583 0.4583 0.0000  plane waves:    9422
 k-point 67 :  -0.4583 0.4583 0.0000  plane waves:    9412
 k-point 68 :  -0.3750 0.4583 0.0000  plane waves:    9393
 k-point 69 :  -0.2917 0.4583 0.0000  plane waves:    9415
 k-point 70 :  -0.2083 0.4583 0.0000  plane waves:    9416
 k-point 71 :  -0.1250 0.4583 0.0000  plane waves:    9414
 k-point 72 :  -0.0417 0.4583 0.0000  plane waves:    9404

 maximum and minimum number of plane-waves per node :      9480     9262

 maximum number of plane-waves:      9480
 maximum index in each direction: 
   IXMAX=    6   IYMAX=    5   IZMAX=   73
   IXMIN=   -6   IYMIN=   -6   IZMIN=  -73


 serial   3D FFT for wavefunctions
 parallel 3D FFT for charge:
    minimum data exchange during FFTs selected (reduces bandwidth)


 total amount of memory used by VASP MPI-rank0    94843. kBytes
=======================================================================

   base      :      30000. kBytes
   nonl-proj :      43987. kBytes
   fftplans  :       1663. kBytes
   grid      :       8239. kBytes
   one-center:          6. kBytes
   wavefun   :      10948. kBytes
 
     INWAV:  cpu time    0.0000: real time    0.0000
 Broyden mixing: mesh for mixing (old mesh)
   NGX = 11   NGY = 11   NGZ =147
  (NGX  = 32   NGY  = 36   NGZ  =420)
  gives a total of  17787 points

 initial charge density was supplied:
 charge density of overlapping atoms calculated
 number of electron       8.0000000 magnetization 
 keeping initial charge density in first step


--------------------------------------------------------------------------------------------------------


 Maximum index for augmentation-charges          243 (set IRDMAX)


--------------------------------------------------------------------------------------------------------


 First call to EWALD:  gamma=   0.327
 Maximum number of real-space cells 6x 6x 1
 Maximum number of reciprocal cells 2x 2x13

    FEWALD:  cpu time    0.0020: real time    0.0032


--------------------------------------- Iteration      1(   1)  ---------------------------------------


    POTLOK:  cpu time    0.0340: real time    0.0559
    SETDIJ:  cpu time    0.0130: real time    0.0192
    EDDIAG:  cpu time    1.0858: real time    1.1778
  RMM-DIIS:  cpu time    2.0817: real time    2.1023
    ORTHCH:  cpu time    0.0520: real time    0.0521
       DOS:  cpu time    0.0040: real time    0.0105
    --------------------------------------------
      LOOP:  cpu time    3.2705: real time    3.4186

 eigenvalue-minimisations  :  1728
 total energy-change (2. order) : 0.1016447E+03  (-0.1511638E+03)
 number of electron       8.0000000 magnetization 
 augmentation part        8.0000000 magnetization 

 Free energy of the ion-electron system (eV)
  ---------------------------------------------------
  alpha Z        PSCENC =         1.37229745
  Ewald energy   TEWEN  =      2232.00673347
  -Hartree energ DENC   =     -2438.22894593
  -exchange      EXHF   =         0.00000000
  -V(xc)+E(xc)   XCENC  =        14.48580331
  PAW double counting   =       228.69403340     -218.18290438
  entropy T*S    EENTRO =        -0.00161691
  eigenvalues    EBANDS =       -12.80390309
  atomic energy  EATOM  =       294.30319316
  Solvation  Ediel_sol  =         0.00000000
  ---------------------------------------------------
  free energy    TOTEN  =       101.64469049 eV

  energy without entropy =      101.64630739  energy(sigma->0) =      101.64549894


--------------------------------------------------------------------------------------------------------




--------------------------------------- Iteration      1(   2)  ---------------------------------------


    EDDIAG:  cpu time    1.0618: real time    1.0724
  RMM-DIIS:  cpu time    2.0657: real time    2.0783
    ORTHCH:  cpu time    0.0520: real time    0.0518
       DOS:  cpu time    0.0010: real time    0.0008
    --------------------------------------------
      LOOP:  cpu time    3.1805: real time    3.2028

 eigenvalue-minimisations  :  1728
 total energy-change (2. order) :-0.5201203E+02  (-0.2855588E+02)
 number of electron       8.0000000 magnetization 
 augmentation part        8.0000000 magnetization 

 Free energy of the ion-electron system (eV)
  ---------------------------------------------------
  alpha Z        PSCENC =         1.37229745
  Ewald energy   TEWEN  =      2232.00673347
  -Hartree energ DENC   =     -2438.22894593
  -exchange      EXHF   =         0.00000000
  -V(xc)+E(xc)   XCENC  =        14.48580331
  PAW double counting   =       228.69403340     -218.18290438
  entropy T*S    EENTRO =        -0.00352241
  eigenvalues    EBANDS =       -64.81402887
  atomic energy  EATOM  =       294.30319316
  Solvation  Ediel_sol  =         0.00000000
  ---------------------------------------------------
  free energy    TOTEN  =        49.63265919 eV

  energy without entropy =       49.63618160  energy(sigma->0) =       49.63442040


--------------------------------------------------------------------------------------------------------




--------------------------------------- Iteration      1(   3)  ---------------------------------------


    EDDIAG:  cpu time    1.0638: real time    1.0770
  RMM-DIIS:  cpu time    2.0547: real time    2.0584
    ORTHCH:  cpu time    0.0510: real time    0.0519
       DOS:  cpu time    0.0010: real time    0.0009
    --------------------------------------------
      LOOP:  cpu time    3.1705: real time    3.1881

 eigenvalue-minimisations  :  1728
 total energy-change (2. order) :-0.4130052E+02  (-0.2143168E+02)
 number of electron       8.0000000 magnetization 
 augmentation part        8.0000000 magnetization 

 Free energy of the ion-electron system (eV)
  ---------------------------------------------------
  alpha Z        PSCENC =         1.37229745
  Ewald energy   TEWEN  =      2232.00673347
  -Hartree energ DENC   =     -2438.22894593
  -exchange      EXHF   =         0.00000000
  -V(xc)+E(xc)   XCENC  =        14.48580331
  PAW double counting   =       228.69403340     -218.18290438
  entropy T*S    EENTRO =        -0.00034270
  eigenvalues    EBANDS =      -106.11772996
  atomic energy  EATOM  =       294.30319316
  Solvation  Ediel_sol  =         0.00000000
  ---------------------------------------------------
  free energy    TOTEN  =         8.33213782 eV

  energy without entropy =        8.33248052  energy(sigma->0) =        8.33230917


--------------------------------------------------------------------------------------------------------




--------------------------------------- Iteration      1(   4)  ---------------------------------------


    EDDIAG:  cpu time    1.0638: real time    1.0787
  RMM-DIIS:  cpu time    2.0687: real time    2.0739
    ORTHCH:  cpu time    0.0520: real time    0.0518
       DOS:  cpu time    0.0000: real time    0.0008
    --------------------------------------------
      LOOP:  cpu time    3.1855: real time    3.2052

 eigenvalue-minimisations  :  1728
 total energy-change (2. order) :-0.2214198E+02  (-0.1304851E+02)
 number of electron       8.0000000 magnetization 
 augmentation part        8.0000000 magnetization 

 Free energy of the ion-electron system (eV)
  ---------------------------------------------------
  alpha Z        PSCENC =         1.37229745
  Ewald energy   TEWEN  =      2232.00673347
  -Hartree energ DENC   =     -2438.22894593
  -exchange      EXHF   =         0.00000000
  -V(xc)+E(xc)   XCENC  =        14.48580331
  PAW double counting   =       228.69403340     -218.18290438
  entropy T*S    EENTRO =        -0.00076784
  eigenvalues    EBANDS =      -128.25928698
  atomic energy  EATOM  =       294.30319316
  Solvation  Ediel_sol  =         0.00000000
  ---------------------------------------------------
  free energy    TOTEN  =       -13.80984435 eV

  energy without entropy =      -13.80907650  energy(sigma->0) =      -13.80946042


--------------------------------------------------------------------------------------------------------




--------------------------------------- Iteration      1(   5)  ---------------------------------------


    EDDIAG:  cpu time    1.0648: real time    1.0763
  RMM-DIIS:  cpu time    2.0427: real time    2.0482
    ORTHCH:  cpu time    0.0520: real time    0.0518
       DOS:  cpu time    0.0000: real time    0.0005
    --------------------------------------------
      LOOP:  cpu time    3.1585: real time    3.1768

 eigenvalue-minimisations  :  1728
 total energy-change (2. order) :-0.4601549E+01  (-0.3620539E+01)
 number of electron       8.0000000 magnetization 
 augmentation part        8.0000000 magnetization 

 Free energy of the ion-electron system (eV)
  ---------------------------------------------------
  alpha Z        PSCENC =         1.37229745
  Ewald energy   TEWEN  =      2232.00673347
  -Hartree energ DENC   =     -2438.22894593
  -exchange      EXHF   =         0.00000000
  -V(xc)+E(xc)   XCENC  =        14.48580331
  PAW double counting   =       228.69403340     -218.18290438
  entropy T*S    EENTRO =        -0.00000000
  eigenvalues    EBANDS =      -132.86160336
  atomic energy  EATOM  =       294.30319316
  Solvation  Ediel_sol  =         0.00000000
  ---------------------------------------------------
  free energy    TOTEN  =       -18.41139288 eV

  energy without entropy =      -18.41139288  energy(sigma->0) =      -18.41139288


--------------------------------------------------------------------------------------------------------




--------------------------------------- Iteration      1(   6)  ---------------------------------------


    EDDIAG:  cpu time    1.0788: real time    1.0823
  RMM-DIIS:  cpu time    2.0267: real time    2.0354
    ORTHCH:  cpu time    0.0520: real time    0.0519
       DOS:  cpu time    0.0000: real time    0.0005
    --------------------------------------------
      LOOP:  cpu time    3.1575: real time    3.1701

 eigenvalue-minimisations  :  1728
 total energy-change (2. order) :-0.9915035E+00  (-0.8218666E+00)
 number of electron       8.0000000 magnetization 
 augmentation part        8.0000000 magnetization 

 Free energy of the ion-electron system (eV)
  ---------------------------------------------------
  alpha Z        PSCENC =         1.37229745
  Ewald energy   TEWEN  =      2232.00673347
  -Hartree energ DENC   =     -2438.22894593
  -exchange      EXHF   =         0.00000000
  -V(xc)+E(xc)   XCENC  =        14.48580331
  PAW double counting   =       228.69403340     -218.18290438
  entropy T*S    EENTRO =        -0.00000000
  eigenvalues    EBANDS =      -133.85310683
  atomic energy  EATOM  =       294.30319316
  Solvation  Ediel_sol  =         0.00000000
  ---------------------------------------------------
  free energy    TOTEN  =       -19.40289635 eV

  energy without entropy =      -19.40289635  energy(sigma->0) =      -19.40289635


--------------------------------------------------------------------------------------------------------




--------------------------------------- Iteration      1(   7)  ---------------------------------------


    EDDIAG:  cpu time    1.0638: real time    1.0811
  RMM-DIIS:  cpu time    2.0307: real time    2.0347
    ORTHCH:  cpu time    0.0520: real time    0.0519
       DOS:  cpu time    0.0010: real time    0.0006
    --------------------------------------------
      LOOP:  cpu time    3.1475: real time    3.1683

 eigenvalue-minimisations  :  1728
 total energy-change (2. order) :-0.2315021E+00  (-0.1950721E+00)
 number of electron       8.0000000 magnetization 
 augmentation part        8.0000000 magnetization 

 Free energy of the ion-electron system (eV)
  ---------------------------------------------------
  alpha Z        PSCENC =         1.37229745
  Ewald energy   TEWEN  =      2232.00673347
  -Hartree energ DENC   =     -2438.22894593
  -exchange      EXHF   =         0.00000000
  -V(xc)+E(xc)   XCENC  =        14.48580331
  PAW double counting   =       228.69403340     -218.18290438
  entropy T*S    EENTRO =        -0.00000000
  eigenvalues    EBANDS =      -134.08460895
  atomic energy  EATOM  =       294.30319316
  Solvation  Ediel_sol  =         0.00000000
  ---------------------------------------------------
  free energy    TOTEN  =       -19.63439847 eV

  energy without entropy =      -19.63439847  energy(sigma->0) =      -19.63439847


--------------------------------------------------------------------------------------------------------




--------------------------------------- Iteration      1(   8)  ---------------------------------------


    EDDIAG:  cpu time    1.0618: real time    1.0796
  RMM-DIIS:  cpu time    2.0697: real time    2.0782
    ORTHCH:  cpu time    0.0520: real time    0.0519
       DOS:  cpu time    0.0010: real time    0.0006
    --------------------------------------------
      LOOP:  cpu time    3.1845: real time    3.2103

 eigenvalue-minimisations  :  1728
 total energy-change (2. order) :-0.6439043E-01  (-0.5223537E-01)
 number of electron       8.0000000 magnetization 
 augmentation part        8.0000000 magnetization 

 Free energy of the ion-electron system (eV)
  ---------------------------------------------------
  alpha Z        PSCENC =         1.37229745
  Ewald energy   TEWEN  =      2232.00673347
  -Hartree energ DENC   =     -2438.22894593
  -exchange      EXHF   =         0.00000000
  -V(xc)+E(xc)   XCENC  =        14.48580331
  PAW double counting   =       228.69403340     -218.18290438
  entropy T*S    EENTRO =        -0.00000000
  eigenvalues    EBANDS =      -134.14899938
  atomic energy  EATOM  =       294.30319316
  Solvation  Ediel_sol  =         0.00000000
  ---------------------------------------------------
  free energy    TOTEN  =       -19.69878890 eV

  energy without entropy =      -19.69878890  energy(sigma->0) =      -19.69878890


--------------------------------------------------------------------------------------------------------




--------------------------------------- Iteration      1(   9)  ---------------------------------------


    EDDIAG:  cpu time    1.0648: real time    1.0808
  RMM-DIIS:  cpu time    3.9924: real time    4.0742
    ORTHCH:  cpu time    0.0520: real time    0.0519
       DOS:  cpu time    0.0000: real time    0.0005
    --------------------------------------------
      LOOP:  cpu time    5.1102: real time    5.2075

 eigenvalue-minimisations  :  3474
 total energy-change (2. order) :-0.2396808E-01  (-0.2069680E-01)
 number of electron       8.0000000 magnetization 
 augmentation part        8.0000000 magnetization 

 Free energy of the ion-electron system (eV)
  ---------------------------------------------------
  alpha Z        PSCENC =         1.37229745
  Ewald energy   TEWEN  =      2232.00673347
  -Hartree energ DENC   =     -2438.22894593
  -exchange      EXHF   =         0.00000000
  -V(xc)+E(xc)   XCENC  =        14.48580331
  PAW double counting   =       228.69403340     -218.18290438
  entropy T*S    EENTRO =        -0.00000000
  eigenvalues    EBANDS =      -134.17296746
  atomic energy  EATOM  =       294.30319316
  Solvation  Ediel_sol  =         0.00000000
  ---------------------------------------------------
  free energy    TOTEN  =       -19.72275698 eV

  energy without entropy =      -19.72275698  energy(sigma->0) =      -19.72275698


--------------------------------------------------------------------------------------------------------




--------------------------------------- Iteration      1(  10)  ---------------------------------------


    EDDIAG:  cpu time    1.0628: real time    1.0777
  RMM-DIIS:  cpu time    4.4083: real time    4.4185
    ORTHCH:  cpu time    0.0510: real time    0.0518
       DOS:  cpu time    0.0010: real time    0.0006
    --------------------------------------------
      LOOP:  cpu time    5.5222: real time    5.5486

 eigenvalue-minimisations  :  3548
 total energy-change (2. order) :-0.4244692E-02  (-0.3596130E-02)
 number of electron       8.0000000 magnetization 
 augmentation part        8.0000000 magnetization 

 Free energy of the ion-electron system (eV)
  ---------------------------------------------------
  alpha Z        PSCENC =         1.37229745
  Ewald energy   TEWEN  =      2232.00673347
  -Hartree energ DENC   =     -2438.22894593
  -exchange      EXHF   =         0.00000000
  -V(xc)+E(xc)   XCENC  =        14.48580331
  PAW double counting   =       228.69403340     -218.18290438
  entropy T*S    EENTRO =        -0.00000000
  eigenvalues    EBANDS =      -134.17721215
  atomic energy  EATOM  =       294.30319316
  Solvation  Ediel_sol  =         0.00000000
  ---------------------------------------------------
  free energy    TOTEN  =       -19.72700167 eV

  energy without entropy =      -19.72700167  energy(sigma->0) =      -19.72700167


--------------------------------------------------------------------------------------------------------




--------------------------------------- Iteration      1(  11)  ---------------------------------------


    EDDIAG:  cpu time    1.0638: real time    1.0789
  RMM-DIIS:  cpu time    3.8554: real time    3.8655
    ORTHCH:  cpu time    0.0510: real time    0.0519
       DOS:  cpu time    0.0010: real time    0.0006
    --------------------------------------------
      LOOP:  cpu time    4.9712: real time    4.9968

 eigenvalue-minimisations  :  3482
 total energy-change (2. order) :-0.1630090E-03  (-0.1267638E-03)
 number of electron       8.0000000 magnetization 
 augmentation part        8.0000000 magnetization 

 Free energy of the ion-electron system (eV)
  ---------------------------------------------------
  alpha Z        PSCENC =         1.37229745
  Ewald energy   TEWEN  =      2232.00673347
  -Hartree energ DENC   =     -2438.22894593
  -exchange      EXHF   =         0.00000000
  -V(xc)+E(xc)   XCENC  =        14.48580331
  PAW double counting   =       228.69403340     -218.18290438
  entropy T*S    EENTRO =        -0.00000000
  eigenvalues    EBANDS =      -134.17737516
  atomic energy  EATOM  =       294.30319316
  Solvation  Ediel_sol  =         0.00000000
  ---------------------------------------------------
  free energy    TOTEN  =       -19.72716468 eV

  energy without entropy =      -19.72716468  energy(sigma->0) =      -19.72716468


--------------------------------------------------------------------------------------------------------




--------------------------------------- Iteration      1(  12)  ---------------------------------------


    EDDIAG:  cpu time    1.0618: real time    1.0796
  RMM-DIIS:  cpu time    4.3023: real time    4.3119
    ORTHCH:  cpu time    0.0520: real time    0.0519
       DOS:  cpu time    0.0010: real time    0.0006
    CHARGE:  cpu time    0.2640: real time    0.2896
    MIXING:  cpu time    0.0040: real time    0.0153
    --------------------------------------------
      LOOP:  cpu time    5.6851: real time    5.7490

 eigenvalue-minimisations  :  3524
 total energy-change (2. order) :-0.2782800E-04  (-0.2248002E-04)
 number of electron       8.0000000 magnetization 
 augmentation part       -0.0156771 magnetization 

 Broyden mixing:
  rms(total) = 0.91109E+00    rms(broyden)= 0.91103E+00
  rms(prec ) = 0.92455E+00
  weight for this iteration     100.00

 Free energy of the ion-electron system (eV)
  ---------------------------------------------------
  alpha Z        PSCENC =         1.37229745
  Ewald energy   TEWEN  =      2232.00673347
  -Hartree energ DENC   =     -2438.22894593
  -exchange      EXHF   =         0.00000000
  -V(xc)+E(xc)   XCENC  =        14.48580331
  PAW double counting   =       228.69403340     -218.18290438
  entropy T*S    EENTRO =        -0.00000000
  eigenvalues    EBANDS =      -134.17740299
  atomic energy  EATOM  =       294.30319316
  Solvation  Ediel_sol  =         0.00000000
  ---------------------------------------------------
  free energy    TOTEN  =       -19.72719251 eV

  energy without entropy =      -19.72719251  energy(sigma->0) =      -19.72719251


--------------------------------------------------------------------------------------------------------




--------------------------------------- Iteration      1(  13)  ---------------------------------------


    POTLOK:  cpu time    0.0210: real time    0.0307
    SETDIJ:  cpu time    0.0010: real time    0.0017
    EDDIAG:  cpu time    1.0538: real time    1.0555
  RMM-DIIS:  cpu time    3.8044: real time    3.8147
    ORTHCH:  cpu time    0.0530: real time    0.0525
       DOS:  cpu time    0.0000: real time    0.0006
    CHARGE:  cpu time    0.2590: real time    0.2584
    MIXING:  cpu time    0.0030: real time    0.0224
    --------------------------------------------
      LOOP:  cpu time    5.1952: real time    5.2364

 eigenvalue-minimisations  :  3456
 total energy-change (2. order) : 0.8851809E+00  (-0.4389347E-01)
 number of electron       8.0000000 magnetization 
 augmentation part       -0.0180885 magnetization 

 Broyden mixing:
  rms(total) = 0.59391E+00    rms(broyden)= 0.59391E+00
  rms(prec ) = 0.60019E+00
  weight for this iteration     100.00

 eigenvalues of (default mixing * dielectric matrix)
  average eigenvalue GAMMA=   2.6439
  2.6439

 Free energy of the ion-electron system (eV)
  ---------------------------------------------------
  alpha Z        PSCENC =         1.37229745
  Ewald energy   TEWEN  =      2232.00673347
  -Hartree energ DENC   =     -2449.52739593
  -exchange      EXHF   =         0.00000000
  -V(xc)+E(xc)   XCENC  =        14.93161746
  PAW double counting   =       998.00530953     -987.61788469
  entropy T*S    EENTRO =        -0.00000000
  eigenvalues    EBANDS =      -122.31588211
  atomic energy  EATOM  =       294.30319316
  Solvation  Ediel_sol  =         0.00000000
  ---------------------------------------------------
  free energy    TOTEN  =       -18.84201165 eV

  energy without entropy =      -18.84201165  energy(sigma->0) =      -18.84201165


--------------------------------------------------------------------------------------------------------




--------------------------------------- Iteration      1(  14)  ---------------------------------------


    POTLOK:  cpu time    0.0190: real time    0.0272
    SETDIJ:  cpu time    0.0020: real time    0.0017
    EDDIAG:  cpu time    1.0518: real time    1.0543
  RMM-DIIS:  cpu time    3.7744: real time    3.7846
    ORTHCH:  cpu time    0.0520: real time    0.0525
       DOS:  cpu time    0.0010: real time    0.0006
    CHARGE:  cpu time    0.2580: real time    0.2585
    MIXING:  cpu time    0.0020: real time    0.0081
    --------------------------------------------
      LOOP:  cpu time    5.1602: real time    5.1875

 eigenvalue-minimisations  :  3456
 total energy-change (2. order) : 0.3330816E+00  (-0.9262603E-01)
 number of electron       8.0000000 magnetization 
 augmentation part       -0.0211340 magnetization 

 Broyden mixing:
  rms(total) = 0.11693E+00    rms(broyden)= 0.11692E+00
  rms(prec ) = 0.11948E+00
  weight for this iteration     100.00

 eigenvalues of (default mixing * dielectric matrix)
  average eigenvalue GAMMA=   2.2338
  2.2338  2.2338

 Free energy of the ion-electron system (eV)
  ---------------------------------------------------
  alpha Z        PSCENC =         1.37229745
  Ewald energy   TEWEN  =      2232.00673347
  -Hartree energ DENC   =     -2468.08186883
  -exchange      EXHF   =         0.00000000
  -V(xc)+E(xc)   XCENC  =        15.67800461
  PAW double counting   =      3854.32920346    -3844.05180227
  entropy T*S    EENTRO =        -0.00000000
  eigenvalues    EBANDS =      -104.06469109
  atomic energy  EATOM  =       294.30319316
  Solvation  Ediel_sol  =         0.00000000
  ---------------------------------------------------
  free energy    TOTEN  =       -18.50893003 eV

  energy without entropy =      -18.50893003  energy(sigma->0) =      -18.50893003


--------------------------------------------------------------------------------------------------------




--------------------------------------- Iteration      1(  15)  ---------------------------------------


    POTLOK:  cpu time    0.0200: real time    0.0313
    SETDIJ:  cpu time    0.0020: real time    0.0017
    EDDIAG:  cpu time    1.0508: real time    1.0546
  RMM-DIIS:  cpu time    3.8864: real time    3.8959
    ORTHCH:  cpu time    0.0530: real time    0.0524
       DOS:  cpu time    0.0000: real time    0.0006
    CHARGE:  cpu time    0.2580: real time    0.2584
    MIXING:  cpu time    0.0010: real time    0.0042
    --------------------------------------------
      LOOP:  cpu time    5.2712: real time    5.2990

 eigenvalue-minimisations  :  3468
 total energy-change (2. order) : 0.2059867E-01  (-0.2496520E-02)
 number of electron       8.0000000 magnetization 
 augmentation part       -0.0205840 magnetization 

 Broyden mixing:
  rms(total) = 0.12450E-01    rms(broyden)= 0.12448E-01
  rms(prec ) = 0.15981E-01
  weight for this iteration     100.00

 eigenvalues of (default mixing * dielectric matrix)
  average eigenvalue GAMMA=   2.0015
  1.3491  2.3277  2.3277

 Free energy of the ion-electron system (eV)
  ---------------------------------------------------
  alpha Z        PSCENC =         1.37229745
  Ewald energy   TEWEN  =      2232.00673347
  -Hartree energ DENC   =     -2467.18788813
  -exchange      EXHF   =         0.00000000
  -V(xc)+E(xc)   XCENC  =        15.56454555
  PAW double counting   =      4087.57910818    -4077.24155375
  entropy T*S    EENTRO =        -0.00000000
  eigenvalues    EBANDS =      -104.88476730
  atomic energy  EATOM  =       294.30319316
  Solvation  Ediel_sol  =         0.00000000
  ---------------------------------------------------
  free energy    TOTEN  =       -18.48833136 eV

  energy without entropy =      -18.48833136  energy(sigma->0) =      -18.48833136


--------------------------------------------------------------------------------------------------------




--------------------------------------- Iteration      1(  16)  ---------------------------------------


    POTLOK:  cpu time    0.0210: real time    0.0338
    SETDIJ:  cpu time    0.0010: real time    0.0017
    EDDIAG:  cpu time    1.0608: real time    1.0878
  RMM-DIIS:  cpu time    3.8094: real time    3.9918
    ORTHCH:  cpu time    0.0530: real time    0.0527
       DOS:  cpu time    0.0000: real time    0.0006
    CHARGE:  cpu time    0.2580: real time    0.2583
    MIXING:  cpu time    0.0010: real time    0.0009
    --------------------------------------------
      LOOP:  cpu time    5.2042: real time    5.4275

 eigenvalue-minimisations  :  3471
 total energy-change (2. order) : 0.1562899E-02  (-0.4224642E-04)
 number of electron       8.0000000 magnetization 
 augmentation part       -0.0205265 magnetization 

 Broyden mixing:
  rms(total) = 0.82595E-02    rms(broyden)= 0.82592E-02
  rms(prec ) = 0.11468E-01
  weight for this iteration     100.00

 eigenvalues of (default mixing * dielectric matrix)
  average eigenvalue GAMMA=   2.0888
  0.9928  2.5340  2.5340  2.2947

 Free energy of the ion-electron system (eV)
  ---------------------------------------------------
  alpha Z        PSCENC =         1.37229745
  Ewald energy   TEWEN  =      2232.00673347
  -Hartree energ DENC   =     -2468.38627585
  -exchange      EXHF   =         0.00000000
  -V(xc)+E(xc)   XCENC  =        15.57941973
  PAW double counting   =      4140.19449079    -4129.85430733
  entropy T*S    EENTRO =        -0.00000000
  eigenvalues    EBANDS =      -103.70231989
  atomic energy  EATOM  =       294.30319316
  Solvation  Ediel_sol  =         0.00000000
  ---------------------------------------------------
  free energy    TOTEN  =       -18.48676846 eV

  energy without entropy =      -18.48676846  energy(sigma->0) =      -18.48676846


--------------------------------------------------------------------------------------------------------




--------------------------------------- Iteration      1(  17)  ---------------------------------------


    POTLOK:  cpu time    0.0200: real time    0.0336
    SETDIJ:  cpu time    0.0020: real time    0.0017
    EDDIAG:  cpu time    1.0518: real time    1.0555
  RMM-DIIS:  cpu time    3.8504: real time    3.8599
    ORTHCH:  cpu time    0.0530: real time    0.0525
       DOS:  cpu time    0.0000: real time    0.0006
    CHARGE:  cpu time    0.2590: real time    0.2586
    MIXING:  cpu time    0.0010: real time    0.0009
    --------------------------------------------
      LOOP:  cpu time    5.2372: real time    5.2633

 eigenvalue-minimisations  :  3457
 total energy-change (2. order) : 0.1320293E-02  (-0.5714722E-04)
 number of electron       8.0000000 magnetization 
 augmentation part       -0.0205765 magnetization 

 Broyden mixing:
  rms(total) = 0.60616E-02    rms(broyden)= 0.60614E-02
  rms(prec ) = 0.74960E-02
  weight for this iteration     100.00

 eigenvalues of (default mixing * dielectric matrix)
  average eigenvalue GAMMA=   2.1166
  3.7670  2.3661  1.0314  1.8042  1.6143

 Free energy of the ion-electron system (eV)
  ---------------------------------------------------
  alpha Z        PSCENC =         1.37229745
  Ewald energy   TEWEN  =      2232.00673347
  -Hartree energ DENC   =     -2470.71819603
  -exchange      EXHF   =         0.00000000
  -V(xc)+E(xc)   XCENC  =        15.60640785
  PAW double counting   =      4082.74637814    -4072.40782537
  entropy T*S    EENTRO =        -0.00000000
  eigenvalues    EBANDS =      -101.39443684
  atomic energy  EATOM  =       294.30319316
  Solvation  Ediel_sol  =         0.00000000
  ---------------------------------------------------
  free energy    TOTEN  =       -18.48544817 eV

  energy without entropy =      -18.48544817  energy(sigma->0) =      -18.48544817


--------------------------------------------------------------------------------------------------------




--------------------------------------- Iteration      1(  18)  ---------------------------------------


    POTLOK:  cpu time    0.0190: real time    0.0329
    SETDIJ:  cpu time    0.0020: real time    0.0017
    EDDIAG:  cpu time    1.0488: real time    1.0514
  RMM-DIIS:  cpu time    3.8574: real time    3.8677
    ORTHCH:  cpu time    0.0520: real time    0.0522
       DOS:  cpu time    0.0010: real time    0.0006
    CHARGE:  cpu time    0.2590: real time    0.2587
    MIXING:  cpu time    0.0010: real time    0.0022
    --------------------------------------------
      LOOP:  cpu time    5.2402: real time    5.2673

 eigenvalue-minimisations  :  3456
 total energy-change (2. order) : 0.4811694E-04  (-0.1690933E-04)
 number of electron       8.0000000 magnetization 
 augmentation part       -0.0205606 magnetization 

 Broyden mixing:
  rms(total) = 0.59257E-02    rms(broyden)= 0.59256E-02
  rms(prec ) = 0.64782E-02
  weight for this iteration     100.00

 eigenvalues of (default mixing * dielectric matrix)
  average eigenvalue GAMMA=   2.5700
  5.9346  2.9287  2.3827  2.1982  0.9879  0.9879

 Free energy of the ion-electron system (eV)
  ---------------------------------------------------
  alpha Z        PSCENC =         1.37229745
  Ewald energy   TEWEN  =      2232.00673347
  -Hartree energ DENC   =     -2471.96378651
  -exchange      EXHF   =         0.00000000
  -V(xc)+E(xc)   XCENC  =        15.61147634
  PAW double counting   =      4125.17181728    -4114.82863117
  entropy T*S    EENTRO =        -0.00000000
  eigenvalues    EBANDS =      -100.15850008
  atomic energy  EATOM  =       294.30319316
  Solvation  Ediel_sol  =         0.00000000
  ---------------------------------------------------
  free energy    TOTEN  =       -18.48540005 eV

  energy without entropy =      -18.48540005  energy(sigma->0) =      -18.48540005


--------------------------------------------------------------------------------------------------------




--------------------------------------- Iteration      1(  19)  ---------------------------------------


    POTLOK:  cpu time    0.0190: real time    0.0334
    SETDIJ:  cpu time    0.0020: real time    0.0017
    EDDIAG:  cpu time    1.0508: real time    1.0526
  RMM-DIIS:  cpu time    3.8524: real time    3.8636
    ORTHCH:  cpu time    0.0520: real time    0.0519
       DOS:  cpu time    0.0010: real time    0.0006
    CHARGE:  cpu time    0.2580: real time    0.2586
    MIXING:  cpu time    0.0010: real time    0.0010
    --------------------------------------------
      LOOP:  cpu time    5.2362: real time    5.2632

 eigenvalue-minimisations  :  3456
 total energy-change (2. order) :-0.4666263E-03  (-0.1513113E-04)
 number of electron       8.0000000 magnetization 
 augmentation part       -0.0206003 magnetization 

 Broyden mixing:
  rms(total) = 0.16171E-02    rms(broyden)= 0.16169E-02
  rms(prec ) = 0.18844E-02
  weight for this iteration     100.00

 eigenvalues of (default mixing * dielectric matrix)
  average eigenvalue GAMMA=   2.3905
  6.0865  2.9601  2.3168  2.1278  1.3895  0.9976  0.8551

 Free energy of the ion-electron system (eV)
  ---------------------------------------------------
  alpha Z        PSCENC =         1.37229745
  Ewald energy   TEWEN  =      2232.00673347
  -Hartree energ DENC   =     -2473.20927207
  -exchange      EXHF   =         0.00000000
  -V(xc)+E(xc)   XCENC  =        15.61899542
  PAW double counting   =      4094.94318433    -4084.60238220
  entropy T*S    EENTRO =        -0.00000000
  eigenvalues    EBANDS =       -98.91861624
  atomic energy  EATOM  =       294.30319316
  Solvation  Ediel_sol  =         0.00000000
  ---------------------------------------------------
  free energy    TOTEN  =       -18.48586668 eV

  energy without entropy =      -18.48586668  energy(sigma->0) =      -18.48586668


--------------------------------------------------------------------------------------------------------




--------------------------------------- Iteration      1(  20)  ---------------------------------------


    POTLOK:  cpu time    0.0200: real time    0.0328
    SETDIJ:  cpu time    0.0020: real time    0.0017
    EDDIAG:  cpu time    1.0538: real time    1.0572
  RMM-DIIS:  cpu time    3.9034: real time    3.9141
    ORTHCH:  cpu time    0.0520: real time    0.0519
       DOS:  cpu time    0.0000: real time    0.0006
    CHARGE:  cpu time    0.2590: real time    0.2586
    MIXING:  cpu time    0.0010: real time    0.0010
    --------------------------------------------
      LOOP:  cpu time    5.2912: real time    5.3178

 eigenvalue-minimisations  :  3465
 total energy-change (2. order) :-0.2786432E-03  (-0.5458238E-06)
 number of electron       8.0000000 magnetization 
 augmentation part       -0.0206007 magnetization 

 Broyden mixing:
  rms(total) = 0.20156E-02    rms(broyden)= 0.20156E-02
  rms(prec ) = 0.21462E-02
  weight for this iteration     100.00

 eigenvalues of (default mixing * dielectric matrix)
  average eigenvalue GAMMA=   2.7590
  7.6734  4.1593  2.7015  2.2965  2.2965  0.9898  0.9898  0.9651

 Free energy of the ion-electron system (eV)
  ---------------------------------------------------
  alpha Z        PSCENC =         1.37229745
  Ewald energy   TEWEN  =      2232.00673347
  -Hartree energ DENC   =     -2473.32599194
  -exchange      EXHF   =         0.00000000
  -V(xc)+E(xc)   XCENC  =        15.61864958
  PAW double counting   =      4090.24807448    -4079.90734276
  entropy T*S    EENTRO =        -0.00000000
  eigenvalues    EBANDS =       -98.80175878
  atomic energy  EATOM  =       294.30319316
  Solvation  Ediel_sol  =         0.00000000
  ---------------------------------------------------
  free energy    TOTEN  =       -18.48614532 eV

  energy without entropy =      -18.48614532  energy(sigma->0) =      -18.48614532


--------------------------------------------------------------------------------------------------------




--------------------------------------- Iteration      1(  21)  ---------------------------------------


    POTLOK:  cpu time    0.0300: real time    0.0312
    SETDIJ:  cpu time    0.0020: real time    0.0017
    EDDIAG:  cpu time    1.0488: real time    1.0518
  RMM-DIIS:  cpu time    3.8714: real time    3.8823
    ORTHCH:  cpu time    0.0520: real time    0.0519
       DOS:  cpu time    0.0000: real time    0.0006
    CHARGE:  cpu time    0.2590: real time    0.2585
    MIXING:  cpu time    0.0010: real time    0.0010
    --------------------------------------------
      LOOP:  cpu time    5.2642: real time    5.2790

 eigenvalue-minimisations  :  3456
 total energy-change (2. order) :-0.5671119E-03  (-0.4618027E-05)
 number of electron       8.0000000 magnetization 
 augmentation part       -0.0205933 magnetization 

 Broyden mixing:
  rms(total) = 0.62751E-03    rms(broyden)= 0.62749E-03
  rms(prec ) = 0.66377E-03
  weight for this iteration     100.00

 eigenvalues of (default mixing * dielectric matrix)
  average eigenvalue GAMMA=   2.9341
  8.2820  4.9650  3.1799  2.5999  2.2160  2.2160  1.0019  0.9729  0.9729

 Free energy of the ion-electron system (eV)
  ---------------------------------------------------
  alpha Z        PSCENC =         1.37229745
  Ewald energy   TEWEN  =      2232.00673347
  -Hartree energ DENC   =     -2473.51589399
  -exchange      EXHF   =         0.00000000
  -V(xc)+E(xc)   XCENC  =        15.61676102
  PAW double counting   =      4103.30384844    -4092.96245446
  entropy T*S    EENTRO =        -0.00000000
  eigenvalues    EBANDS =       -98.61119754
  atomic energy  EATOM  =       294.30319316
  Solvation  Ediel_sol  =         0.00000000
  ---------------------------------------------------
  free energy    TOTEN  =       -18.48671244 eV

  energy without entropy =      -18.48671244  energy(sigma->0) =      -18.48671244


--------------------------------------------------------------------------------------------------------




--------------------------------------- Iteration      1(  22)  ---------------------------------------


    POTLOK:  cpu time    0.0190: real time    0.0298
    SETDIJ:  cpu time    0.0010: real time    0.0017
    EDDIAG:  cpu time    1.0498: real time    1.0521
  RMM-DIIS:  cpu time    3.7544: real time    3.7637
    ORTHCH:  cpu time    0.0510: real time    0.0519
       DOS:  cpu time    0.0010: real time    0.0006
    CHARGE:  cpu time    0.2570: real time    0.2585
    MIXING:  cpu time    0.0010: real time    0.0011
    --------------------------------------------
      LOOP:  cpu time    5.1342: real time    5.1594

 eigenvalue-minimisations  :  3385
 total energy-change (2. order) :-0.9059828E-04  (-0.2735997E-06)
 number of electron       8.0000000 magnetization 
 augmentation part       -0.0205919 magnetization 

 Broyden mixing:
  rms(total) = 0.33810E-03    rms(broyden)= 0.33810E-03
  rms(prec ) = 0.35968E-03
  weight for this iteration     100.00

 eigenvalues of (default mixing * dielectric matrix)
  average eigenvalue GAMMA=   2.7968
  8.4144  5.2524  3.1946  2.6247  2.2995  2.2995  0.9963  0.9841  0.9841  0.9189

 Free energy of the ion-electron system (eV)
  ---------------------------------------------------
  alpha Z        PSCENC =         1.37229745
  Ewald energy   TEWEN  =      2232.00673347
  -Hartree energ DENC   =     -2473.54108683
  -exchange      EXHF   =         0.00000000
  -V(xc)+E(xc)   XCENC  =        15.61653086
  PAW double counting   =      4100.39965627    -4090.05822669
  entropy T*S    EENTRO =        -0.00000000
  eigenvalues    EBANDS =       -98.58590074
  atomic energy  EATOM  =       294.30319316
  Solvation  Ediel_sol  =         0.00000000
  ---------------------------------------------------
  free energy    TOTEN  =       -18.48680303 eV

  energy without entropy =      -18.48680303  energy(sigma->0) =      -18.48680303


--------------------------------------------------------------------------------------------------------




--------------------------------------- Iteration      1(  23)  ---------------------------------------


    POTLOK:  cpu time    0.0200: real time    0.0314
    SETDIJ:  cpu time    0.0010: real time    0.0017
    EDDIAG:  cpu time    1.0468: real time    1.0488
  RMM-DIIS:  cpu time    3.8404: real time    3.8510
    ORTHCH:  cpu time    0.0530: real time    0.0524
       DOS:  cpu time    0.0000: real time    0.0006
    CHARGE:  cpu time    0.2580: real time    0.2586
    MIXING:  cpu time    0.0030: real time    0.0128
    --------------------------------------------
      LOOP:  cpu time    5.2222: real time    5.2573

 eigenvalue-minimisations  :  3456
 total energy-change (2. order) :-0.2374291E-04  (-0.6565172E-07)
 number of electron       8.0000000 magnetization 
 augmentation part       -0.0205937 magnetization 

 Broyden mixing:
  rms(total) = 0.74882E-04    rms(broyden)= 0.74875E-04
  rms(prec ) = 0.96308E-04
  weight for this iteration     100.00

 eigenvalues of (default mixing * dielectric matrix)
  average eigenvalue GAMMA=   2.9625
  8.7607  5.8577  4.0980  2.8581  2.5251  2.2716  2.2716  0.9927  0.9779  0.9872
  0.9872

 Free energy of the ion-electron system (eV)
  ---------------------------------------------------
  alpha Z        PSCENC =         1.37229745
  Ewald energy   TEWEN  =      2232.00673347
  -Hartree energ DENC   =     -2473.57642235
  -exchange      EXHF   =         0.00000000
  -V(xc)+E(xc)   XCENC  =        15.61697679
  PAW double counting   =      4099.12528307    -4088.78399648
  entropy T*S    EENTRO =        -0.00000000
  eigenvalues    EBANDS =       -98.55089190
  atomic energy  EATOM  =       294.30319316
  Solvation  Ediel_sol  =         0.00000000
  ---------------------------------------------------
  free energy    TOTEN  =       -18.48682678 eV

  energy without entropy =      -18.48682678  energy(sigma->0) =      -18.48682678


--------------------------------------------------------------------------------------------------------




--------------------------------------- Iteration      1(  24)  ---------------------------------------


    POTLOK:  cpu time    0.0190: real time    0.0333
    SETDIJ:  cpu time    0.0020: real time    0.0017
    EDDIAG:  cpu time    1.0458: real time    1.0501
  RMM-DIIS:  cpu time    3.7394: real time    3.7479
    ORTHCH:  cpu time    0.0510: real time    0.0520
       DOS:  cpu time    0.0010: real time    0.0006
    CHARGE:  cpu time    0.2590: real time    0.2586
    MIXING:  cpu time    0.0010: real time    0.0012
    --------------------------------------------
      LOOP:  cpu time    5.1182: real time    5.1453

 eigenvalue-minimisations  :  3240
 total energy-change (2. order) :-0.1404374E-04  (-0.1422532E-07)
 number of electron       8.0000000 magnetization 
 augmentation part       -0.0205941 magnetization 

 Broyden mixing:
  rms(total) = 0.67435E-04    rms(broyden)= 0.67434E-04
  rms(prec ) = 0.73114E-04
  weight for this iteration     100.00

 eigenvalues of (default mixing * dielectric matrix)
  average eigenvalue GAMMA=   2.9277
  8.8032  5.9748  4.0360  2.8579  2.8579  2.5321  2.1357  1.9808  0.9809  0.9809
  0.9964  0.9964

 Free energy of the ion-electron system (eV)
  ---------------------------------------------------
  alpha Z        PSCENC =         1.37229745
  Ewald energy   TEWEN  =      2232.00673347
  -Hartree energ DENC   =     -2473.59321389
  -exchange      EXHF   =         0.00000000
  -V(xc)+E(xc)   XCENC  =        15.61704056
  PAW double counting   =      4099.22390222    -4088.88264586
  entropy T*S    EENTRO =        -0.00000000
  eigenvalues    EBANDS =       -98.53414793
  atomic energy  EATOM  =       294.30319316
  Solvation  Ediel_sol  =         0.00000000
  ---------------------------------------------------
  free energy    TOTEN  =       -18.48684082 eV

  energy without entropy =      -18.48684082  energy(sigma->0) =      -18.48684082


--------------------------------------------------------------------------------------------------------




--------------------------------------- Iteration      1(  25)  ---------------------------------------


    POTLOK:  cpu time    0.0190: real time    0.0327
    SETDIJ:  cpu time    0.0010: real time    0.0017
    EDDIAG:  cpu time    1.0458: real time    1.0481
  RMM-DIIS:  cpu time    3.7374: real time    3.7446
    ORTHCH:  cpu time    0.0520: real time    0.0521
[...]
     12       6.0553      0.00000
     13       6.2067      0.00000
     14       7.0242      0.00000
     15       7.4102      0.00000
     16       8.5738      0.00000
     17       9.0553      0.00000
     18      10.0607      0.00000
     19      10.4148      0.00000
     20      11.0681      0.00000
     21      12.3408      0.00000
     22      13.4107      0.00000
     23      13.7721      0.00000
     24      14.5923      0.00000

 k-point    60 :      -0.0417    0.3750    0.0000
  band No.  band energies     occupation 
      1     -19.7564      2.00000
      2     -13.3515      2.00000
      3      -9.2152      2.00000
      4      -7.4100      2.00000
      5       1.1290      0.00000
      6       4.1063      0.00000
      7       4.6972      0.00000
      8       4.9611      0.00000
      9       5.2422      0.00000
     10       5.5398      0.00000
     11       5.7527      0.00000
     12       6.3816      0.00000
     13       6.6780      0.00000
     14       7.5973      0.00000
     15       7.9686      0.00000
     16       9.1492      0.00000
     17       9.6159      0.00000
     18      10.9984      0.00000
     19      11.6090      0.00000
     20      12.0859      0.00000
     21      12.8903      0.00000
     22      13.7411      0.00000
     23      13.8591      0.00000
     24      13.9631      0.00000

 k-point    61 :       0.0417    0.4583    0.0000
  band No.  band energies     occupation 
      1     -17.6129      2.00000
      2     -16.2040      2.00000
      3      -9.6911      2.00000
      4      -5.5751      2.00000
      5      -1.4283      0.00000
      6       4.4261      0.00000
      7       7.3937      0.00000
      8       8.2421      0.00000
      9       8.6539      0.00000
     10       8.6705      0.00000
     11       8.9221      0.00000
     12       9.1534      0.00000
     13       9.4905      0.00000
     14       9.7675      0.00000
     15      10.0226      0.00000
     16      10.0550      0.00000
     17      10.2719      0.00000
     18      10.5034      0.00000
     19      10.8557      0.00000
     20      11.1060      0.00000
     21      11.3172      0.00000
     22      11.3898      0.00000
     23      12.0633      0.00000
     24      12.5113      0.00000

 k-point    62 :       0.1250    0.4583    0.0000
  band No.  band energies     occupation 
      1     -17.4027      2.00000
      2     -15.9992      2.00000
      3     -10.6645      2.00000
      4      -5.2804      2.00000
      5      -1.5195      0.00000
      6       5.7755      0.00000
      7       7.6912      0.00000
      8       8.3562      0.00000
      9       8.9468      0.00000
     10       8.9982      0.00000
     11       9.1902      0.00000
     12       9.4845      0.00000
     13       9.5836      0.00000
     14      10.0992      0.00000
     15      10.3716      0.00000
     16      10.3799      0.00000
     17      10.5738      0.00000
     18      10.8448      0.00000
     19      11.0059      0.00000
     20      11.4378      0.00000
     21      11.6245      0.00000
     22      11.7162      0.00000
     23      12.0709      0.00000
     24      12.8819      0.00000

 k-point    63 :       0.2083    0.4583    0.0000
  band No.  band energies     occupation 
      1     -17.6608      2.00000
      2     -14.8735      2.00000
      3     -12.0301      2.00000
      4      -5.2043      2.00000
      5      -1.2559      0.00000
      6       7.1359      0.00000
      7       7.5842      0.00000
      8       7.9804      0.00000
      9       8.4284      0.00000
     10       8.6037      0.00000
     11       8.9185      0.00000
     12       9.1640      0.00000
     13       9.8099      0.00000
     14       9.9064      0.00000
     15      10.3049      0.00000
     16      10.9943      0.00000
     17      11.0836      0.00000
     18      12.2770      0.00000
     19      12.4978      0.00000
     20      12.6290      0.00000
     21      12.6708      0.00000
     22      12.7968      0.00000
     23      13.0044      0.00000
     24      13.3143      0.00000

 k-point    64 :       0.2917    0.4583    0.0000
  band No.  band energies     occupation 
      1     -17.7221      2.00000
      2     -14.3649      2.00000
      3     -12.5943      2.00000
      4      -5.1978      2.00000
      5      -1.1551      0.00000
      6       7.0364      0.00000
      7       7.3886      0.00000
      8       8.3172      0.00000
      9       8.4812      0.00000
     10       8.7974      0.00000
     11       9.0238      0.00000
     12       9.0657      0.00000
     13       9.7024      0.00000
     14       9.7885      0.00000
     15      10.1033      0.00000
     16      10.9163      0.00000
     17      10.9846      0.00000
     18      12.4106      0.00000
     19      12.5762      0.00000
     20      13.3553      0.00000
     21      13.6503      0.00000
     22      13.8703      0.00000
     23      14.1962      0.00000
     24      14.3809      0.00000

 k-point    65 :       0.3750    0.4583    0.0000
  band No.  band energies     occupation 
      1     -17.5292      2.00000
      2     -15.4555      2.00000
      3     -11.3686      2.00000
      4      -5.2108      2.00000
      5      -1.3973      0.00000
      6       6.7240      0.00000
      7       7.3881      0.00000
      8       7.9266      0.00000
      9       8.6656      0.00000
     10       8.8563      0.00000
     11       9.1532      0.00000
     12       9.4257      0.00000
     13       9.7884      0.00000
     14      10.0586      0.00000
     15      10.0902      0.00000
     16      11.0349      0.00000
     17      11.3054      0.00000
     18      11.4334      0.00000
     19      11.5534      0.00000
     20      11.8685      0.00000
     21      11.9256      0.00000
     22      12.5734      0.00000
     23      12.6566      0.00000
     24      12.9669      0.00000

 k-point    66 :       0.4583    0.4583    0.0000
  band No.  band energies     occupation 
      1     -17.3479      2.00000
      2     -16.2992      2.00000
      3     -10.1261      2.00000
      4      -5.3785      2.00000
      5      -1.5335      0.00000
      6       4.8807      0.00000
      7       8.0717      0.00000
      8       8.2364      0.00000
      9       8.7571      0.00000
     10       9.1320      0.00000
     11       9.4665      0.00000
     12       9.4926      0.00000
     13       9.7006      0.00000
     14       9.7594      0.00000
     15       9.9473      0.00000
     16       9.9810      0.00000
     17      10.4121      0.00000
     18      10.5975      0.00000
     19      10.8330      0.00000
     20      10.8766      0.00000
     21      11.4241      0.00000
     22      11.8201      0.00000
     23      12.0736      0.00000
     24      12.1323      0.00000

 k-point    67 :      -0.4583    0.4583    0.0000
  band No.  band energies     occupation 
      1     -17.9535      2.00000
      2     -15.8412      2.00000
      3      -9.5606      2.00000
      4      -5.7787      2.00000
      5      -1.1787      0.00000
      6       4.1840      0.00000
      7       6.7719      0.00000
      8       7.6255      0.00000
      9       7.9955      0.00000
     10       8.2709      0.00000
     11       8.4914      0.00000
     12       9.0847      0.00000
     13       9.3077      0.00000
     14       9.4083      0.00000
     15      10.0967      0.00000
     16      10.3613      0.00000
     17      10.6728      0.00000
     18      10.7352      0.00000
     19      10.9789      0.00000
     20      11.2089      0.00000
     21      11.6382      0.00000
     22      11.8927      0.00000
     23      12.0899      0.00000
     24      12.4204      0.00000

 k-point    68 :      -0.3750    0.4583    0.0000
  band No.  band energies     occupation 
      1     -18.5997      2.00000
      2     -14.8110      2.00000
      3      -9.9651      2.00000
      4      -6.2330      2.00000
      5      -0.4443      0.00000
      6       4.9595      0.00000
      7       5.7955      0.00000
      8       6.6088      0.00000
      9       6.9613      0.00000
     10       7.2404      0.00000
     11       7.4629      0.00000
     12       8.0613      0.00000
     13       8.3780      0.00000
     14       9.2341      0.00000
     15       9.6568      0.00000
     16      10.6242      0.00000
     17      10.7113      0.00000
     18      11.2955      0.00000
     19      11.5062      0.00000
     20      12.4517      0.00000
     21      12.5019      0.00000
     22      12.7878      0.00000
     23      12.8711      0.00000
     24      13.3503      0.00000

 k-point    69 :      -0.2917    0.4583    0.0000
  band No.  band energies     occupation 
      1     -18.9823      2.00000
      2     -13.6139      2.00000
      3     -11.0006      2.00000
      4      -6.5424      2.00000
      5       0.2719      0.00000
      6       5.2205      0.00000
      7       6.0036      0.00000
      8       6.3844      0.00000
      9       6.6565      0.00000
     10       6.8533      0.00000
     11       6.9447      0.00000
     12       7.4682      0.00000
     13       7.8108      0.00000
     14       8.6198      0.00000
     15       9.0903      0.00000
     16       9.9697      0.00000
     17      10.5760      0.00000
     18      10.7813      0.00000
     19      11.1990      0.00000
     20      12.6298      0.00000
     21      12.7212      0.00000
     22      13.9295      0.00000
     23      14.3914      0.00000
     24      14.6794      0.00000

 k-point    70 :      -0.2083    0.4583    0.0000
  band No.  band energies     occupation 
      1     -19.0624      2.00000
      2     -13.1540      2.00000
      3     -11.4437      2.00000
      4      -6.6112      2.00000
      5       0.4542      0.00000
      6       5.1089      0.00000
      7       5.8728      0.00000
      8       6.2666      0.00000
      9       6.5354      0.00000
     10       6.7686      0.00000
     11       7.3433      0.00000
     12       7.6750      0.00000
     13       8.1330      0.00000
     14       8.4860      0.00000
     15       8.9800      0.00000
     16       9.5253      0.00000
     17       9.8117      0.00000
     18      10.6242      0.00000
     19      11.0432      0.00000
     20      12.5415      0.00000
     21      12.6078      0.00000
     22      14.5966      0.00000
     23      14.8051      0.00000
     24      14.9515      0.00000

 k-point    71 :      -0.1250    0.4583    0.0000
  band No.  band energies     occupation 
      1     -18.8353      2.00000
      2     -14.2341      2.00000
      3     -10.4129      2.00000
      4      -6.4226      2.00000
      5      -0.0628      0.00000
      6       5.4173      0.00000
      7       5.9288      0.00000
      8       6.2445      0.00000
      9       6.6071      0.00000
     10       6.8831      0.00000
     11       7.1108      0.00000
     12       7.7008      0.00000
     13       8.0276      0.00000
     14       8.8661      0.00000
     15       9.3083      0.00000
     16      10.2541      0.00000
     17      10.9124      0.00000
     18      11.0866      0.00000
     19      11.4460      0.00000
     20      12.6726      0.00000
     21      12.9214      0.00000
     22      13.3698      0.00000
     23      13.5347      0.00000
     24      13.7335      0.00000

 k-point    72 :      -0.0417    0.4583    0.0000
  band No.  band energies     occupation 
      1     -18.3184      2.00000
      2     -15.3773      2.00000
      3      -9.6111      2.00000
      4      -6.0287      2.00000
      5      -0.8494      0.00000
      6       4.4664      0.00000
      7       6.2124      0.00000
      8       7.0547      0.00000
      9       7.4049      0.00000
     10       7.6849      0.00000
     11       7.9042      0.00000
     12       8.5068      0.00000
     13       8.8162      0.00000
     14       9.6789      0.00000
     15       9.9756      0.00000
     16      10.1031      0.00000
     17      10.7692      0.00000
     18      11.2842      0.00000
     19      11.5055      0.00000
     20      11.7249      0.00000
     21      11.7458      0.00000
     22      11.9665      0.00000
     23      12.4497      0.00000
     24      12.8308      0.00000


--------------------------------------------------------------------------------------------------------


 soft charge-density along one line, spin component           1
         0         1         2         3         4         5         6         7         8         9
 total charge-density along one line
 
 pseudopotential strength for first ion, spin component:           1
 12.715  21.397   0.000  -0.000  -0.000   0.000  -0.000  -0.000
 21.397  36.006   0.000  -0.000  -0.000   0.000  -0.000  -0.000
  0.000   0.000  -3.175   0.000  -0.000  -5.691   0.000  -0.000
 -0.000  -0.000   0.000  -3.176  -0.000   0.000  -5.693  -0.000
 -0.000  -0.000  -0.000  -0.000  -3.175  -0.000  -0.000  -5.691
  0.000   0.000  -5.691   0.000  -0.000 -10.179   0.000  -0.000
 -0.000  -0.000   0.000  -5.693  -0.000   0.000 -10.182  -0.000
 -0.000  -0.000  -0.000  -0.000  -5.691  -0.000  -0.000 -10.179
 total augmentation occupancy for first ion, spin component:           1
  7.801  -2.729  -0.002   0.000   0.021   0.001   0.000  -0.009
 -2.729   0.992   0.001   0.000  -0.009  -0.000   0.000   0.004
 -0.002   0.001   7.372   0.000  -0.002  -2.513   0.000  -0.000
  0.000   0.000   0.000   3.307   0.000   0.000  -0.892   0.000
  0.021  -0.009  -0.002   0.000   7.376  -0.000   0.000  -2.514
  0.001  -0.000  -2.513   0.000  -0.000   0.870   0.000   0.000
  0.000   0.000   0.000  -0.892   0.000   0.000   0.247   0.000
 -0.009   0.004  -0.000   0.000  -2.514   0.000   0.000   0.871


------------------------ aborting loop because EDIFF is reached ----------------------------------------


    CHARGE:  cpu time    0.2570: real time    0.2578
    FORLOC:  cpu time    0.0010: real time    0.0006
    FORNL :  cpu time    0.1420: real time    0.1422
    STRESS:  cpu time    2.0117: real time    2.0159
    FORCOR:  cpu time    0.0150: real time    0.0144
    FORHAR:  cpu time    0.0030: real time    0.0035
    MIXING:  cpu time    0.0010: real time    0.0007
    OFIELD:  cpu time    0.0000: real time    0.0001

  Number of pair interactions contributing to vdW energy:   10161
  Edisp (eV):   -0.10827
    FORVDW:  cpu time    0.0020: real time    0.0014

  FORCE on cell =-STRESS in cart. coord.  units (eV):
  Direction    XX          YY          ZZ          XY          YZ          ZX
  --------------------------------------------------------------------------------------
  Alpha Z     1.37230     1.37230     1.37230
  Ewald    2500.66689  2500.56530 -2769.22604    -0.05826     0.00000     0.00000
  Hartree  2462.29423  2462.27704 -2450.96907    -0.02558     0.00000    -0.00000
  E(xc)     -32.39915   -32.39942   -33.35836     0.00249    -0.00000    -0.00000
  Local   -5078.51418 -5078.40558  5090.50186     0.08550    -0.00000     0.00000
  n-local     8.25997     8.25766     6.82997     0.02295    -0.00000    -0.00000
  augment     0.14275     0.14272     0.11791    -0.00031     0.00000     0.00000
  Kinetic   137.99618   138.03893   154.68475    -0.18841     0.00000     0.00000
  Fock        0.00000     0.00000     0.00000     0.00000     0.00000     0.00000
  vdW        -0.00393    -0.00381    -0.00007     0.00082     0.00000     0.00000
  -------------------------------------------------------------------------------------
  Total      -0.18495    -0.15486    -0.04674    -0.16081     0.00000     0.00000
  in kB      -1.85446    -1.55269    -0.46869    -1.61241     0.00000     0.00000
  external pressure =       -1.29 kB  Pullay stress =        0.00 kB


 VOLUME and BASIS-vectors are now :
 -----------------------------------------------------------------------------
  energy-cutoff  :      875.00
  volume of cell :      159.79
      direct lattice vectors                 reciprocal lattice vectors
     1.230644054 -2.135657445  0.000000000     0.405509408 -0.234570511  0.000000000
     1.237769769  2.139771468  0.000000000     0.404729757  0.233220112  0.000000000
     0.000000000  0.000000000 30.282393743     0.000000000  0.000000000  0.033022489

  length of vectors
     2.464856489  2.471982188 30.282393743     0.468466866  0.467116470  0.033022489


 FORCES acting on ions
    electron-ion (+dipol)            ewald-force                    non-local-force                 convergence-correction
 -----------------------------------------------------------------------------------------------
   0.660E+00 -.496E-01 0.743E-07   -.596E+00 0.412E-01 0.000E+00   -.643E-01 0.791E-02 0.000E+00   -.149E-03 -.529E-04 -.681E-12
   -.660E+00 0.497E-01 -.273E-06   0.596E+00 -.412E-01 0.000E+00   0.643E-01 -.791E-02 0.000E+00   0.149E-03 0.529E-04 -.681E-12
 -----------------------------------------------------------------------------------------------
   0.128E-05 0.161E-04 -.199E-06   0.444E-14 0.371E-14 0.000E+00   0.000E+00 0.000E+00 0.000E+00   -.135E-09 0.717E-10 -.136E-11
 
 
 POSITION                                       TOTAL-FORCE (eV/Angst)
 -----------------------------------------------------------------------------------
      1.23739      2.13965     15.14120         0.000094     -0.000547      0.000000
      1.23340     -0.71041     15.14120        -0.000094      0.000547      0.000000
 -----------------------------------------------------------------------------------
    total drift:                                0.000001      0.000016     -0.000000


--------------------------------------------------------------------------------------------------------



  FREE ENERGIE OF THE ION-ELECTRON SYSTEM (eV)
  ---------------------------------------------------
  free  energy   TOTEN  =       -18.59513784 eV

  energy  without entropy=      -18.59513784  energy(sigma->0) =      -18.59513784
 
 d Force = 0.3094581E-03[-0.211E-06, 0.619E-03]  d Energy = 0.3091654E-03 0.293E-06
 d Force =-0.8769444E-03[-0.188E-02, 0.129E-03]  d Ewald  =-0.8783700E-03 0.143E-05


--------------------------------------------------------------------------------------------------------


    POTLOK:  cpu time    0.0220: real time    0.0224


--------------------------------------------------------------------------------------------------------


 stress matrix after NEB project (eV)
     -0.18495     -0.16081      0.00000
     -0.16081     -0.15486      0.00000
      0.00000      0.00000     -0.04674
  FORCES: max atom, RMS     0.000555    0.000555
  FORCE total and by dimension    0.000785    0.000547
  Stress total and by dimension    0.334807    0.184953


--------------------------------------------------------------------------------------------------------


  
 reached required accuracy - stopping structural energy minimisation
     LOOP+:  cpu time   28.3437: real time   28.4942
    4ORBIT:  cpu time    0.0000: real time    0.0000

 total amount of memory used by VASP MPI-rank0    94843. kBytes
=======================================================================

   base      :      30000. kBytes
   nonl-proj :      43987. kBytes
   fftplans  :       1663. kBytes
   grid      :       8239. kBytes
   one-center:          6. kBytes
   wavefun   :      10948. kBytes
 
  
  
 General timing and accounting informations for this job:
 ========================================================
  
                  Total CPU time used (sec):      202.111
                            User time (sec):      200.571
                          System time (sec):        1.541
                         Elapsed time (sec):      204.706
  
                   Maximum memory used (kb):      211672.
                   Average memory used (kb):           0.
  
                          Minor page faults:       161991
                          Major page faults:          271
                 Voluntary context switches:         9411
