<?xml version="1.0" encoding="ISO-8859-1"?>
<modeling>
 <generator>
  <i name="program" type="string">vasp </i>
  <i name="version" type="string">5.4.4.18Apr17-6-g9f103f2a35  </i>
  <i name="subversion" type="string">(build Jan 14 2019 14:48:31) complex            parallel </i>
  <i name="platform" type="string">LinuxIFC </i>
  <i name="date" type="string">2019 09 10 </i>
  <i name="time" type="string">15:54:32 </i>
 </generator>
 <incar>
  <i type="int" name="ISTART">     1</i>
  <i type="string" name="PREC">high</i>
  <i type="string" name="ALGO">very</i>
  <i type="int" name="NELM">    40</i>
  <i type="int" name="IBRION">     2</i>
  <i name="EDIFF">      0.00000010</i>
  <i name="EDIFFG">     -0.01000000</i>
  <i type="int" name="NSW">   100</i>
  <i type="logical" name="LREAL"> F  </i>
  <i type="int" name="ISMEAR">     0</i>
  <i name="SIGMA">      0.05000000</i>
  <i type="logical" name="LWAVE"> F  </i>
  <i type="logical" name="LCHARG"> F  </i>
  <v type="int" name="KPOINT_BSE">    -1     0     0     0</v>
  <i type="int" name="NELM">    40</i>
 </incar>
 <structure name="primitive_cell" >
  <crystal>
   <varray name="basis" >
    <v>       1.23064405      -2.13565745       0.00000000 </v>
    <v>       1.23776977       2.13977147       0.00000000 </v>
    <v>       0.00000000       0.00000000      30.28239374 </v>
   </varray>
   <i name="volume">    159.79259873 </i>
   <varray name="rec_basis" >
    <v>       0.40550941      -0.23457051       0.00000000 </v>
    <v>       0.40472976       0.23322011       0.00000000 </v>
    <v>       0.00000000       0.00000000       0.03302249 </v>
   </varray>
  </crystal>
  <varray name="positions" >
   <v>       0.00000262      -0.00000262      -0.50000000 </v>
   <v>      -0.33333262       0.33333262      -0.50000000 </v>
  </varray>
 </structure>
 <varray name="primitive_index" >
  <v type="int" >        1 </v>
  <v type="int" >        2 </v>
 </varray>
 <kpoints>
  <generation param="Monkhorst-Pack">
   <v type="int" name="divisions">      12       12        1 </v>
   <v name="usershift">      0.00000000       0.00000000       0.00000000 </v>
   <v name="genvec1">      0.08333333      -0.00000000       0.00000000 </v>
   <v name="genvec2">      0.00000000       0.08333333       0.00000000 </v>
   <v name="genvec3">      0.00000000       0.00000000       1.00000000 </v>
   <v name="shift">      0.50000000       0.50000000       0.00000000 </v>
  </generation>
  <varray name="kpointlist" >
   <v>       0.04166667       0.04166667       0.00000000 </v>
   <v>       0.12500000       0.04166667       0.00000000 </v>
   <v>       0.20833333       0.04166667       0.00000000 </v>
   <v>       0.29166667       0.04166667       0.00000000 </v>
   <v>       0.37500000       0.04166667       0.00000000 </v>
   <v>       0.45833333       0.04166667       0.00000000 </v>
   <v>      -0.45833333       0.04166667       0.00000000 </v>
   <v>      -0.37500000       0.04166667       0.00000000 </v>
   <v>      -0.29166667       0.04166667       0.00000000 </v>
   <v>      -0.20833333       0.04166667       0.00000000 </v>
   <v>      -0.12500000       0.04166667       0.00000000 </v>
   <v>      -0.04166667       0.04166667       0.00000000 </v>
   <v>       0.04166667       0.12500000       0.00000000 </v>
   <v>       0.12500000       0.12500000       0.00000000 </v>
   <v>       0.20833333       0.12500000       0.00000000 </v>
   <v>       0.29166667       0.12500000       0.00000000 </v>
   <v>       0.37500000       0.12500000       0.00000000 </v>
   <v>       0.45833333       0.12500000       0.00000000 </v>
   <v>      -0.45833333       0.12500000       0.00000000 </v>
   <v>      -0.37500000       0.12500000       0.00000000 </v>
   <v>      -0.29166667       0.12500000       0.00000000 </v>
   <v>      -0.20833333       0.12500000       0.00000000 </v>
   <v>      -0.12500000       0.12500000       0.00000000 </v>
   <v>      -0.04166667       0.12500000       0.00000000 </v>
   <v>       0.04166667       0.20833333       0.00000000 </v>
   <v>       0.12500000       0.20833333       0.00000000 </v>
   <v>       0.20833333       0.20833333       0.00000000 </v>
   <v>       0.29166667       0.20833333       0.00000000 </v>
   <v>       0.37500000       0.20833333       0.00000000 </v>
   <v>       0.45833333       0.20833333       0.00000000 </v>
   <v>      -0.45833333       0.20833333       0.00000000 </v>
   <v>      -0.37500000       0.20833333       0.00000000 </v>
   <v>      -0.29166667       0.20833333       0.00000000 </v>
   <v>      -0.20833333       0.20833333       0.00000000 </v>
   <v>      -0.12500000       0.20833333       0.00000000 </v>
   <v>      -0.04166667       0.20833333       0.00000000 </v>
   <v>       0.04166667       0.29166667       0.00000000 </v>
   <v>       0.12500000       0.29166667       0.00000000 </v>
   <v>       0.20833333       0.29166667       0.00000000 </v>
   <v>       0.29166667       0.29166667       0.00000000 </v>
   <v>       0.37500000       0.29166667       0.00000000 </v>
   <v>       0.45833333       0.29166667       0.00000000 </v>
   <v>      -0.45833333       0.29166667       0.00000000 </v>
   <v>      -0.37500000       0.29166667       0.00000000 </v>
   <v>      -0.29166667       0.29166667       0.00000000 </v>
   <v>      -0.20833333       0.29166667       0.00000000 </v>
   <v>      -0.12500000       0.29166667       0.00000000 </v>
   <v>      -0.04166667       0.29166667       0.00000000 </v>
   <v>       0.04166667       0.37500000       0.00000000 </v>
   <v>       0.12500000       0.37500000       0.00000000 </v>
   <v>       0.20833333       0.37500000       0.00000000 </v>
   <v>       0.29166667       0.37500000       0.00000000 </v>
   <v>       0.37500000       0.37500000       0.00000000 </v>
   <v>       0.45833333       0.37500000       0.00000000 </v>
   <v>      -0.45833333       0.37500000       0.00000000 </v>
   <v>      -0.37500000       0.37500000       0.00000000 </v>
   <v>      -0.29166667       0.37500000       0.00000000 </v>
   <v>      -0.20833333       0.37500000       0.00000000 </v>
   <v>      -0.12500000       0.37500000       0.00000000 </v>
   <v>      -0.04166667       0.37500000       0.00000000 </v>
   <v>       0.04166667       0.45833333       0.00000000 </v>
   <v>       0.12500000       0.45833333       0.00000000 </v>
   <v>       0.20833333       0.45833333       0.00000000 </v>
   <v>       0.29166667       0.45833333       0.00000000 </v>
   <v>       0.37500000       0.45833333       0.00000000 </v>
   <v>       0.45833333       0.45833333       0.00000000 </v>
   <v>      -0.45833333       0.45833333       0.00000000 </v>
   <v>      -0.37500000       0.45833333       0.00000000 </v>
   <v>      -0.29166667       0.45833333       0.00000000 </v>
   <v>      -0.20833333       0.45833333       0.00000000 </v>
   <v>      -0.12500000       0.45833333       0.00000000 </v>
   <v>      -0.04166667       0.45833333       0.00000000 </v>
  </varray>
  <varray name="weights" >
   <v>       0.01388889 </v>
   <v>       0.01388889 </v>
   <v>       0.01388889 </v>
   <v>       0.01388889 </v>
   <v>       0.01388889 </v>
   <v>       0.01388889 </v>
   <v>       0.01388889 </v>
   <v>       0.01388889 </v>
   <v>       0.01388889 </v>
   <v>       0.01388889 </v>
   <v>       0.01388889 </v>
   <v>       0.01388889 </v>
   <v>       0.01388889 </v>
   <v>       0.01388889 </v>
   <v>       0.01388889 </v>
   <v>       0.01388889 </v>
   <v>       0.01388889 </v>
   <v>       0.01388889 </v>
   <v>       0.01388889 </v>
   <v>       0.01388889 </v>
   <v>       0.01388889 </v>
   <v>       0.01388889 </v>
   <v>       0.01388889 </v>
   <v>       0.01388889 </v>
   <v>       0.01388889 </v>
   <v>       0.01388889 </v>
   <v>       0.01388889 </v>
   <v>       0.01388889 </v>
   <v>       0.01388889 </v>
   <v>       0.01388889 </v>
   <v>       0.01388889 </v>
   <v>       0.01388889 </v>
   <v>       0.01388889 </v>
   <v>       0.01388889 </v>
   <v>       0.01388889 </v>
   <v>       0.01388889 </v>
   <v>       0.01388889 </v>
   <v>       0.01388889 </v>
   <v>       0.01388889 </v>
   <v>       0.01388889 </v>
   <v>       0.01388889 </v>
   <v>       0.01388889 </v>
   <v>       0.01388889 </v>
   <v>       0.01388889 </v>
   <v>       0.01388889 </v>
   <v>       0.01388889 </v>
   <v>       0.01388889 </v>
   <v>       0.01388889 </v>
   <v>       0.01388889 </v>
   <v>       0.01388889 </v>
   <v>       0.01388889 </v>
   <v>       0.01388889 </v>
   <v>       0.01388889 </v>
   <v>       0.01388889 </v>
   <v>       0.01388889 </v>
   <v>       0.01388889 </v>
   <v>       0.01388889 </v>
   <v>       0.01388889 </v>
   <v>       0.01388889 </v>
   <v>       0.01388889 </v>
   <v>       0.01388889 </v>
   <v>       0.01388889 </v>
   <v>       0.01388889 </v>
   <v>       0.01388889 </v>
   <v>       0.01388889 </v>
   <v>       0.01388889 </v>
   <v>       0.01388889 </v>
   <v>       0.01388889 </v>
   <v>       0.01388889 </v>
   <v>       0.01388889 </v>
   <v>       0.01388889 </v>
   <v>       0.01388889 </v>
  </varray>
 </kpoints>
 <parameters>
  <separator name="general" >
   <i type="string" name="SYSTEM">unknown system</i>
   <i type="logical" name="LCOMPAT"> F  </i>
  </separator>
  <separator name="electronic" >
   <i type="string" name="PREC">high</i>
   <i name="ENMAX">    875.00000000</i>
   <i name="ENAUG">    946.76800000</i>
   <i name="EDIFF">      0.00000010</i>
   <i type="int" name="IALGO">    48</i>
   <i type="int" name="IWAVPR">    11</i>
   <i type="int" name="NBANDS">    24</i>
   <i name="NELECT">      8.00000000</i>
   <i type="int" name="TURBO">     0</i>
   <i type="int" name="IRESTART">     0</i>
   <i type="int" name="NREBOOT">     0</i>
   <i type="int" name="NMIN">     0</i>
   <i name="EREF">      0.00000000</i>
   <separator name="electronic smearing" >
    <i type="int" name="ISMEAR">     0</i>
    <i name="SIGMA">      0.05000000</i>
    <i name="KSPACING">      0.50000000</i>
    <i type="logical" name="KGAMMA"> T  </i>
   </separator>
   <separator name="electronic projectors" >
    <i type="logical" name="LREAL"> F  </i>
    <v name="ROPT">      0.00000000</v>
    <i type="int" name="LMAXPAW">  -100</i>
    <i type="int" name="LMAXMIX">     2</i>
    <i type="logical" name="NLSPLINE"> F  </i>
   </separator>
   <separator name="electronic startup" >
    <i type="int" name="ISTART">     0</i>
    <i type="int" name="ICHARG">     2</i>
    <i type="int" name="INIWAV">     1</i>
   </separator>
   <separator name="electronic spin" >
    <i type="int" name="ISPIN">     1</i>
    <i type="logical" name="LNONCOLLINEAR"> F  </i>
    <v name="MAGMOM">      1.00000000      1.00000000</v>
    <i name="NUPDOWN">     -1.00000000</i>
    <i type="logical" name="LSORBIT"> F  </i>
    <v name="SAXIS">      0.00000000      0.00000000      1.00000000</v>
    <i type="logical" name="LSPIRAL"> F  </i>
    <v name="QSPIRAL">      0.00000000      0.00000000      0.00000000</v>
    <i type="logical" name="LZEROZ"> F  </i>
   </separator>
   <separator name="electronic exchange-correlation" >
    <i type="logical" name="LASPH"> F  </i>
    <i type="logical" name="LMETAGGA"> F  </i>
   </separator>
   <separator name="electronic convergence" >
    <i type="int" name="NELM">    40</i>
    <i type="int" name="NELMDL">     0</i>
    <i type="int" name="NELMIN">     2</i>
    <i name="ENINI">    875.00000000</i>
    <separator name="electronic convergence detail" >
     <i type="logical" name="LDIAG"> T  </i>
     <i type="logical" name="LSUBROT"> F  </i>
     <i name="WEIMIN">      0.00100000</i>
     <i name="EBREAK">      0.00000000</i>
     <i name="DEPER">      0.30000000</i>
     <i type="int" name="NRMM">     4</i>
     <i name="TIME">      0.40000000</i>
    </separator>
   </separator>
   <separator name="electronic mixer" >
    <i name="AMIX">      0.40000000</i>
    <i name="BMIX">      1.00000000</i>
    <i name="AMIN">      0.10000000</i>
    <i name="AMIX_MAG">      1.60000000</i>
    <i name="BMIX_MAG">      1.00000000</i>
    <separator name="electronic mixer details" >
     <i type="int" name="IMIX">     4</i>
     <i type="logical" name="MIXFIRST"> F  </i>
     <i type="int" name="MAXMIX">   -45</i>
     <i name="WC">    100.00000000</i>
     <i type="int" name="INIMIX">     1</i>
     <i type="int" name="MIXPRE">     1</i>
     <i type="int" name="MREMOVE">     5</i>
    </separator>
   </separator>
   <separator name="electronic dipolcorrection" >
    <i type="logical" name="LDIPOL"> F  </i>
    <i type="logical" name="LMONO"> F  </i>
    <i type="int" name="IDIPOL">     0</i>
    <i name="EPSILON">      1.00000000</i>
    <v name="DIPOL">   -100.00000000   -100.00000000   -100.00000000</v>
    <i name="EFIELD">      0.00000000</i>
   </separator>
  </separator>
  <separator name="grids" >
   <i type="int" name="NGX">    24</i>
   <i type="int" name="NGY">    24</i>
   <i type="int" name="NGZ">   294</i>
   <i type="int" name="NGXF">    32</i>
   <i type="int" name="NGYF">    36</i>
   <i type="int" name="NGZF">   420</i>
   <i type="logical" name="ADDGRID"> F  </i>
  </separator>
  <separator name="ionic" >
   <i type="int" name="NSW">   100</i>
   <i type="int" name="IBRION">     2</i>
   <i type="int" name="MDALGO">     0</i>
   <i type="int" name="ISIF">     2</i>
   <i name="PSTRESS">      0.00000000</i>
   <i name="EDIFFG">     -0.01000000</i>
   <i type="int" name="NFREE">     1</i>
   <i name="POTIM">      0.50000000</i>
   <i name="SMASS">     -3.00000000</i>
   <i name="SCALEE">      1.00000000</i>
  </separator>
  <separator name="ionic md" >
   <i name="TEBEG">      0.00010000</i>
   <i name="TEEND">      0.00010000</i>
   <i type="int" name="NBLOCK">     1</i>
   <i type="int" name="KBLOCK">   100</i>
   <i type="int" name="NPACO">   256</i>
   <i name="APACO">     16.00000000</i>
  </separator>
  <separator name="symmetry" >
   <i type="int" name="ISYM">     2</i>
   <i name="SYMPREC">      0.00001000</i>
  </separator>
  <separator name="dos" >
   <i type="int" name="LORBIT">     0</i>
   <v name="RWIGS">     -1.00000000</v>
   <i type="int" name="NEDOS">   301</i>
   <i name="EMIN">     10.00000000</i>
   <i name="EMAX">    -10.00000000</i>
   <i name="EFERMI">      0.00000000</i>
  </separator>
  <separator name="writing" >
   <i type="int" name="NWRITE">     2</i>
   <i type="logical" name="LWAVE"> F  </i>
   <i type="logical" name="LDOWNSAMPLE"> F  </i>
   <i type="logical" name="LCHARG"> F  </i>
   <i type="logical" name="LPARD"> F  </i>
   <i type="logical" name="LVTOT"> F  </i>
   <i type="logical" name="LVHAR"> F  </i>
   <i type="logical" name="LELF"> F  </i>
   <i type="logical" name="LOPTICS"> F  </i>
   <v name="STM">      0.00000000      0.00000000      0.00000000      0.00000000      0.00000000      0.00000000      0.00000000</v>
  </separator>
  <separator name="performance" >
   <i type="int" name="NPAR">    24</i>
   <i type="int" name="NSIM">     4</i>
   <i type="int" name="NBLK">    -1</i>
   <i type="logical" name="LPLANE"> T  </i>
   <i type="logical" name="LSCALAPACK"> T  </i>
   <i type="logical" name="LSCAAWARE"> F  </i>
   <i type="logical" name="LSCALU"> F  </i>
   <i type="logical" name="LASYNC"> F  </i>
   <i type="logical" name="LORBITALREAL"> F  </i>
  </separator>
  <separator name="miscellaneous" >
   <i type="int" name="IDIOT">     3</i>
   <i type="int" name="ISPECIAL">     0</i>
   <i type="logical" name="LMUSIC"> F  </i>
   <v name="POMASS">     12.01100000</v>
   <v name="DARWINR">      0.00000000</v>
   <v name="DARWINV">      1.00000000</v>
   <i type="logical" name="LCORR"> T  </i>
  </separator>
  <i type="logical" name="GGA_COMPAT"> T  </i>
  <i type="logical" name="LBERRY"> F  </i>
  <i type="int" name="ICORELEVEL">     0</i>
  <i type="logical" name="LDAU"> F  </i>
  <i type="int" name="I_CONSTRAINED_M">     0</i>
  <separator name="electronic exchange-correlation" >
   <i type="string" name="GGA">--</i>
   <i type="int" name="VOSKOWN">     0</i>
   <i type="logical" name="LHFCALC"> F  </i>
   <i type="string" name="PRECFOCK"></i>
   <i type="logical" name="LSYMGRAD"> F  </i>
   <i type="logical" name="LHFONE"> F  </i>
   <i type="logical" name="LRHFCALC"> F  </i>
   <i type="logical" name="LTHOMAS"> F  </i>
   <i type="logical" name="LMODELHF"> F  </i>
   <i name="ENCUT4O">     -1.00000000</i>
   <i type="int" name="EXXOEP">     0</i>
   <i type="int" name="FOURORBIT">     0</i>
   <i name="AEXX">      0.00000000</i>
   <i name="HFALPHA">      0.00000000</i>
   <i name="MCALPHA">      0.00000000</i>
   <i name="ALDAX">      1.00000000</i>
   <i name="AGGAX">      1.00000000</i>
   <i name="ALDAC">      1.00000000</i>
   <i name="AGGAC">      1.00000000</i>
   <i type="int" name="NKREDX">     1</i>
   <i type="int" name="NKREDY">     1</i>
   <i type="int" name="NKREDZ">     1</i>
   <i type="logical" name="SHIFTRED"> F  </i>
   <i type="logical" name="ODDONLY"> F  </i>
   <i type="logical" name="EVENONLY"> F  </i>
   <i type="int" name="LMAXFOCK">     0</i>
   <i type="int" name="NMAXFOCKAE">     0</i>
   <i type="logical" name="LFOCKAEDFT"> F  </i>
   <i name="HFSCREEN">      0.00000000</i>
   <i name="HFSCREENC">      0.00000000</i>
   <i type="int" name="NBANDSGWLOW">     0</i>
  </separator>
  <separator name="vdW DFT" >
   <i type="logical" name="LUSE_VDW"> F  </i>
   <i name="Zab_VDW">     -0.84910000</i>
   <i name="PARAM1">      0.12340000</i>
   <i name="PARAM2">      1.00000000</i>
   <i name="PARAM3">      0.00000000</i>
  </separator>
  <separator name="model GW" >
   <i type="int" name="MODEL_GW">     0</i>
   <i name="MODEL_EPS0">     47.93777962</i>
   <i name="MODEL_ALPHA">      1.00000000</i>
  </separator>
  <separator name="linear response parameters" >
   <i type="logical" name="LEPSILON"> F  </i>
   <i type="logical" name="LRPA"> F  </i>
   <i type="logical" name="LNABLA"> F  </i>
   <i type="logical" name="LVEL"> F  </i>
   <i type="int" name="KINTER">     0</i>
   <i name="CSHIFT">      0.10000000</i>
   <i name="OMEGAMAX">     -1.00000000</i>
   <i name="DEG_THRESHOLD">      0.00200000</i>
   <i name="RTIME">     -0.10000000</i>
   <i name="WPLASMAI">      0.00000000</i>
   <v name="DFIELD">      0.00000000      0.00000000      0.00000000</v>
   <v name="WPLASMA">      0.00000000      0.00000000      0.00000000      0.00000000      0.00000000      0.00000000      0.00000000      0.00000000      0.00000000</v>
  </separator>
  <separator name="orbital magnetization" >
   <i type="logical" name="NUCIND"> F  </i>
   <v name="MAGPOS">      0.00000000      0.00000000      0.00000000</v>
   <i type="logical" name="LNICSALL"> T  </i>
   <i type="logical" name="ORBITALMAG"> F  </i>
   <i type="logical" name="LMAGBLOCH"> F  </i>
   <i type="logical" name="LCHIMAG"> F  </i>
   <i type="logical" name="LGAUGE"> T  </i>
   <i type="int" name="MAGATOM">     0</i>
   <v name="MAGDIPOL">      0.00000000      0.00000000      0.00000000</v>
   <v name="AVECCONST">      0.00000000      0.00000000      0.00000000</v>
  </separator>
  <separator name="response functions" >
   <i type="logical" name="LADDER"> F  </i>
   <i type="logical" name="LRPAFORCE"> F  </i>
   <i type="logical" name="LFXC"> F  </i>
   <i type="logical" name="LHARTREE"> T  </i>
   <i type="int" name="IBSE">     0</i>
   <v type="int" name="KPOINT">    -1     0     0     0</v>
   <i type="logical" name="LTCTE"> F  </i>
   <i type="logical" name="LTETE"> F  </i>
   <i type="logical" name="LTRIPLET"> F  </i>
   <i type="logical" name="LFXCEPS"> F  </i>
   <i type="logical" name="LFXHEG"> F  </i>
   <i type="int" name="NATURALO">     2</i>
   <i type="logical" name="L2ORDER"> F  </i>
   <i type="logical" name="LMP2LT"> F  </i>
   <i type="logical" name="LUSEW"> F  </i>
   <i name="ENCUTGW">     -2.00000000</i>
   <i name="ENCUTGWSOFT">     -2.00000000</i>
   <i name="ENCUTLF">     -1.00000000</i>
   <i type="int" name="LMAXMP2">    -1</i>
   <i name="SCISSOR">      0.00000000</i>
   <i type="int" name="NOMEGA">     0</i>
   <i type="int" name="NOMEGAR">     0</i>
   <i type="int" name="NBANDSGW">    -1</i>
   <i type="int" name="NBANDSO">    -1</i>
   <i type="int" name="NBANDSV">    -1</i>
   <i type="int" name="NELM">    40</i>
   <i type="int" name="NELMHF">     1</i>
   <i type="int" name="DIM">     3</i>
   <i type="int" name="ANTIRES">     0</i>
   <i name="OMEGAMAX">    -30.00000000</i>
   <i name="OMEGAMIN">    -30.00000000</i>
   <i name="OMEGATL">   -200.00000000</i>
   <i type="int" name="OMEGAGRID">   140</i>
   <i name="CSHIFT">     -0.10000000</i>
   <i type="logical" name="SELFENERGY"> F  </i>
   <i type="logical" name="LSPECTRAL"> F  </i>
   <i type="logical" name="LSPECTRALGW"> F  </i>
   <i type="logical" name="LSINGLES"> F  </i>
   <i type="logical" name="LFERMIGW"> F  </i>
   <i type="logical" name="ODDONLYGW"> F  </i>
   <i type="logical" name="EVENONLYGW"> F  </i>
   <i type="int" name="NKREDLFX">     1</i>
   <i type="int" name="NKREDLFY">     1</i>
   <i type="int" name="NKREDLFZ">     1</i>
   <i type="int" name="MAXMEM">  2800</i>
   <i type="int" name="TELESCOPE">     0</i>
   <i type="int" name="TAUPAR">     1</i>
   <i type="int" name="OMEGAPAR">    -1</i>
   <i name="LAMBDA">      1.00000000</i>
  </separator>
  <separator name="External order field" >
   <i name="OFIELD_KAPPA">      0.00000000</i>
   <v name="OFIELD_K">      0.00000000      0.00000000      0.00000000</v>
   <i name="OFIELD_Q6_NEAR">      0.00000000</i>
   <i name="OFIELD_Q6_FAR">      0.00000000</i>
   <i name="OFIELD_A">      0.00000000</i>
  </separator>
 </parameters>
 <atominfo>
  <atoms>       2 </atoms>
  <types>       1 </types>
  <array name="atoms" >
   <dimension dim="1">ion</dimension>
   <field type="string">element</field>
   <field type="int">atomtype</field>
   <set>
    <rc><c>C </c><c>   1</c></rc>
    <rc><c>C </c><c>   1</c></rc>
   </set>
  </array>
  <array name="atomtypes" >
   <dimension dim="1">type</dimension>
   <field type="int">atomspertype</field>
   <field type="string">element</field>
   <field>mass</field>
   <field>valence</field>
   <field type="string">pseudopotential</field>
   <set>
    <rc><c>   2</c><c>C </c><c>     12.01100000</c><c>      4.00000000</c><c>  PAW_PBE C_h 06Feb2004                 </c></rc>
   </set>
  </array>
 </atominfo>
 <structure name="initialpos" >
  <crystal>
   <varray name="basis" >
    <v>       1.23064405      -2.13565745       0.00000000 </v>
    <v>       1.23776977       2.13977147       0.00000000 </v>
    <v>       0.00000000       0.00000000      30.28239374 </v>
   </varray>
   <i name="volume">    159.79259873 </i>
   <varray name="rec_basis" >
    <v>       0.40550941      -0.23457051       0.00000000 </v>
    <v>       0.40472976       0.23322011       0.00000000 </v>
    <v>       0.00000000       0.00000000       0.03302249 </v>
   </varray>
  </crystal>
  <varray name="positions" >
   <v>       0.00000262       0.99999738       0.50000000 </v>
   <v>       0.66666738       0.33333262       0.50000000 </v>
  </varray>
 </structure>
 <calculation>
  <scstep>
   <time name="diag">    1.09    1.18</time>
   <time name="diis">    2.08    2.10</time>
   <time name="orth">    0.05    0.05</time>
   <time name="total">    3.27    3.42</time>
   <energy>
    <i name="alphaZ">      1.37229745 </i>
    <i name="ewald">   2232.00673347 </i>
    <i name="hartreedc">  -2438.22894593 </i>
    <i name="XCdc">     14.48580331 </i>
    <i name="pawpsdc">    228.69403340 </i>
    <i name="pawaedc">   -218.18290438 </i>
    <i name="eentropy">     -0.00161691 </i>
    <i name="bandstr">    -12.80390309 </i>
    <i name="atom">    294.30319316 </i>
    <i name="e_fr_energy">    101.64469049 </i>
    <i name="e_wo_entrp">    101.64630739 </i>
    <i name="e_0_energy">    101.64549894 </i>
   </energy>
  </scstep>
  <scstep>
   <time name="diag">    1.06    1.07</time>
   <time name="diis">    2.07    2.08</time>
   <time name="orth">    0.05    0.05</time>
   <time name="total">    3.18    3.20</time>
   <energy>
    <i name="e_fr_energy">     49.63265919 </i>
    <i name="e_wo_entrp">     49.63618160 </i>
    <i name="e_0_energy">     49.63442040 </i>
   </energy>
  </scstep>
  <scstep>
   <time name="diag">    1.06    1.08</time>
   <time name="diis">    2.05    2.06</time>
   <time name="orth">    0.05    0.05</time>
   <time name="total">    3.17    3.19</time>
   <energy>
    <i name="e_fr_energy">      8.33213782 </i>
    <i name="e_wo_entrp">      8.33248052 </i>
    <i name="e_0_energy">      8.33230917 </i>
   </energy>
  </scstep>
  <scstep>
   <time name="diag">    1.06    1.08</time>
   <time name="diis">    2.07    2.07</time>
   <time name="orth">    0.05    0.05</time>
   <time name="total">    3.19    3.21</time>
   <energy>
    <i name="e_fr_energy">    -13.80984435 </i>
    <i name="e_wo_entrp">    -13.80907650 </i>
    <i name="e_0_energy">    -13.80946042 </i>
   </energy>
  </scstep>
  <scstep>
   <time name="diag">    1.06    1.08</time>
   <time name="diis">    2.04    2.05</time>
   <time name="orth">    0.05    0.05</time>
   <time name="total">    3.16    3.18</time>
   <energy>
    <i name="e_fr_energy">    -18.41139288 </i>
    <i name="e_wo_entrp">    -18.41139288 </i>
    <i name="e_0_energy">    -18.41139288 </i>
   </energy>
  </scstep>
  <scstep>
   <time name="diag">    1.08    1.08</time>
   <time name="diis">    2.03    2.04</time>
   <time name="orth">    0.05    0.05</time>
   <time name="total">    3.16    3.17</time>
   <energy>
    <i name="e_fr_energy">    -19.40289635 </i>
    <i name="e_wo_entrp">    -19.40289635 </i>
    <i name="e_0_energy">    -19.40289635 </i>
   </energy>
  </scstep>
  <scstep>
   <time name="diag">    1.06    1.08</time>
   <time name="diis">    2.03    2.03</time>
   <time name="orth">    0.05    0.05</time>
   <time name="total">    3.15    3.17</time>
   <energy>
    <i name="e_fr_energy">    -19.63439847 </i>
    <i name="e_wo_entrp">    -19.63439847 </i>
    <i name="e_0_energy">    -19.63439847 </i>
   </energy>
  </scstep>
  <scstep>
   <time name="diag">    1.06    1.08</time>
   <time name="diis">    2.07    2.08</time>
   <time name="orth">    0.05    0.05</time>
   <time name="total">    3.18    3.21</time>
   <energy>
    <i name="e_fr_energy">    -19.69878890 </i>
    <i name="e_wo_entrp">    -19.69878890 </i>
    <i name="e_0_energy">    -19.69878890 </i>
   </energy>
  </scstep>
  <scstep>
   <time name="diag">    1.06    1.08</time>
   <time name="diis">    3.99    4.07</time>
   <time name="orth">    0.05    0.05</time>
   <time name="total">    5.11    5.21</time>
   <energy>
    <i name="e_fr_energy">    -19.72275698 </i>
    <i name="e_wo_entrp">    -19.72275698 </i>
    <i name="e_0_energy">    -19.72275698 </i>
   </energy>
  </scstep>
  <scstep>
   <time name="diag">    1.06    1.08</time>
   <time name="diis">    4.41    4.42</time>
   <time name="orth">    0.05    0.05</time>
   <time name="total">    5.52    5.55</time>
   <energy>
    <i name="e_fr_energy">    -19.72700167 </i>
    <i name="e_wo_entrp">    -19.72700167 </i>
    <i name="e_0_energy">    -19.72700167 </i>
   </energy>
  </scstep>
  <scstep>
   <time name="diag">    1.06    1.08</time>
   <time name="diis">    3.86    3.87</time>
   <time name="orth">    0.05    0.05</time>
   <time name="total">    4.97    5.00</time>
   <energy>
    <i name="e_fr_energy">    -19.72716468 </i>
    <i name="e_wo_entrp">    -19.72716468 </i>
    <i name="e_0_energy">    -19.72716468 </i>
   </energy>
  </scstep>
  <scstep>
   <time name="diag">    1.06    1.08</time>
   <time name="diis">    4.30    4.31</time>
   <time name="orth">    0.05    0.05</time>
   <time name="total">    5.69    5.75</time>
   <energy>
    <i name="e_fr_energy">    -19.72719251 </i>
    <i name="e_wo_entrp">    -19.72719251 </i>
    <i name="e_0_energy">    -19.72719251 </i>
   </energy>
  </scstep>
  <scstep>
   <time name="diag">    1.05    1.06</time>
   <time name="diis">    3.80    3.81</time>
   <time name="orth">    0.05    0.05</time>
   <time name="total">    5.20    5.24</time>
   <energy>
    <i name="e_fr_energy">    -18.84201165 </i>
    <i name="e_wo_entrp">    -18.84201165 </i>
    <i name="e_0_energy">    -18.84201165 </i>
   </energy>
  </scstep>
  <scstep>
   <time name="diag">    1.05    1.05</time>
   <time name="diis">    3.77    3.78</time>
   <time name="orth">    0.05    0.05</time>
   <time name="total">    5.16    5.19</time>
   <energy>
    <i name="e_fr_energy">    -18.50893003 </i>
    <i name="e_wo_entrp">    -18.50893003 </i>
    <i name="e_0_energy">    -18.50893003 </i>
   </energy>
  </scstep>
  <scstep>
   <time name="diag">    1.05    1.05</time>
   <time name="diis">    3.89    3.90</time>
   <time name="orth">    0.05    0.05</time>
   <time name="total">    5.27    5.30</time>
   <energy>
    <i name="e_fr_energy">    -18.48833136 </i>
    <i name="e_wo_entrp">    -18.48833136 </i>
    <i name="e_0_energy">    -18.48833136 </i>
   </energy>
  </scstep>
  <scstep>
   <time name="diag">    1.06    1.09</time>
   <time name="diis">    3.81    3.99</time>
   <time name="orth">    0.05    0.05</time>
   <time name="total">    5.20    5.43</time>
   <energy>
    <i name="e_fr_energy">    -18.48676846 </i>
    <i name="e_wo_entrp">    -18.48676846 </i>
    <i name="e_0_energy">    -18.48676846 </i>
   </energy>
  </scstep>
  <scstep>
   <time name="diag">    1.05    1.06</time>
   <time name="diis">    3.85    3.86</time>
   <time name="orth">    0.05    0.05</time>
   <time name="total">    5.24    5.26</time>
   <energy>
    <i name="e_fr_energy">    -18.48544817 </i>
    <i name="e_wo_entrp">    -18.48544817 </i>
    <i name="e_0_energy">    -18.48544817 </i>
   </energy>
  </scstep>
  <scstep>
   <time name="diag">    1.05    1.05</time>
   <time name="diis">    3.86    3.87</time>
   <time name="orth">    0.05    0.05</time>
   <time name="total">    5.24    5.27</time>
   <energy>
    <i name="e_fr_energy">    -18.48540005 </i>
    <i name="e_wo_entrp">    -18.48540005 </i>
    <i name="e_0_energy">    -18.48540005 </i>
   </energy>
  </scstep>
  <scstep>
   <time name="diag">    1.05    1.05</time>
   <time name="diis">    3.85    3.86</time>
   <time name="orth">    0.05    0.05</time>
   <time name="total">    5.24    5.26</time>
   <energy>
    <i name="e_fr_energy">    -18.48586668 </i>
    <i name="e_wo_entrp">    -18.48586668 </i>
    <i name="e_0_energy">    -18.48586668 </i>
   </energy>
  </scstep>
  <scstep>
   <time name="diag">    1.05    1.06</time>
   <time name="diis">    3.90    3.91</time>
   <time name="orth">    0.05    0.05</time>
   <time name="total">    5.29    5.32</time>
   <energy>
    <i name="e_fr_energy">    -18.48614532 </i>
    <i name="e_wo_entrp">    -18.48614532 </i>
    <i name="e_0_energy">    -18.48614532 </i>
   </energy>
  </scstep>
  <scstep>
   <time name="diag">    1.05    1.05</time>
   <time name="diis">    3.87    3.88</time>
   <time name="orth">    0.05    0.05</time>
   <time name="total">    5.26    5.28</time>
   <energy>
    <i name="e_fr_energy">    -18.48671244 </i>
    <i name="e_wo_entrp">    -18.48671244 </i>
    <i name="e_0_energy">    -18.48671244 </i>
   </energy>
  </scstep>
  <scstep>
   <time name="diag">    1.05    1.05</time>
   <time name="diis">    3.75    3.76</time>
   <time name="orth">    0.05    0.05</time>
   <time name="total">    5.13    5.16</time>
   <energy>
    <i name="e_fr_energy">    -18.48680303 </i>
    <i name="e_wo_entrp">    -18.48680303 </i>
    <i name="e_0_energy">    -18.48680303 </i>
   </energy>
  </scstep>
  <scstep>
   <time name="diag">    1.05    1.05</time>
   <time name="diis">    3.84    3.85</time>
   <time name="orth">    0.05    0.05</time>
   <time name="total">    5.22    5.26</time>
   <energy>
    <i name="e_fr_energy">    -18.48682678 </i>
    <i name="e_wo_entrp">    -18.48682678 </i>
    <i name="e_0_energy">    -18.48682678 </i>
   </energy>
  </scstep>
  <scstep>
   <time name="diag">    1.05    1.05</time>
   <time name="diis">    3.74    3.75</time>
   <time name="orth">    0.05    0.05</time>
   <time name="total">    5.12    5.15</time>
   <energy>
    <i name="e_fr_energy">    -18.48684082 </i>
    <i name="e_wo_entrp">    -18.48684082 </i>
    <i name="e_0_energy">    -18.48684082 </i>
   </energy>
  </scstep>
  <scstep>
   <time name="diag">    1.05    1.05</time>
   <time name="diis">    3.74    3.74</time>
   <time name="orth">    0.05    0.05</time>
   <time name="total">    5.12    5.15</time>
   <energy>
    <i name="e_fr_energy">    -18.48684302 </i>
    <i name="e_wo_entrp">    -18.48684302 </i>
    <i name="e_0_energy">    -18.48684302 </i>
   </energy>
  </scstep>
  <scstep>
   <time name="diag">    1.05    1.05</time>
   <time name="diis">    3.74    3.75</time>
   <time name="orth">    0.05    0.05</time>
   <time name="total">    5.12    5.14</time>
   <energy>
    <i name="e_fr_energy">    -18.48684532 </i>
    <i name="e_wo_entrp">    -18.48684532 </i>
    <i name="e_0_energy">    -18.48684532 </i>
   </energy>
  </scstep>
  <scstep>
   <time name="diag">    1.05    1.05</time>
   <time name="diis">    3.78    3.79</time>
   <time name="orth">    0.05    0.05</time>
   <time name="total">    5.16    5.18</time>
   <energy>
    <i name="e_fr_energy">    -18.48684639 </i>
    <i name="e_wo_entrp">    -18.48684639 </i>
    <i name="e_0_energy">    -18.48684639 </i>
   </energy>
  </scstep>
  <scstep>
   <time name="diag">    1.05    1.05</time>
   <time name="diis">    3.71    3.71</time>
   <time name="orth">    0.05    0.05</time>
   <time name="total">    5.09    5.11</time>
   <energy>
    <i name="e_fr_energy">    -18.48684650 </i>
    <i name="e_wo_entrp">    -18.48684650 </i>
    <i name="e_0_energy">    -18.48684650 </i>
   </energy>
  </scstep>
  <scstep>
   <time name="diag">    1.05    1.05</time>
   <time name="diis">    3.75    3.76</time>
   <time name="orth">    0.05    0.05</time>
   <time name="total">    5.13    5.18</time>
   <energy>
    <i name="e_fr_energy">    -18.48684672 </i>
    <i name="e_wo_entrp">    -18.48684672 </i>
    <i name="e_0_energy">    -18.48684672 </i>
   </energy>
  </scstep>
  <scstep>
   <time name="diag">    1.05    1.05</time>
   <time name="diis">    3.75    3.76</time>
   <time name="orth">    0.05    0.05</time>
   <time name="total">    4.88    4.89</time>
   <energy>
    <i name="alphaZ">      1.37229745 </i>
    <i name="ewald">   2232.00673347 </i>
    <i name="hartreedc">  -2473.60255428 </i>
    <i name="XCdc">     15.61698859 </i>
    <i name="pawpsdc">   4099.54084111 </i>
    <i name="pawaedc">  -4089.19955858 </i>
    <i name="eentropy">     -0.00000000 </i>
    <i name="bandstr">    -98.52478766 </i>
    <i name="atom">    294.30319316 </i>
    <i name="e_fr_energy">    -18.48684674 </i>
    <i name="e_wo_entrp">    -18.48684674 </i>
    <i name="e_0_energy">    -18.48684674 </i>
   </energy>
  </scstep>
  <structure>
   <crystal>
    <varray name="basis" >
     <v>       1.23064405      -2.13565745       0.00000000 </v>
     <v>       1.23776977       2.13977147       0.00000000 </v>
     <v>       0.00000000       0.00000000      30.28239374 </v>
    </varray>
    <i name="volume">    159.79259873 </i>
    <varray name="rec_basis" >
     <v>       0.40550941      -0.23457051       0.00000000 </v>
     <v>       0.40472976       0.23322011       0.00000000 </v>
     <v>       0.00000000       0.00000000       0.03302249 </v>
    </varray>
   </crystal>
   <varray name="positions" >
    <v>       0.00000262       0.99999738       0.50000000 </v>
    <v>       0.66666738       0.33333262       0.50000000 </v>
   </varray>
  </structure>
  <varray name="forces" >
   <v>      -0.04126806      -0.01203608       0.00000000 </v>
   <v>       0.04126806       0.01203608       0.00000000 </v>
  </varray>
  <varray name="stress" >
   <v>      -1.87399123      -1.70743306       0.00000000 </v>
   <v>      -1.70743304      -1.52773681       0.00000000 </v>
   <v>       0.00000000       0.00000000      -0.46881464 </v>
  </varray>
  <energy>
   <i name="e_fr_energy">    -18.59512091 </i>
   <i name="e_wo_entrp">    -18.59512091 </i>
   <i name="e_0_energy">     -0.00000000 </i>
  </energy>
  <time name="totalsc">  142.49  143.76</time>
 </calculation>
 <calculation>
  <scstep>
   <time name="diag">    1.05    1.05</time>
   <time name="diis">    3.75    3.76</time>
   <time name="orth">    0.05    0.05</time>
   <time name="total">    5.13    5.15</time>
   <energy>
    <i name="alphaZ">      1.37229745 </i>
    <i name="ewald">   2232.00535875 </i>
    <i name="hartreedc">  -2473.60173876 </i>
    <i name="XCdc">     15.61693495 </i>
    <i name="pawpsdc">   4099.52912358 </i>
    <i name="pawaedc">  -4089.18784109 </i>
    <i name="eentropy">     -0.00000000 </i>
    <i name="bandstr">    -98.52390159 </i>
    <i name="atom">    294.30319316 </i>
    <i name="e_fr_energy">    -18.48657355 </i>
    <i name="e_wo_entrp">    -18.48657355 </i>
    <i name="e_0_energy">    -18.48657355 </i>
   </energy>
  </scstep>
  <scstep>
   <time name="diag">    1.05    1.06</time>
   <time name="diis">    3.78    3.79</time>
   <time name="orth">    0.05    0.05</time>
   <time name="total">    5.17    5.19</time>
   <energy>
    <i name="e_fr_energy">    -18.48656867 </i>
    <i name="e_wo_entrp">    -18.48656867 </i>
    <i name="e_0_energy">    -18.48656867 </i>
   </energy>
  </scstep>
  <scstep>
   <time name="diag">    1.05    1.05</time>
   <time name="diis">    3.82    3.84</time>
   <time name="orth">    0.05    0.05</time>
   <time name="total">    5.20    5.24</time>
   <energy>
    <i name="e_fr_energy">    -18.48655787 </i>
    <i name="e_wo_entrp">    -18.48655787 </i>
    <i name="e_0_energy">    -18.48655787 </i>
   </energy>
  </scstep>
  <scstep>
   <time name="diag">    1.05    1.05</time>
   <time name="diis">    4.00    4.01</time>
   <time name="orth">    0.05    0.05</time>
   <time name="total">    5.38    5.40</time>
   <energy>
    <i name="e_fr_energy">    -18.48655779 </i>
    <i name="e_wo_entrp">    -18.48655779 </i>
    <i name="e_0_energy">    -18.48655779 </i>
   </energy>
  </scstep>
  <scstep>
   <time name="diag">    1.05    1.05</time>
   <time name="diis">    3.79    3.80</time>
   <time name="orth">    0.05    0.05</time>
   <time name="total">    4.91    4.94</time>
   <energy>
    <i name="alphaZ">      1.37229745 </i>
    <i name="ewald">   2232.00535875 </i>
    <i name="hartreedc">  -2473.60137928 </i>
    <i name="XCdc">     15.61692427 </i>
    <i name="pawpsdc">   4099.35099915 </i>
    <i name="pawaedc">  -4089.00970815 </i>
    <i name="eentropy">     -0.00000000 </i>
    <i name="bandstr">    -98.52424315 </i>
    <i name="atom">    294.30319316 </i>
    <i name="e_fr_energy">    -18.48655779 </i>
    <i name="e_wo_entrp">    -18.48655779 </i>
    <i name="e_0_energy">    -18.48655779 </i>
   </energy>
  </scstep>
  <structure>
   <crystal>
    <varray name="basis" >
     <v>       1.23064405      -2.13565745       0.00000000 </v>
     <v>       1.23776977       2.13977147       0.00000000 </v>
     <v>       0.00000000       0.00000000      30.28239374 </v>
    </varray>
    <i name="volume">    159.79259873 </i>
    <varray name="rec_basis" >
     <v>       0.40550941      -0.23457051       0.00000000 </v>
     <v>       0.40472976       0.23322011       0.00000000 </v>
     <v>       0.00000000       0.00000000       0.03302249 </v>
    </varray>
   </crystal>
   <varray name="positions" >
    <v>      -0.00066850       0.99905619       0.50000000 </v>
    <v>       0.66733850       0.33427381       0.50000000 </v>
   </varray>
  </structure>
  <varray name="forces" >
   <v>       0.17754179       0.04935934       0.00000000 </v>
   <v>      -0.17754179      -0.04935934       0.00000000 </v>
  </varray>
  <varray name="stress" >
   <v>      -1.76290316      -1.21331691       0.00000000 </v>
   <v>      -1.21331694      -1.64750630       0.00000000 </v>
   <v>       0.00000000       0.00000000      -0.46880091 </v>
  </varray>
  <energy>
   <i name="e_fr_energy">    -18.59482867 </i>
   <i name="e_wo_entrp">    -18.59482867 </i>
   <i name="e_0_energy">     -0.00000000 </i>
  </energy>
  <time name="totalsc">   28.44   28.60</time>
 </calculation>
 <calculation>
  <scstep>
   <time name="diag">    1.05    1.05</time>
   <time name="diis">    3.80    3.82</time>
   <time name="orth">    0.05    0.05</time>
   <time name="total">    5.18    5.20</time>
   <energy>
    <i name="alphaZ">      1.37229745 </i>
    <i name="ewald">   2232.00623712 </i>
    <i name="hartreedc">  -2473.60182293 </i>
    <i name="XCdc">     15.61695014 </i>
    <i name="pawpsdc">   4099.35597382 </i>
    <i name="pawaedc">  -4089.01468256 </i>
    <i name="eentropy">     -0.00000000 </i>
    <i name="bandstr">    -98.52502101 </i>
    <i name="atom">    294.30319316 </i>
    <i name="e_fr_energy">    -18.48687481 </i>
    <i name="e_wo_entrp">    -18.48687481 </i>
    <i name="e_0_energy">    -18.48687481 </i>
   </energy>
  </scstep>
  <scstep>
   <time name="diag">    1.05    1.05</time>
   <time name="diis">    3.80    3.81</time>
   <time name="orth">    0.05    0.05</time>
   <time name="total">    5.18    5.21</time>
   <energy>
    <i name="e_fr_energy">    -18.48687139 </i>
    <i name="e_wo_entrp">    -18.48687139 </i>
    <i name="e_0_energy">    -18.48687139 </i>
   </energy>
  </scstep>
  <scstep>
   <time name="diag">    1.05    1.05</time>
   <time name="diis">    3.84    3.85</time>
   <time name="orth">    0.05    0.05</time>
   <time name="total">    5.23    5.25</time>
   <energy>
    <i name="e_fr_energy">    -18.48686428 </i>
    <i name="e_wo_entrp">    -18.48686428 </i>
    <i name="e_0_energy">    -18.48686428 </i>
   </energy>
  </scstep>
  <scstep>
   <time name="diag">    1.05    1.06</time>
   <time name="diis">    3.98    3.99</time>
   <time name="orth">    0.05    0.05</time>
   <time name="total">    5.38    5.40</time>
   <energy>
    <i name="e_fr_energy">    -18.48686422 </i>
    <i name="e_wo_entrp">    -18.48686422 </i>
    <i name="e_0_energy">    -18.48686422 </i>
   </energy>
  </scstep>
  <scstep>
   <time name="diag">    1.05    1.06</time>
   <time name="diis">    3.72    3.73</time>
   <time name="orth">    0.05    0.05</time>
   <time name="total">    4.85    4.88</time>
   <energy>
    <i name="alphaZ">      1.37229745 </i>
    <i name="ewald">   2232.00623712 </i>
    <i name="hartreedc">  -2473.60217785 </i>
    <i name="XCdc">     15.61696960 </i>
    <i name="pawpsdc">   4099.46680898 </i>
    <i name="pawaedc">  -4089.12552272 </i>
    <i name="eentropy">     -0.00000000 </i>
    <i name="bandstr">    -98.52466996 </i>
    <i name="atom">    294.30319316 </i>
    <i name="e_fr_energy">    -18.48686422 </i>
    <i name="e_wo_entrp">    -18.48686422 </i>
    <i name="e_0_energy">    -18.48686422 </i>
   </energy>
  </scstep>
  <structure>
   <crystal>
    <varray name="basis" >
     <v>       1.23064405      -2.13565745       0.00000000 </v>
     <v>       1.23776977       2.13977147       0.00000000 </v>
     <v>       0.00000000       0.00000000      30.28239374 </v>
    </varray>
    <i name="volume">    159.79259873 </i>
    <varray name="rec_basis" >
     <v>       0.40550941      -0.23457051       0.00000000 </v>
     <v>       0.40472976       0.23322011       0.00000000 </v>
     <v>       0.00000000       0.00000000       0.03302249 </v>
    </varray>
   </crystal>
   <varray name="positions" >
    <v>      -0.00012482       0.99981866       0.50000000 </v>
    <v>       0.66679482       0.33351134       0.50000000 </v>
   </varray>
  </structure>
  <varray name="forces" >
   <v>       0.00009422      -0.00054733       0.00000000 </v>
   <v>      -0.00009422       0.00054733       0.00000000 </v>
  </varray>
  <varray name="stress" >
   <v>      -1.85445564      -1.61241361       0.00000000 </v>
   <v>      -1.61241359      -1.55268841       0.00000000 </v>
   <v>       0.00000000       0.00000000      -0.46868609 </v>
  </varray>
  <energy>
   <i name="e_fr_energy">    -18.59513784 </i>
   <i name="e_wo_entrp">    -18.59513784 </i>
   <i name="e_0_energy">     -0.00000000 </i>
  </energy>
  <time name="totalsc">   28.34   28.49</time>
  <eigenvalues>
   <array>
    <dimension dim="1">band</dimension>
    <dimension dim="2">kpoint</dimension>
    <dimension dim="3">spin</dimension>
    <field>eigene</field>
    <field>occ</field>
    <set>
     <set comment="spin 1">
      <set comment="kpoint 1">
       <r>  -22.5548    1.0000 </r>
       <r>  -10.6256    1.0000 </r>
       <r>   -6.7245    1.0000 </r>
       <r>   -6.4966    1.0000 </r>
       <r>    0.2630    0.0000 </r>
       <r>    1.0316    0.0000 </r>
       <r>    1.2571    0.0000 </r>
       <r>    1.5731    0.0000 </r>
       <r>    1.7788    0.0000 </r>
       <r>    2.4308    0.0000 </r>
       <r>    2.7189    0.0000 </r>
       <r>    3.6715    0.0000 </r>
       <r>    4.0241    0.0000 </r>
       <r>    5.1964    0.0000 </r>
       <r>    5.2670    0.0000 </r>
       <r>    5.6063    0.0000 </r>
       <r>    5.6945    0.0000 </r>
       <r>    7.2077    0.0000 </r>
       <r>    7.7086    0.0000 </r>
       <r>    7.7977    0.0000 </r>
       <r>    9.4839    0.0000 </r>
       <r>    9.4877    0.0000 </r>
       <r>   10.0746    0.0000 </r>
       <r>   12.1056    0.0000 </r>
      </set>
      <set comment="kpoint 2">
       <r>  -22.1458    1.0000 </r>
       <r>  -10.1390    1.0000 </r>
       <r>   -8.0836    1.0000 </r>
       <r>   -7.2613    1.0000 </r>
       <r>    0.8200    0.0000 </r>
       <r>    1.5963    0.0000 </r>
       <r>    1.8295    0.0000 </r>
       <r>    2.1429    0.0000 </r>
       <r>    2.3492    0.0000 </r>
       <r>    2.9988    0.0000 </r>
       <r>    3.2867    0.0000 </r>
       <r>    4.2370    0.0000 </r>
       <r>    4.5845    0.0000 </r>
       <r>    5.2746    0.0000 </r>
       <r>    5.8284    0.0000 </r>
       <r>    6.2631    0.0000 </r>
       <r>    6.5204    0.0000 </r>
       <r>    7.0343    0.0000 </r>
       <r>    7.7653    0.0000 </r>
       <r>    8.2752    0.0000 </r>
       <r>   10.0368    0.0000 </r>
       <r>   10.3557    0.0000 </r>
       <r>   10.6403    0.0000 </r>
       <r>   12.6322    0.0000 </r>
      </set>
      <set comment="kpoint 3">
       <r>  -21.4145    1.0000 </r>
       <r>  -10.0568    1.0000 </r>
       <r>   -9.2785    1.0000 </r>
       <r>   -8.1745    1.0000 </r>
       <r>    1.8214    0.0000 </r>
       <r>    2.6069    0.0000 </r>
       <r>    2.8601    0.0000 </r>
       <r>    3.1666    0.0000 </r>
       <r>    3.3760    0.0000 </r>
       <r>    4.0134    0.0000 </r>
       <r>    4.3055    0.0000 </r>
       <r>    4.5770    0.0000 </r>
       <r>    5.0377    0.0000 </r>
       <r>    5.2622    0.0000 </r>
       <r>    5.6280    0.0000 </r>
       <r>    6.8411    0.0000 </r>
       <r>    7.2773    0.0000 </r>
       <r>    8.7630    0.0000 </r>
       <r>    9.2444    0.0000 </r>
       <r>    9.3094    0.0000 </r>
       <r>   11.0105    0.0000 </r>
       <r>   11.6392    0.0000 </r>
       <r>   11.8357    0.0000 </r>
       <r>   13.5453    0.0000 </r>
      </set>
      <set comment="kpoint 4">
       <r>  -20.3709    1.0000 </r>
       <r>  -12.2330    1.0000 </r>
       <r>   -8.9700    1.0000 </r>
       <r>   -8.0829    1.0000 </r>
       <r>    2.2820    0.0000 </r>
       <r>    3.2602    0.0000 </r>
       <r>    4.0918    0.0000 </r>
       <r>    4.3481    0.0000 </r>
       <r>    4.6534    0.0000 </r>
       <r>    4.6887    0.0000 </r>
       <r>    4.8750    0.0000 </r>
       <r>    5.4995    0.0000 </r>
       <r>    5.7953    0.0000 </r>
       <r>    6.7225    0.0000 </r>
       <r>    7.0891    0.0000 </r>
       <r>    8.2894    0.0000 </r>
       <r>    8.7408    0.0000 </r>
       <r>   10.1792    0.0000 </r>
       <r>   10.7439    0.0000 </r>
       <r>   11.6906    0.0000 </r>
       <r>   12.3345    0.0000 </r>
       <r>   13.0931    0.0000 </r>
       <r>   13.2393    0.0000 </r>
       <r>   14.3149    0.0000 </r>
      </set>
      <set comment="kpoint 5">
       <r>  -19.0382    1.0000 </r>
       <r>  -14.3649    1.0000 </r>
       <r>   -9.5182    1.0000 </r>
       <r>   -6.6678    1.0000 </r>
       <r>    0.0811    0.0000 </r>
       <r>    4.4005    0.0000 </r>
       <r>    5.1643    0.0000 </r>
       <r>    5.9835    0.0000 </r>
       <r>    6.2960    0.0000 </r>
       <r>    6.5855    0.0000 </r>
       <r>    6.8012    0.0000 </r>
       <r>    7.4191    0.0000 </r>
       <r>    7.7211    0.0000 </r>
       <r>    8.6206    0.0000 </r>
       <r>    9.0060    0.0000 </r>
       <r>   10.1368    0.0000 </r>
       <r>   10.6457    0.0000 </r>
       <r>   11.3174    0.0000 </r>
       <r>   11.7597    0.0000 </r>
       <r>   12.4721    0.0000 </r>
       <r>   12.6381    0.0000 </r>
       <r>   13.1631    0.0000 </r>
       <r>   13.3597    0.0000 </r>
       <r>   13.5740    0.0000 </r>
      </set>
      <set comment="kpoint 6">
       <r>  -17.5678    1.0000 </r>
       <r>  -16.1943    1.0000 </r>
       <r>   -9.7610    1.0000 </r>
       <r>   -5.5351    1.0000 </r>
       <r>   -1.4187    0.0000 </r>
       <r>    4.2836    0.0000 </r>
       <r>    7.4323    0.0000 </r>
       <r>    8.2731    0.0000 </r>
       <r>    8.6974    0.0000 </r>
       <r>    8.7208    0.0000 </r>
       <r>    8.9594    0.0000 </r>
       <r>    9.1928    0.0000 </r>
       <r>    9.5292    0.0000 </r>
       <r>    9.8088    0.0000 </r>
       <r>   10.0778    0.0000 </r>
       <r>   10.0944    0.0000 </r>
       <r>   10.3247    0.0000 </r>
       <r>   10.5587    0.0000 </r>
       <r>   10.8904    0.0000 </r>
       <r>   11.1567    0.0000 </r>
       <r>   11.3569    0.0000 </r>
       <r>   11.4447    0.0000 </r>
       <r>   12.0976    0.0000 </r>
       <r>   12.5781    0.0000 </r>
      </set>
      <set comment="kpoint 7">
       <r>  -18.2843    1.0000 </r>
       <r>  -15.3579    1.0000 </r>
       <r>   -9.6782    1.0000 </r>
       <r>   -5.9926    1.0000 </r>
       <r>   -0.8370    0.0000 </r>
       <r>    4.3241    0.0000 </r>
       <r>    6.2507    0.0000 </r>
       <r>    7.0896    0.0000 </r>
       <r>    7.4445    0.0000 </r>
       <r>    7.7233    0.0000 </r>
       <r>    7.9437    0.0000 </r>
       <r>    8.5438    0.0000 </r>
       <r>    8.8558    0.0000 </r>
       <r>    9.7123    0.0000 </r>
       <r>   10.0268    0.0000 </r>
       <r>   10.1422    0.0000 </r>
       <r>   10.7976    0.0000 </r>
       <r>   11.3271    0.0000 </r>
       <r>   11.5608    0.0000 </r>
       <r>   11.7647    0.0000 </r>
       <r>   11.7988    0.0000 </r>
       <r>   12.0212    0.0000 </r>
       <r>   12.4830    0.0000 </r>
       <r>   12.9394    0.0000 </r>
      </set>
      <set comment="kpoint 8">
       <r>  -19.7359    1.0000 </r>
       <r>  -13.3198    1.0000 </r>
       <r>   -9.2764    1.0000 </r>
       <r>   -7.3864    1.0000 </r>
       <r>    1.1497    0.0000 </r>
       <r>    4.1250    0.0000 </r>
       <r>    4.5690    0.0000 </r>
       <r>    4.9852    0.0000 </r>
       <r>    5.2685    0.0000 </r>
       <r>    5.5656    0.0000 </r>
       <r>    5.7787    0.0000 </r>
       <r>    6.4069    0.0000 </r>
       <r>    6.7040    0.0000 </r>
       <r>    7.6220    0.0000 </r>
       <r>    7.9948    0.0000 </r>
       <r>    9.1727    0.0000 </r>
       <r>    9.6422    0.0000 </r>
       <r>   11.0187    0.0000 </r>
       <r>   11.6364    0.0000 </r>
       <r>   12.1051    0.0000 </r>
       <r>   12.9010    0.0000 </r>
       <r>   13.7887    0.0000 </r>
       <r>   13.8984    0.0000 </r>
       <r>   13.9885    0.0000 </r>
      </set>
      <set comment="kpoint 9">
       <r>  -20.9291    1.0000 </r>
       <r>  -11.1421    1.0000 </r>
       <r>   -8.7167    1.0000 </r>
       <r>   -8.5930    1.0000 </r>
       <r>    2.4893    0.0000 </r>
       <r>    3.2069    0.0000 </r>
       <r>    3.5151    0.0000 </r>
       <r>    3.5493    0.0000 </r>
       <r>    3.8690    0.0000 </r>
       <r>    4.0615    0.0000 </r>
       <r>    4.7108    0.0000 </r>
       <r>    4.8356    0.0000 </r>
       <r>    5.0299    0.0000 </r>
       <r>    5.9374    0.0000 </r>
       <r>    6.3015    0.0000 </r>
       <r>    7.5136    0.0000 </r>
       <r>    7.9552    0.0000 </r>
       <r>    9.4239    0.0000 </r>
       <r>    9.9616    0.0000 </r>
       <r>   10.4613    0.0000 </r>
       <r>   11.6437    0.0000 </r>
       <r>   12.3157    0.0000 </r>
       <r>   12.6618    0.0000 </r>
       <r>   14.0835    0.0000 </r>
      </set>
      <set comment="kpoint 10">
       <r>  -21.8188    1.0000 </r>
       <r>   -9.7527    1.0000 </r>
       <r>   -9.0254    1.0000 </r>
       <r>   -7.7175    1.0000 </r>
       <r>    1.2669    0.0000 </r>
       <r>    2.0483    0.0000 </r>
       <r>    2.2890    0.0000 </r>
       <r>    2.6000    0.0000 </r>
       <r>    2.8072    0.0000 </r>
       <r>    3.4540    0.0000 </r>
       <r>    3.7420    0.0000 </r>
       <r>    4.6886    0.0000 </r>
       <r>    5.0068    0.0000 </r>
       <r>    5.2239    0.0000 </r>
       <r>    5.6084    0.0000 </r>
       <r>    6.2834    0.0000 </r>
       <r>    6.7153    0.0000 </r>
       <r>    8.0415    0.0000 </r>
       <r>    8.2114    0.0000 </r>
       <r>    8.7282    0.0000 </r>
       <r>   10.4739    0.0000 </r>
       <r>   11.0515    0.0000 </r>
       <r>   11.1181    0.0000 </r>
       <r>   13.0500    0.0000 </r>
      </set>
      <set comment="kpoint 11">
       <r>  -22.3904    1.0000 </r>
       <r>  -10.4296    1.0000 </r>
       <r>   -7.2871    1.0000 </r>
       <r>   -6.8445    1.0000 </r>
       <r>    0.4866    0.0000 </r>
       <r>    1.2584    0.0000 </r>
       <r>    1.4869    0.0000 </r>
       <r>    1.8019    0.0000 </r>
       <r>    2.0078    0.0000 </r>
       <r>    2.6589    0.0000 </r>
       <r>    2.9468    0.0000 </r>
       <r>    3.8987    0.0000 </r>
       <r>    4.2498    0.0000 </r>
       <r>    5.2689    0.0000 </r>
       <r>    5.4928    0.0000 </r>
       <r>    5.9244    0.0000 </r>
       <r>    6.1699    0.0000 </r>
       <r>    7.2666    0.0000 </r>
       <r>    7.6368    0.0000 </r>
       <r>    9.6943    0.0000 </r>
       <r>    9.8004    0.0000 </r>
       <r>   10.2609    0.0000 </r>
       <r>   12.3163    0.0000 </r>
       <r>   13.0195    0.0000 </r>
      </set>
      <set comment="kpoint 12">
       <r>  -22.6366    1.0000 </r>
       <r>  -10.7233    1.0000 </r>
       <r>   -6.4047    1.0000 </r>
       <r>   -6.3235    1.0000 </r>
       <r>    0.1519    0.0000 </r>
       <r>    0.9188    0.0000 </r>
       <r>    1.1429    0.0000 </r>
       <r>    1.4594    0.0000 </r>
       <r>    1.6649    0.0000 </r>
       <r>    2.3174    0.0000 </r>
       <r>    2.6056    0.0000 </r>
       <r>    3.5586    0.0000 </r>
       <r>    3.9118    0.0000 </r>
       <r>    5.1297    0.0000 </r>
       <r>    5.1546    0.0000 </r>
       <r>    5.2990    0.0000 </r>
       <r>    5.5783    0.0000 </r>
       <r>    7.0962    0.0000 </r>
       <r>    7.5950    0.0000 </r>
       <r>    8.0777    0.0000 </r>
       <r>    9.3292    0.0000 </r>
       <r>    9.3775    0.0000 </r>
       <r>    9.9616    0.0000 </r>
       <r>   11.9908    0.0000 </r>
      </set>
      <set comment="kpoint 13">
       <r>  -22.1478    1.0000 </r>
       <r>  -10.1414    1.0000 </r>
       <r>   -8.1203    1.0000 </r>
       <r>   -7.2222    1.0000 </r>
       <r>    0.8173    0.0000 </r>
       <r>    1.5936    0.0000 </r>
       <r>    1.8269    0.0000 </r>
       <r>    2.1403    0.0000 </r>
       <r>    2.3466    0.0000 </r>
       <r>    2.9962    0.0000 </r>
       <r>    3.2840    0.0000 </r>
       <r>    4.2343    0.0000 </r>
       <r>    4.5822    0.0000 </r>
       <r>    5.3174    0.0000 </r>
       <r>    5.8254    0.0000 </r>
       <r>    6.2612    0.0000 </r>
       <r>    6.5135    0.0000 </r>
       <r>    7.0244    0.0000 </r>
       <r>    7.7631    0.0000 </r>
       <r>    8.2727    0.0000 </r>
       <r>   10.0344    0.0000 </r>
       <r>   10.3359    0.0000 </r>
       <r>   10.6376    0.0000 </r>
       <r>   12.6299    0.0000 </r>
      </set>
      <set comment="kpoint 14">
       <r>  -21.5791    1.0000 </r>
       <r>   -9.4702    1.0000 </r>
       <r>   -9.4166    1.0000 </r>
       <r>   -8.3290    1.0000 </r>
       <r>    1.5965    0.0000 </r>
       <r>    2.3815    0.0000 </r>
       <r>    2.6278    0.0000 </r>
       <r>    2.9369    0.0000 </r>
       <r>    3.1449    0.0000 </r>
       <r>    3.7898    0.0000 </r>
       <r>    4.0789    0.0000 </r>
       <r>    5.0135    0.0000 </r>
       <r>    5.0249    0.0000 </r>
       <r>    5.3695    0.0000 </r>
       <r>    6.0148    0.0000 </r>
       <r>    6.6090    0.0000 </r>
       <r>    7.0556    0.0000 </r>
       <r>    7.6199    0.0000 </r>
       <r>    8.5338    0.0000 </r>
       <r>    9.0626    0.0000 </r>
       <r>   10.7848    0.0000 </r>
       <r>   11.4224    0.0000 </r>
       <r>   11.9407    0.0000 </r>
       <r>   13.3260    0.0000 </r>
      </set>
      <set comment="kpoint 15">
       <r>  -20.6938    1.0000 </r>
       <r>  -11.1744    1.0000 </r>
       <r>   -9.4419    1.0000 </r>
       <r>   -8.4420    1.0000 </r>
       <r>    2.8182    0.0000 </r>
       <r>    3.0672    0.0000 </r>
       <r>    3.6231    0.0000 </r>
       <r>    3.8868    0.0000 </r>
       <r>    4.1891    0.0000 </r>
       <r>    4.3993    0.0000 </r>
       <r>    5.0352    0.0000 </r>
       <r>    5.3251    0.0000 </r>
       <r>    6.1366    0.0000 </r>
       <r>    6.2589    0.0000 </r>
       <r>    6.6462    0.0000 </r>
       <r>    7.8268    0.0000 </r>
       <r>    8.2865    0.0000 </r>
       <r>    9.1042    0.0000 </r>
       <r>    9.7170    0.0000 </r>
       <r>   10.2993    0.0000 </r>
       <r>   11.8686    0.0000 </r>
       <r>   12.6507    0.0000 </r>
       <r>   13.9439    0.0000 </r>
       <r>   15.1884    0.0000 </r>
      </set>
      <set comment="kpoint 16">
       <r>  -19.5078    1.0000 </r>
       <r>  -13.1976    1.0000 </r>
       <r>  -10.2136    1.0000 </r>
       <r>   -7.1185    1.0000 </r>
       <r>    0.9628    0.0000 </r>
       <r>    4.4722    0.0000 </r>
       <r>    5.2852    0.0000 </r>
       <r>    5.6031    0.0000 </r>
       <r>    5.8799    0.0000 </r>
       <r>    5.8916    0.0000 </r>
       <r>    6.1198    0.0000 </r>
       <r>    6.7237    0.0000 </r>
       <r>    7.0379    0.0000 </r>
       <r>    7.9221    0.0000 </r>
       <r>    8.3250    0.0000 </r>
       <r>    9.4303    0.0000 </r>
       <r>    9.9662    0.0000 </r>
       <r>   10.9624    0.0000 </r>
       <r>   11.1113    0.0000 </r>
       <r>   11.9750    0.0000 </r>
       <r>   12.4762    0.0000 </r>
       <r>   14.0418    0.0000 </r>
       <r>   14.1897    0.0000 </r>
       <r>   14.3357    0.0000 </r>
      </set>
      <set comment="kpoint 17">
       <r>  -18.0684    1.0000 </r>
       <r>  -15.1709    1.0000 </r>
       <r>  -10.6405    1.0000 </r>
       <r>   -5.7156    1.0000 </r>
       <r>   -0.9383    0.0000 </r>
       <r>    5.6646    0.0000 </r>
       <r>    6.5655    0.0000 </r>
       <r>    7.3285    0.0000 </r>
       <r>    7.7790    0.0000 </r>
       <r>    8.0344    0.0000 </r>
       <r>    8.2754    0.0000 </r>
       <r>    8.8130    0.0000 </r>
       <r>    9.1827    0.0000 </r>
       <r>    9.8346    0.0000 </r>
       <r>   10.2177    0.0000 </r>
       <r>   10.4633    0.0000 </r>
       <r>   10.6732    0.0000 </r>
       <r>   11.6520    0.0000 </r>
       <r>   11.9074    0.0000 </r>
       <r>   12.0750    0.0000 </r>
       <r>   12.1057    0.0000 </r>
       <r>   12.3377    0.0000 </r>
       <r>   12.5778    0.0000 </r>
       <r>   13.1587    0.0000 </r>
      </set>
      <set comment="kpoint 18">
       <r>  -17.3512    1.0000 </r>
       <r>  -16.0013    1.0000 </r>
       <r>  -10.7240    1.0000 </r>
       <r>   -5.2392    1.0000 </r>
       <r>   -1.5199    0.0000 </r>
       <r>    5.6240    0.0000 </r>
       <r>    7.7441    0.0000 </r>
       <r>    8.3838    0.0000 </r>
       <r>    8.9808    0.0000 </r>
       <r>    9.0504    0.0000 </r>
       <r>    9.2347    0.0000 </r>
       <r>    9.5373    0.0000 </r>
       <r>    9.6139    0.0000 </r>
       <r>   10.1476    0.0000 </r>
       <r>   10.4099    0.0000 </r>
       <r>   10.4316    0.0000 </r>
       <r>   10.6092    0.0000 </r>
       <r>   10.8812    0.0000 </r>
       <r>   11.0409    0.0000 </r>
       <r>   11.4801    0.0000 </r>
       <r>   11.6778    0.0000 </r>
       <r>   11.7525    0.0000 </r>
       <r>   12.1003    0.0000 </r>
       <r>   12.9030    0.0000 </r>
      </set>
      <set comment="kpoint 19">
       <r>  -18.8058    1.0000 </r>
       <r>  -14.2188    1.0000 </r>
       <r>  -10.4637    1.0000 </r>
       <r>   -6.3913    1.0000 </r>
       <r>   -0.0570    0.0000 </r>
       <r>    5.4442    0.0000 </r>
       <r>    5.7875    0.0000 </r>
       <r>    6.2775    0.0000 </r>
       <r>    6.6440    0.0000 </r>
       <r>    6.9191    0.0000 </r>
       <r>    7.1474    0.0000 </r>
       <r>    7.7355    0.0000 </r>
       <r>    8.0644    0.0000 </r>
       <r>    8.8981    0.0000 </r>
       <r>    9.3453    0.0000 </r>
       <r>   10.2764    0.0000 </r>
       <r>   10.9486    0.0000 </r>
       <r>   11.1053    0.0000 </r>
       <r>   11.4585    0.0000 </r>
       <r>   12.7113    0.0000 </r>
       <r>   12.9601    0.0000 </r>
       <r>   13.3971    0.0000 </r>
       <r>   13.5787    0.0000 </r>
       <r>   13.5789    0.0000 </r>
      </set>
      <set comment="kpoint 20">
       <r>  -20.1310    1.0000 </r>
       <r>  -12.1865    1.0000 </r>
       <r>   -9.8626    1.0000 </r>
       <r>   -7.8047    1.0000 </r>
       <r>    2.0174    0.0000 </r>
       <r>    3.6000    0.0000 </r>
       <r>    4.4071    0.0000 </r>
       <r>    4.6954    0.0000 </r>
       <r>    4.9915    0.0000 </r>
       <r>    5.2038    0.0000 </r>
       <r>    5.8323    0.0000 </r>
       <r>    5.9816    0.0000 </r>
       <r>    6.1657    0.0000 </r>
       <r>    7.0469    0.0000 </r>
       <r>    7.4326    0.0000 </r>
       <r>    8.5958    0.0000 </r>
       <r>    9.0787    0.0000 </r>
       <r>   10.0205    0.0000 </r>
       <r>   10.4349    0.0000 </r>
       <r>   11.0907    0.0000 </r>
       <r>   12.3537    0.0000 </r>
       <r>   13.4436    0.0000 </r>
       <r>   13.7870    0.0000 </r>
       <r>   15.3392    0.0000 </r>
      </set>
      <set comment="kpoint 21">
       <r>  -21.1710    1.0000 </r>
       <r>  -10.2441    1.0000 </r>
       <r>   -8.9938    1.0000 </r>
       <r>   -8.9198    1.0000 </r>
       <r>    2.1580    0.0000 </r>
       <r>    2.9472    0.0000 </r>
       <r>    3.2054    0.0000 </r>
       <r>    3.5106    0.0000 </r>
       <r>    3.7206    0.0000 </r>
       <r>    4.0864    0.0000 </r>
       <r>    4.3628    0.0000 </r>
       <r>    4.6518    0.0000 </r>
       <r>    5.5915    0.0000 </r>
       <r>    5.9182    0.0000 </r>
       <r>    6.1996    0.0000 </r>
       <r>    7.1701    0.0000 </r>
       <r>    7.6202    0.0000 </r>
       <r>    8.1502    0.0000 </r>
       <r>    9.0829    0.0000 </r>
       <r>    9.6303    0.0000 </r>
       <r>   11.3056    0.0000 </r>
       <r>   11.9871    0.0000 </r>
       <r>   13.0306    0.0000 </r>
       <r>   13.7343    0.0000 </r>
      </set>
      <set comment="kpoint 22">
       <r>  -21.9010    1.0000 </r>
       <r>   -9.8494    1.0000 </r>
       <r>   -8.7002    1.0000 </r>
       <r>   -7.7409    1.0000 </r>
       <r>    1.1548    0.0000 </r>
       <r>    1.9350    0.0000 </r>
       <r>    2.1735    0.0000 </r>
       <r>    2.4852    0.0000 </r>
       <r>    2.6921    0.0000 </r>
       <r>    3.3398    0.0000 </r>
       <r>    3.6281    0.0000 </r>
       <r>    4.5763    0.0000 </r>
       <r>    4.9231    0.0000 </r>
       <r>    5.6118    0.0000 </r>
       <r>    5.8404    0.0000 </r>
       <r>    6.1673    0.0000 </r>
       <r>    6.6050    0.0000 </r>
       <r>    7.2749    0.0000 </r>
       <r>    8.0978    0.0000 </r>
       <r>    8.6150    0.0000 </r>
       <r>   10.3624    0.0000 </r>
       <r>   10.9755    0.0000 </r>
       <r>   11.0714    0.0000 </r>
       <r>   12.9418    0.0000 </r>
      </set>
      <set comment="kpoint 23">
       <r>  -22.3097    1.0000 </r>
       <r>  -10.3338    1.0000 </r>
       <r>   -7.6115    1.0000 </r>
       <r>   -6.9373    1.0000 </r>
       <r>    0.5963    0.0000 </r>
       <r>    1.3697    0.0000 </r>
       <r>    1.5998    0.0000 </r>
       <r>    1.9143    0.0000 </r>
       <r>    2.1202    0.0000 </r>
       <r>    2.7709    0.0000 </r>
       <r>    3.0587    0.0000 </r>
       <r>    4.0102    0.0000 </r>
       <r>    4.3597    0.0000 </r>
       <r>    5.1821    0.0000 </r>
       <r>    5.6034    0.0000 </r>
       <r>    6.0356    0.0000 </r>
       <r>    6.6119    0.0000 </r>
       <r>    7.0054    0.0000 </r>
       <r>    7.5427    0.0000 </r>
       <r>    8.0480    0.0000 </r>
       <r>    9.8173    0.0000 </r>
       <r>    9.9649    0.0000 </r>
       <r>   10.4135    0.0000 </r>
       <r>   12.4200    0.0000 </r>
      </set>
      <set comment="kpoint 24">
       <r>  -22.3923    1.0000 </r>
       <r>  -10.4320    1.0000 </r>
       <r>   -7.3199    1.0000 </r>
       <r>   -6.8121    1.0000 </r>
       <r>    0.4839    0.0000 </r>
       <r>    1.2558    0.0000 </r>
       <r>    1.4842    0.0000 </r>
       <r>    1.7993    0.0000 </r>
       <r>    2.0051    0.0000 </r>
       <r>    2.6563    0.0000 </r>
       <r>    2.9441    0.0000 </r>
       <r>    3.8960    0.0000 </r>
       <r>    4.2470    0.0000 </r>
       <r>    5.2718    0.0000 </r>
       <r>    5.4901    0.0000 </r>
       <r>    5.9224    0.0000 </r>
       <r>    6.2289    0.0000 </r>
       <r>    7.2604    0.0000 </r>
       <r>    7.4297    0.0000 </r>
       <r>    7.9339    0.0000 </r>
       <r>    9.7061    0.0000 </r>
       <r>    9.7968    0.0000 </r>
       <r>   10.2990    0.0000 </r>
       <r>   12.3117    0.0000 </r>
      </set>
      <set comment="kpoint 25">
       <r>  -21.4205    1.0000 </r>
       <r>  -10.1033    1.0000 </r>
       <r>   -9.2856    1.0000 </r>
       <r>   -8.1177    1.0000 </r>
       <r>    1.8135    0.0000 </r>
       <r>    2.5985    0.0000 </r>
       <r>    2.8522    0.0000 </r>
       <r>    3.1585    0.0000 </r>
       <r>    3.3681    0.0000 </r>
       <r>    4.0042    0.0000 </r>
       <r>    4.2982    0.0000 </r>
       <r>    4.5598    0.0000 </r>
       <r>    5.1271    0.0000 </r>
       <r>    5.2559    0.0000 </r>
       <r>    5.6238    0.0000 </r>
       <r>    6.8342    0.0000 </r>
       <r>    7.2698    0.0000 </r>
       <r>    8.7561    0.0000 </r>
       <r>    9.1998    0.0000 </r>
       <r>    9.2914    0.0000 </r>
       <r>   11.0040    0.0000 </r>
       <r>   11.6301    0.0000 </r>
       <r>   11.8234    0.0000 </r>
       <r>   13.5400    0.0000 </r>
      </set>
      <set comment="kpoint 26">
       <r>  -20.6978    1.0000 </r>
       <r>  -11.2124    1.0000 </r>
       <r>   -9.3956    1.0000 </r>
       <r>   -8.4469    1.0000 </r>
       <r>    2.8130    0.0000 </r>
       <r>    3.0521    0.0000 </r>
       <r>    3.6206    0.0000 </r>
       <r>    3.8815    0.0000 </r>
       <r>    4.1843    0.0000 </r>
       <r>    4.3941    0.0000 </r>
       <r>    5.0304    0.0000 </r>
       <r>    5.3204    0.0000 </r>
       <r>    6.2304    0.0000 </r>
       <r>    6.2543    0.0000 </r>
       <r>    6.6464    0.0000 </r>
       <r>    7.8224    0.0000 </r>
       <r>    8.2818    0.0000 </r>
       <r>    9.0054    0.0000 </r>
       <r>    9.7131    0.0000 </r>
       <r>   10.2937    0.0000 </r>
       <r>   11.8666    0.0000 </r>
       <r>   12.6453    0.0000 </r>
       <r>   13.9078    0.0000 </r>
       <r>   13.9799    0.0000 </r>
      </set>
      <set comment="kpoint 27">
       <r>  -19.6696    1.0000 </r>
       <r>  -12.4073    1.0000 </r>
       <r>  -10.8975    1.0000 </r>
       <r>   -7.2793    1.0000 </r>
       <r>    1.3518    0.0000 </r>
       <r>    4.2497    0.0000 </r>
       <r>    5.0370    0.0000 </r>
       <r>    5.3689    0.0000 </r>
       <r>    5.6532    0.0000 </r>
       <r>    5.8757    0.0000 </r>
       <r>    6.4826    0.0000 </r>
       <r>    6.7947    0.0000 </r>
       <r>    7.6761    0.0000 </r>
       <r>    7.8041    0.0000 </r>
       <r>    8.1319    0.0000 </r>
       <r>    8.8791    0.0000 </r>
       <r>    9.1709    0.0000 </r>
       <r>    9.7475    0.0000 </r>
       <r>   10.8078    0.0000 </r>
       <r>   11.7426    0.0000 </r>
       <r>   12.1928    0.0000 </r>
       <r>   13.9173    0.0000 </r>
       <r>   14.0785    0.0000 </r>
       <r>   15.6231    0.0000 </r>
      </set>
      <set comment="kpoint 28">
       <r>  -18.3647    1.0000 </r>
       <r>  -13.9928    1.0000 </r>
       <r>  -11.8414    1.0000 </r>
       <r>   -5.8760    1.0000 </r>
       <r>   -0.4414    0.0000 </r>
       <r>    6.1035    0.0000 </r>
       <r>    6.7884    0.0000 </r>
       <r>    7.3137    0.0000 </r>
       <r>    7.5536    0.0000 </r>
       <r>    7.7948    0.0000 </r>
       <r>    7.9229    0.0000 </r>
       <r>    8.3010    0.0000 </r>
       <r>    8.7270    0.0000 </r>
       <r>    9.2685    0.0000 </r>
       <r>    9.9831    0.0000 </r>
       <r>   10.2726    0.0000 </r>
       <r>   10.3376    0.0000 </r>
       <r>   11.5862    0.0000 </r>
       <r>   11.6367    0.0000 </r>
       <r>   13.3239    0.0000 </r>
       <r>   13.5351    0.0000 </r>
       <r>   13.7004    0.0000 </r>
       <r>   14.1273    0.0000 </r>
       <r>   14.2241    0.0000 </r>
      </set>
      <set comment="kpoint 29">
       <r>  -16.9375    1.0000 </r>
       <r>  -15.6388    1.0000 </r>
       <r>  -12.1798    1.0000 </r>
       <r>   -4.6609    1.0000 </r>
       <r>   -1.8392    0.0000 </r>
       <r>    7.7466    0.0000 </r>
       <r>    8.0151    0.0000 </r>
       <r>    8.3259    0.0000 </r>
       <r>    9.4983    0.0000 </r>
       <r>    9.6986    0.0000 </r>
       <r>    9.7168    0.0000 </r>
       <r>   10.1003    0.0000 </r>
       <r>   10.1930    0.0000 </r>
       <r>   10.8162    0.0000 </r>
       <r>   11.0630    0.0000 </r>
       <r>   11.1077    0.0000 </r>
       <r>   11.1957    0.0000 </r>
       <r>   11.5419    0.0000 </r>
       <r>   11.5457    0.0000 </r>
       <r>   12.1479    0.0000 </r>
       <r>   12.2408    0.0000 </r>
       <r>   12.3757    0.0000 </r>
       <r>   12.5145    0.0000 </r>
       <r>   13.3964    0.0000 </r>
      </set>
      <set comment="kpoint 30">
       <r>  -17.6211    1.0000 </r>
       <r>  -14.8797    1.0000 </r>
       <r>  -12.0668    1.0000 </r>
       <r>   -5.1679    1.0000 </r>
       <r>   -1.2682    0.0000 </r>
       <r>    7.1824    0.0000 </r>
       <r>    7.6059    0.0000 </r>
       <r>    7.8224    0.0000 </r>
       <r>    8.4757    0.0000 </r>
       <r>    8.6465    0.0000 </r>
       <r>    8.9658    0.0000 </r>
       <r>    9.1961    0.0000 </r>
       <r>    9.8578    0.0000 </r>
       <r>    9.9399    0.0000 </r>
       <r>   10.3195    0.0000 </r>
       <r>   11.0361    0.0000 </r>
       <r>   11.1310    0.0000 </r>
       <r>   12.3161    0.0000 </r>
       <r>   12.5294    0.0000 </r>
       <r>   12.6731    0.0000 </r>
       <r>   12.7052    0.0000 </r>
       <r>   12.8266    0.0000 </r>
       <r>   13.0345    0.0000 </r>
       <r>   13.3392    0.0000 </r>
      </set>
      <set comment="kpoint 31">
       <r>  -19.0377    1.0000 </r>
       <r>  -13.1652    1.0000 </r>
       <r>  -11.4560    1.0000 </r>
       <r>   -6.5861    1.0000 </r>
       <r>    0.4471    0.0000 </r>
       <r>    5.1411    0.0000 </r>
       <r>    5.9021    0.0000 </r>
       <r>    6.2982    0.0000 </r>
       <r>    6.5665    0.0000 </r>
       <r>    6.8003    0.0000 </r>
       <r>    7.3735    0.0000 </r>
       <r>    7.7013    0.0000 </r>
       <r>    7.9967    0.0000 </r>
       <r>    8.5142    0.0000 </r>
       <r>    9.0076    0.0000 </r>
       <r>    9.4894    0.0000 </r>
       <r>    9.8333    0.0000 </r>
       <r>   10.6548    0.0000 </r>
       <r>   11.0598    0.0000 </r>
       <r>   12.5672    0.0000 </r>
       <r>   12.6395    0.0000 </r>
       <r>   14.6271    0.0000 </r>
       <r>   14.8472    0.0000 </r>
       <r>   14.9857    0.0000 </r>
      </set>
      <set comment="kpoint 32">
       <r>  -20.2123    1.0000 </r>
       <r>  -11.7766    1.0000 </r>
       <r>  -10.1831    1.0000 </r>
       <r>   -7.8921    1.0000 </r>
       <r>    2.2307    0.0000 </r>
       <r>    3.4883    0.0000 </r>
       <r>    4.2840    0.0000 </r>
       <r>    4.5787    0.0000 </r>
       <r>    4.8732    0.0000 </r>
       <r>    5.0888    0.0000 </r>
       <r>    5.7133    0.0000 </r>
       <r>    6.0124    0.0000 </r>
       <r>    6.9271    0.0000 </r>
       <r>    7.0050    0.0000 </r>
       <r>    7.3427    0.0000 </r>
       <r>    8.4741    0.0000 </r>
       <r>    8.7859    0.0000 </r>
       <r>    8.9809    0.0000 </r>
       <r>   10.3067    0.0000 </r>
       <r>   10.9743    0.0000 </r>
       <r>   12.1997    0.0000 </r>
       <r>   13.3209    0.0000 </r>
       <r>   13.6530    0.0000 </r>
       <r>   15.1365    0.0000 </r>
      </set>
      <set comment="kpoint 33">
       <r>  -21.0926    1.0000 </r>
       <r>  -10.6412    1.0000 </r>
       <r>   -8.9041    1.0000 </r>
       <r>   -8.7014    1.0000 </r>
       <r>    2.2654    0.0000 </r>
       <r>    3.0476    0.0000 </r>
       <r>    3.3170    0.0000 </r>
       <r>    3.6116    0.0000 </r>
       <r>    3.8314    0.0000 </r>
       <r>    3.8705    0.0000 </r>
       <r>    4.4795    0.0000 </r>
       <r>    4.7590    0.0000 </r>
       <r>    5.4928    0.0000 </r>
       <r>    5.7054    0.0000 </r>
       <r>    6.0804    0.0000 </r>
       <r>    7.2829    0.0000 </r>
       <r>    7.7271    0.0000 </r>
       <r>    9.1556    0.0000 </r>
       <r>    9.1953    0.0000 </r>
       <r>    9.7416    0.0000 </r>
       <r>   11.4185    0.0000 </r>
       <r>   12.0948    0.0000 </r>
       <r>   12.8964    0.0000 </r>
       <r>   13.8537    0.0000 </r>
      </set>
      <set comment="kpoint 34">
       <r>  -21.6598    1.0000 </r>
       <r>   -9.5660    1.0000 </r>
       <r>   -9.5337    1.0000 </r>
       <r>   -7.8082    1.0000 </r>
       <r>    1.4845    0.0000 </r>
       <r>    2.2681    0.0000 </r>
       <r>    2.5135    0.0000 </r>
       <r>    2.8228    0.0000 </r>
       <r>    3.0307    0.0000 </r>
       <r>    3.6751    0.0000 </r>
       <r>    3.9633    0.0000 </r>
       <r>    4.8948    0.0000 </r>
       <r>    4.9714    0.0000 </r>
       <r>    5.1811    0.0000 </r>
       <r>    5.2975    0.0000 </r>
       <r>    6.5043    0.0000 </r>
       <r>    6.9361    0.0000 </r>
       <r>    8.4302    0.0000 </r>
       <r>    8.8491    0.0000 </r>
       <r>    8.9478    0.0000 </r>
       <r>   10.6881    0.0000 </r>
       <r>   11.1889    0.0000 </r>
       <r>   11.3291    0.0000 </r>
       <r>   13.2536    0.0000 </r>
      </set>
      <set comment="kpoint 35">
       <r>  -21.9050    1.0000 </r>
       <r>   -9.8540    1.0000 </r>
       <r>   -8.6989    1.0000 </r>
       <r>   -7.7441    1.0000 </r>
       <r>    1.1494    0.0000 </r>
       <r>    1.9297    0.0000 </r>
       <r>    2.1682    0.0000 </r>
       <r>    2.4799    0.0000 </r>
       <r>    2.6868    0.0000 </r>
       <r>    3.3346    0.0000 </r>
       <r>    3.6227    0.0000 </r>
       <r>    4.5711    0.0000 </r>
       <r>    4.9176    0.0000 </r>
       <r>    5.6219    0.0000 </r>
       <r>    5.8367    0.0000 </r>
       <r>    6.1616    0.0000 </r>
       <r>    6.6003    0.0000 </r>
       <r>    7.3868    0.0000 </r>
       <r>    8.0924    0.0000 </r>
       <r>    8.6100    0.0000 </r>
       <r>   10.3570    0.0000 </r>
       <r>   10.9633    0.0000 </r>
       <r>   10.9880    0.0000 </r>
       <r>   12.9361    0.0000 </r>
      </set>
      <set comment="kpoint 36">
       <r>  -21.8248    1.0000 </r>
       <r>   -9.7597    1.0000 </r>
       <r>   -9.0634    1.0000 </r>
       <r>   -7.6755    1.0000 </r>
       <r>    1.2588    0.0000 </r>
       <r>    2.0404    0.0000 </r>
       <r>    2.2811    0.0000 </r>
       <r>    2.5921    0.0000 </r>
       <r>    2.7992    0.0000 </r>
       <r>    3.4460    0.0000 </r>
       <r>    3.7341    0.0000 </r>
       <r>    4.6803    0.0000 </r>
       <r>    5.0094    0.0000 </r>
       <r>    5.2910    0.0000 </r>
       <r>    5.5948    0.0000 </r>
       <r>    6.2765    0.0000 </r>
       <r>    6.7083    0.0000 </r>
       <r>    8.0898    0.0000 </r>
       <r>    8.2040    0.0000 </r>
       <r>    8.7206    0.0000 </r>
       <r>   10.4665    0.0000 </r>
       <r>   10.9805    0.0000 </r>
       <r>   11.0937    0.0000 </r>
       <r>   13.0425    0.0000 </r>
      </set>
      <set comment="kpoint 37">
       <r>  -20.3830    1.0000 </r>
       <r>  -12.2769    1.0000 </r>
       <r>   -8.9044    1.0000 </r>
       <r>   -8.0975    1.0000 </r>
       <r>    2.2556    0.0000 </r>
       <r>    3.2450    0.0000 </r>
       <r>    4.0783    0.0000 </r>
       <r>    4.3325    0.0000 </r>
       <r>    4.6382    0.0000 </r>
       <r>    4.7827    0.0000 </r>
       <r>    4.8849    0.0000 </r>
       <r>    5.4846    0.0000 </r>
       <r>    5.7804    0.0000 </r>
       <r>    6.7080    0.0000 </r>
       <r>    7.0737    0.0000 </r>
       <r>    8.2754    0.0000 </r>
       <r>    8.7252    0.0000 </r>
       <r>   10.1665    0.0000 </r>
       <r>   10.7279    0.0000 </r>
       <r>   11.5777    0.0000 </r>
       <r>   12.3256    0.0000 </r>
       <r>   13.0764    0.0000 </r>
       <r>   13.2532    0.0000 </r>
       <r>   16.5970    0.0000 </r>
      </set>
      <set comment="kpoint 38">
       <r>  -19.5183    1.0000 </r>
       <r>  -13.2402    1.0000 </r>
       <r>  -10.1519    1.0000 </r>
       <r>   -7.1315    1.0000 </r>
       <r>    0.9436    0.0000 </r>
       <r>    4.4598    0.0000 </r>
       <r>    5.2743    0.0000 </r>
       <r>    5.5902    0.0000 </r>
       <r>    5.8790    0.0000 </r>
       <r>    5.9982    0.0000 </r>
       <r>    6.1186    0.0000 </r>
       <r>    6.7117    0.0000 </r>
       <r>    7.0255    0.0000 </r>
       <r>    7.9110    0.0000 </r>
       <r>    8.3122    0.0000 </r>
       <r>    9.4215    0.0000 </r>
       <r>    9.9526    0.0000 </r>
       <r>   10.8358    0.0000 </r>
       <r>   11.1105    0.0000 </r>
       <r>   11.9615    0.0000 </r>
       <r>   12.4777    0.0000 </r>
       <r>   14.0184    0.0000 </r>
       <r>   14.1260    0.0000 </r>
       <r>   14.3103    0.0000 </r>
      </set>
      <set comment="kpoint 39">
       <r>  -18.3717    1.0000 </r>
       <r>  -14.0238    1.0000 </r>
       <r>  -11.7995    1.0000 </r>
       <r>   -5.8852    1.0000 </r>
       <r>   -0.4483    0.0000 </r>
       <r>    6.0962    0.0000 </r>
       <r>    6.7848    0.0000 </r>
       <r>    7.3059    0.0000 </r>
       <r>    7.5466    0.0000 </r>
       <r>    7.7965    0.0000 </r>
       <r>    8.0579    0.0000 </r>
       <r>    8.2958    0.0000 </r>
       <r>    8.7204    0.0000 </r>
       <r>    9.2673    0.0000 </r>
       <r>    9.9656    0.0000 </r>
       <r>   10.2150    0.0000 </r>
       <r>   10.2713    0.0000 </r>
       <r>   11.5786    0.0000 </r>
       <r>   11.6287    0.0000 </r>
       <r>   13.3060    0.0000 </r>
[...]
       <r>   10.7113    0.0000 </r>
       <r>   11.2955    0.0000 </r>
       <r>   11.5062    0.0000 </r>
       <r>   12.4517    0.0000 </r>
       <r>   12.5019    0.0000 </r>
       <r>   12.7878    0.0000 </r>
       <r>   12.8711    0.0000 </r>
       <r>   13.3503    0.0000 </r>
      </set>
      <set comment="kpoint 69">
       <r>  -18.9823    1.0000 </r>
       <r>  -13.6139    1.0000 </r>
       <r>  -11.0006    1.0000 </r>
       <r>   -6.5424    1.0000 </r>
       <r>    0.2719    0.0000 </r>
       <r>    5.2205    0.0000 </r>
       <r>    6.0036    0.0000 </r>
       <r>    6.3844    0.0000 </r>
       <r>    6.6565    0.0000 </r>
       <r>    6.8533    0.0000 </r>
       <r>    6.9447    0.0000 </r>
       <r>    7.4682    0.0000 </r>
       <r>    7.8108    0.0000 </r>
       <r>    8.6198    0.0000 </r>
       <r>    9.0903    0.0000 </r>
       <r>    9.9697    0.0000 </r>
       <r>   10.5760    0.0000 </r>
       <r>   10.7813    0.0000 </r>
       <r>   11.1990    0.0000 </r>
       <r>   12.6298    0.0000 </r>
       <r>   12.7212    0.0000 </r>
       <r>   13.9295    0.0000 </r>
       <r>   14.3914    0.0000 </r>
       <r>   14.6794    0.0000 </r>
      </set>
      <set comment="kpoint 70">
       <r>  -19.0624    1.0000 </r>
       <r>  -13.1540    1.0000 </r>
       <r>  -11.4437    1.0000 </r>
       <r>   -6.6112    1.0000 </r>
       <r>    0.4542    0.0000 </r>
       <r>    5.1089    0.0000 </r>
       <r>    5.8728    0.0000 </r>
       <r>    6.2666    0.0000 </r>
       <r>    6.5354    0.0000 </r>
       <r>    6.7686    0.0000 </r>
       <r>    7.3433    0.0000 </r>
       <r>    7.6750    0.0000 </r>
       <r>    8.1330    0.0000 </r>
       <r>    8.4860    0.0000 </r>
       <r>    8.9800    0.0000 </r>
       <r>    9.5253    0.0000 </r>
       <r>    9.8117    0.0000 </r>
       <r>   10.6242    0.0000 </r>
       <r>   11.0432    0.0000 </r>
       <r>   12.5415    0.0000 </r>
       <r>   12.6078    0.0000 </r>
       <r>   14.5966    0.0000 </r>
       <r>   14.8051    0.0000 </r>
       <r>   14.9515    0.0000 </r>
      </set>
      <set comment="kpoint 71">
       <r>  -18.8353    1.0000 </r>
       <r>  -14.2341    1.0000 </r>
       <r>  -10.4129    1.0000 </r>
       <r>   -6.4226    1.0000 </r>
       <r>   -0.0628    0.0000 </r>
       <r>    5.4173    0.0000 </r>
       <r>    5.9288    0.0000 </r>
       <r>    6.2445    0.0000 </r>
       <r>    6.6071    0.0000 </r>
       <r>    6.8831    0.0000 </r>
       <r>    7.1108    0.0000 </r>
       <r>    7.7008    0.0000 </r>
       <r>    8.0276    0.0000 </r>
       <r>    8.8661    0.0000 </r>
       <r>    9.3083    0.0000 </r>
       <r>   10.2541    0.0000 </r>
       <r>   10.9124    0.0000 </r>
       <r>   11.0866    0.0000 </r>
       <r>   11.4460    0.0000 </r>
       <r>   12.6726    0.0000 </r>
       <r>   12.9214    0.0000 </r>
       <r>   13.3698    0.0000 </r>
       <r>   13.5347    0.0000 </r>
       <r>   13.7335    0.0000 </r>
      </set>
      <set comment="kpoint 72">
       <r>  -18.3184    1.0000 </r>
       <r>  -15.3773    1.0000 </r>
       <r>   -9.6111    1.0000 </r>
       <r>   -6.0287    1.0000 </r>
       <r>   -0.8494    0.0000 </r>
       <r>    4.4664    0.0000 </r>
       <r>    6.2124    0.0000 </r>
       <r>    7.0547    0.0000 </r>
       <r>    7.4049    0.0000 </r>
       <r>    7.6849    0.0000 </r>
       <r>    7.9042    0.0000 </r>
       <r>    8.5068    0.0000 </r>
       <r>    8.8162    0.0000 </r>
       <r>    9.6789    0.0000 </r>
       <r>    9.9756    0.0000 </r>
       <r>   10.1031    0.0000 </r>
       <r>   10.7692    0.0000 </r>
       <r>   11.2842    0.0000 </r>
       <r>   11.5055    0.0000 </r>
       <r>   11.7249    0.0000 </r>
       <r>   11.7458    0.0000 </r>
       <r>   11.9665    0.0000 </r>
       <r>   12.4497    0.0000 </r>
       <r>   12.8308    0.0000 </r>
      </set>
     </set>
    </set>
   </array>
  </eigenvalues>
  <separator name="orbital magnetization" >
   <v name="MAGDIPOLOUT">      0.00000000      0.00000000      0.00000000</v>
  </separator>
  <dos>
   <i name="efermi">     -3.57723509 </i>
   <total>
    <array>
     <dimension dim="1">gridpoints</dimension>
     <dimension dim="2">spin</dimension>
     <field>energy</field>
     <field>total</field>
     <field>integrated</field>
     <set>
      <set comment="spin 1">
       <r>   -24.5982     0.0000     0.0000 </r>
       <r>   -24.4544     0.0000     0.0000 </r>
       <r>   -24.3105     0.0000     0.0000 </r>
       <r>   -24.1667     0.0000     0.0000 </r>
       <r>   -24.0228     0.0000     0.0000 </r>
       <r>   -23.8790     0.0000     0.0000 </r>
       <r>   -23.7351     0.0000     0.0000 </r>
       <r>   -23.5912     0.0000     0.0000 </r>
       <r>   -23.4474     0.0000     0.0000 </r>
       <r>   -23.3035     0.0000     0.0000 </r>
       <r>   -23.1597     0.0000     0.0000 </r>
       <r>   -23.0158     0.0000     0.0000 </r>
       <r>   -22.8720     0.0000     0.0000 </r>
       <r>   -22.7281     0.0009     0.0001 </r>
       <r>   -22.5842     0.2178     0.0315 </r>
       <r>   -22.4404     0.1994     0.0601 </r>
       <r>   -22.2965     0.4776     0.1288 </r>
       <r>   -22.1527     0.2375     0.1630 </r>
       <r>   -22.0088     0.2190     0.1945 </r>
       <r>   -21.8650     0.3742     0.2484 </r>
       <r>   -21.7211     0.4047     0.3066 </r>
       <r>   -21.5773     0.2846     0.3475 </r>
       <r>   -21.4334     0.2206     0.3793 </r>
       <r>   -21.2895     0.2603     0.4167 </r>
       <r>   -21.1457     0.3403     0.4657 </r>
       <r>   -21.0018     0.4424     0.5293 </r>
       <r>   -20.8580     0.3696     0.5825 </r>
       <r>   -20.7141     0.1798     0.6083 </r>
       <r>   -20.5703     0.4055     0.6666 </r>
       <r>   -20.4264     0.0326     0.6713 </r>
       <r>   -20.2825     0.3676     0.7242 </r>
       <r>   -20.1387     0.5668     0.8057 </r>
       <r>   -19.9948     0.3304     0.8533 </r>
       <r>   -19.8510     0.2484     0.8890 </r>
       <r>   -19.7071     0.3574     0.9404 </r>
       <r>   -19.5633     0.2518     0.9766 </r>
       <r>   -19.4194     0.4815     1.0459 </r>
       <r>   -19.2756     0.0671     1.0556 </r>
       <r>   -19.1317     0.0104     1.0571 </r>
       <r>   -18.9878     0.8572     1.1804 </r>
       <r>   -18.8440     0.3958     1.2373 </r>
       <r>   -18.7001     0.2817     1.2778 </r>
       <r>   -18.5563     0.3315     1.3255 </r>
       <r>   -18.4124     0.0963     1.3394 </r>
       <r>   -18.2686     0.6508     1.4330 </r>
       <r>   -18.1247     0.1230     1.4507 </r>
       <r>   -17.9808     0.3838     1.5059 </r>
       <r>   -17.8370     0.1521     1.5278 </r>
       <r>   -17.6931     0.2870     1.5691 </r>
       <r>   -17.5493     0.8823     1.6960 </r>
       <r>   -17.4054     0.4876     1.7661 </r>
       <r>   -17.2616     0.4645     1.8330 </r>
       <r>   -17.1177     0.0027     1.8334 </r>
       <r>   -16.9739     0.2771     1.8732 </r>
       <r>   -16.8300     0.3017     1.9166 </r>
       <r>   -16.6861     0.0002     1.9167 </r>
       <r>   -16.5423     0.0317     1.9212 </r>
       <r>   -16.3984     0.1936     1.9491 </r>
       <r>   -16.2546     0.5403     2.0268 </r>
       <r>   -16.1107     0.3908     2.0830 </r>
       <r>   -15.9669     0.3218     2.1293 </r>
       <r>   -15.8230     0.2011     2.1582 </r>
       <r>   -15.6791     0.1300     2.1769 </r>
       <r>   -15.5353     0.5200     2.2517 </r>
       <r>   -15.3914     0.6505     2.3453 </r>
       <r>   -15.2476     0.5169     2.4197 </r>
       <r>   -15.1037     0.3591     2.4713 </r>
       <r>   -14.9599     0.0098     2.4728 </r>
       <r>   -14.8160     0.7150     2.5756 </r>
       <r>   -14.6722     0.2467     2.6111 </r>
       <r>   -14.5283     0.0001     2.6111 </r>
       <r>   -14.3844     0.3776     2.6654 </r>
       <r>   -14.2406     0.5290     2.7416 </r>
       <r>   -14.0967     0.2559     2.7784 </r>
       <r>   -13.9529     0.3572     2.8297 </r>
       <r>   -13.8090     0.2143     2.8606 </r>
       <r>   -13.6652     0.0733     2.8711 </r>
       <r>   -13.5213     0.3354     2.9194 </r>
       <r>   -13.3774     0.4187     2.9796 </r>
       <r>   -13.2336     0.4879     3.0498 </r>
       <r>   -13.0897     0.7999     3.1649 </r>
       <r>   -12.9459     0.0434     3.1711 </r>
       <r>   -12.8020     0.2053     3.2006 </r>
       <r>   -12.6582     0.3525     3.2513 </r>
       <r>   -12.5143     0.3704     3.3046 </r>
       <r>   -12.3704     0.1717     3.3293 </r>
       <r>   -12.2266     0.4125     3.3887 </r>
       <r>   -12.0827     0.8342     3.5087 </r>
       <r>   -11.9389     0.3255     3.5555 </r>
       <r>   -11.7950     0.3637     3.6078 </r>
       <r>   -11.6512     0.5941     3.6933 </r>
       <r>   -11.5073     0.0292     3.6975 </r>
       <r>   -11.3635     0.5635     3.7785 </r>
       <r>   -11.2196     0.3158     3.8240 </r>
       <r>   -11.0757     0.6417     3.9163 </r>
       <r>   -10.9319     0.4015     3.9741 </r>
       <r>   -10.7880     0.1935     4.0019 </r>
       <r>   -10.6442     0.8063     4.1179 </r>
       <r>   -10.5003     0.7622     4.2275 </r>
       <r>   -10.3565     0.7687     4.3381 </r>
       <r>   -10.2126     0.7111     4.4404 </r>
       <r>   -10.0687     1.3993     4.6417 </r>
       <r>    -9.9249     0.5161     4.7159 </r>
       <r>    -9.7810     0.9355     4.8505 </r>
       <r>    -9.6372     0.8620     4.9745 </r>
       <r>    -9.4933     1.0823     5.1302 </r>
       <r>    -9.3495     1.2085     5.3041 </r>
       <r>    -9.2056     0.8587     5.4276 </r>
       <r>    -9.0618     0.2634     5.4655 </r>
       <r>    -8.9179     1.1867     5.6362 </r>
       <r>    -8.7740     0.6510     5.7298 </r>
       <r>    -8.6302     1.2164     5.9048 </r>
       <r>    -8.4863     0.5325     5.9814 </r>
       <r>    -8.3425     0.5821     6.0652 </r>
       <r>    -8.1986     0.1794     6.0910 </r>
       <r>    -8.0548     0.9889     6.2332 </r>
       <r>    -7.9109     0.2645     6.2713 </r>
       <r>    -7.7670     0.8671     6.3960 </r>
       <r>    -7.6232     1.0697     6.5499 </r>
       <r>    -7.4793     0.2380     6.5841 </r>
       <r>    -7.3355     0.4573     6.6499 </r>
       <r>    -7.1916     0.8571     6.7732 </r>
       <r>    -7.0478     0.5620     6.8541 </r>
       <r>    -6.9039     0.2185     6.8855 </r>
       <r>    -6.7601     0.4314     6.9476 </r>
       <r>    -6.6162     0.6690     7.0438 </r>
       <r>    -6.4723     0.8118     7.1606 </r>
       <r>    -6.3285     0.6971     7.2609 </r>
       <r>    -6.1846     0.4629     7.3275 </r>
       <r>    -6.0408     0.1283     7.3459 </r>
       <r>    -5.8969     0.4232     7.4068 </r>
       <r>    -5.7531     0.5113     7.4803 </r>
       <r>    -5.6092     0.3653     7.5329 </r>
       <r>    -5.4653     0.3472     7.5828 </r>
       <r>    -5.3215     0.2122     7.6134 </r>
       <r>    -5.1776     1.1104     7.7731 </r>
       <r>    -5.0338     0.4187     7.8333 </r>
       <r>    -4.8899     0.0000     7.8333 </r>
       <r>    -4.7461     0.0133     7.8353 </r>
       <r>    -4.6022     0.3624     7.8874 </r>
       <r>    -4.4584     0.1333     7.9066 </r>
       <r>    -4.3145     0.0703     7.9167 </r>
       <r>    -4.1706     0.1428     7.9372 </r>
       <r>    -4.0268     0.0502     7.9444 </r>
       <r>    -3.8829     0.0673     7.9541 </r>
       <r>    -3.7391     0.3176     7.9998 </r>
       <r>    -3.5952     0.0013     8.0000 </r>
       <r>    -3.4514     0.0000     8.0000 </r>
       <r>    -3.3075     0.0000     8.0000 </r>
       <r>    -3.1636     0.0000     8.0000 </r>
       <r>    -3.0198     0.0000     8.0000 </r>
       <r>    -2.8759     0.0000     8.0000 </r>
       <r>    -2.7321     0.0000     8.0000 </r>
       <r>    -2.5882     0.0094     8.0014 </r>
       <r>    -2.4444     0.3634     8.0536 </r>
       <r>    -2.3005     0.0161     8.0560 </r>
       <r>    -2.1567     0.1845     8.0825 </r>
       <r>    -2.0128     0.0058     8.0833 </r>
       <r>    -1.8689     0.2031     8.1126 </r>
       <r>    -1.7251     0.3758     8.1666 </r>
       <r>    -1.5812     0.0332     8.1714 </r>
       <r>    -1.4374     0.7408     8.2780 </r>
       <r>    -1.2935     0.6513     8.3717 </r>
       <r>    -1.1497     0.7187     8.4750 </r>
       <r>    -1.0058     0.1906     8.5025 </r>
       <r>    -0.8619     0.4811     8.5717 </r>
       <r>    -0.7181     0.2741     8.6111 </r>
       <r>    -0.5742     0.0002     8.6111 </r>
       <r>    -0.4304     0.5219     8.6862 </r>
       <r>    -0.2865     0.2504     8.7222 </r>
       <r>    -0.1427     0.0038     8.7228 </r>
       <r>     0.0012     0.3779     8.7771 </r>
       <r>     0.1450     0.4644     8.8439 </r>
       <r>     0.2889     0.5559     8.9239 </r>
       <r>     0.4328     0.2882     8.9654 </r>
       <r>     0.5766     0.7134     9.0680 </r>
       <r>     0.7205     0.3007     9.1112 </r>
       <r>     0.8643     0.3622     9.1633 </r>
       <r>     1.0082     0.6246     9.2532 </r>
       <r>     1.1520     0.7262     9.3577 </r>
       <r>     1.2959     1.2430     9.5365 </r>
       <r>     1.4398     0.6264     9.6266 </r>
       <r>     1.5836     1.1029     9.7853 </r>
       <r>     1.7275     1.1229     9.9468 </r>
       <r>     1.8713     1.2958    10.1332 </r>
       <r>     2.0152     1.1293    10.2956 </r>
       <r>     2.1590     1.4580    10.5054 </r>
       <r>     2.3029     2.1092    10.8088 </r>
       <r>     2.4467     1.1971    10.9810 </r>
       <r>     2.5906     1.3173    11.1705 </r>
       <r>     2.7345     1.6496    11.4078 </r>
       <r>     2.8783     1.8318    11.6714 </r>
       <r>     3.0222     1.6760    11.9125 </r>
       <r>     3.1660     1.4976    12.1279 </r>
       <r>     3.3099     1.7845    12.3846 </r>
       <r>     3.4537     1.3561    12.5797 </r>
       <r>     3.5976     2.2836    12.9082 </r>
       <r>     3.7415     2.1338    13.2152 </r>
       <r>     3.8853     2.2092    13.5330 </r>
       <r>     4.0292     1.8004    13.7920 </r>
       <r>     4.1730     2.0897    14.0926 </r>
       <r>     4.3169     2.6091    14.4679 </r>
       <r>     4.4607     2.8582    14.8791 </r>
       <r>     4.6046     2.4876    15.2369 </r>
       <r>     4.7484     3.2817    15.7090 </r>
       <r>     4.8923     1.7068    15.9546 </r>
       <r>     5.0362     3.6439    16.4788 </r>
       <r>     5.1800     3.1028    16.9251 </r>
       <r>     5.3239     4.5513    17.5798 </r>
       <r>     5.4677     2.0790    17.8789 </r>
       <r>     5.6116     2.9830    18.3080 </r>
       <r>     5.7554     2.9920    18.7385 </r>
       <r>     5.8993     3.6791    19.2677 </r>
       <r>     6.0432     3.5369    19.7765 </r>
       <r>     6.1870     2.7616    20.1738 </r>
       <r>     6.3309     4.3024    20.7927 </r>
       <r>     6.4747     1.4148    20.9963 </r>
       <r>     6.6186     2.7543    21.3925 </r>
       <r>     6.7624     3.7032    21.9252 </r>
       <r>     6.9063     2.6725    22.3097 </r>
       <r>     7.0501     3.0728    22.7517 </r>
       <r>     7.1940     2.8134    23.1564 </r>
       <r>     7.3379     3.2966    23.6307 </r>
       <r>     7.4817     3.8705    24.1875 </r>
       <r>     7.6256     3.1838    24.6455 </r>
       <r>     7.7694     4.4075    25.2795 </r>
       <r>     7.9133     3.0755    25.7219 </r>
       <r>     8.0571     4.0150    26.2995 </r>
       <r>     8.2010     2.6281    26.6776 </r>
       <r>     8.3449     4.0738    27.2636 </r>
       <r>     8.4887     2.5076    27.6244 </r>
       <r>     8.6326     2.7194    28.0156 </r>
       <r>     8.7764     3.3811    28.5019 </r>
       <r>     8.9203     3.4052    28.9918 </r>
       <r>     9.0641     4.0691    29.5772 </r>
       <r>     9.2080     4.7899    30.2662 </r>
       <r>     9.3518     3.2091    30.7279 </r>
       <r>     9.4957     3.2897    31.2011 </r>
       <r>     9.6396     2.6179    31.5777 </r>
       <r>     9.7834     5.1022    32.3117 </r>
       <r>     9.9273     3.1208    32.7606 </r>
       <r>    10.0711     4.7933    33.4502 </r>
       <r>    10.2150     4.3536    34.0765 </r>
       <r>    10.3588     3.8635    34.6322 </r>
       <r>    10.5027     3.3274    35.1109 </r>
       <r>    10.6466     2.9372    35.5334 </r>
       <r>    10.7904     3.8403    36.0859 </r>
       <r>    10.9343     3.4573    36.5833 </r>
       <r>    11.0781     5.7967    37.4172 </r>
       <r>    11.2220     4.2419    38.0274 </r>
       <r>    11.3658     3.4325    38.5212 </r>
       <r>    11.5097     3.6502    39.0463 </r>
       <r>    11.6535     3.7409    39.5844 </r>
       <r>    11.7974     2.8054    39.9880 </r>
       <r>    11.9413     3.2975    40.4624 </r>
       <r>    12.0851     4.4242    41.0988 </r>
       <r>    12.2290     3.4188    41.5906 </r>
       <r>    12.3728     3.1018    42.0368 </r>
       <r>    12.5167     4.1531    42.6343 </r>
       <r>    12.6605     5.0229    43.3569 </r>
       <r>    12.8044     2.7237    43.7487 </r>
       <r>    12.9483     3.3930    44.2368 </r>
       <r>    13.0921     3.1335    44.6876 </r>
       <r>    13.2360     1.9581    44.9692 </r>
       <r>    13.3798     3.6681    45.4969 </r>
       <r>    13.5237     1.6560    45.7351 </r>
       <r>    13.6675     2.5271    46.0987 </r>
       <r>    13.8114     2.4258    46.4476 </r>
       <r>    13.9552     2.4577    46.8012 </r>
       <r>    14.0991     2.3215    47.1352 </r>
       <r>    14.2430     1.4039    47.3371 </r>
       <r>    14.3868     1.3738    47.5348 </r>
       <r>    14.5307     0.3534    47.5856 </r>
       <r>    14.6745     0.8099    47.7021 </r>
       <r>    14.8184     0.3047    47.7459 </r>
       <r>    14.9622     0.4345    47.8084 </r>
       <r>    15.1061     0.4056    47.8668 </r>
       <r>    15.2500     0.3398    47.9157 </r>
       <r>    15.3938     0.1882    47.9427 </r>
       <r>    15.5377     0.0133    47.9447 </r>
       <r>    15.6815     0.1821    47.9709 </r>
       <r>    15.8254     0.0095    47.9722 </r>
       <r>    15.9692     0.0000    47.9722 </r>
       <r>    16.1131     0.0000    47.9722 </r>
       <r>    16.2569     0.0000    47.9722 </r>
       <r>    16.4008     0.0000    47.9722 </r>
       <r>    16.5447     0.0134    47.9742 </r>
       <r>    16.6885     0.1787    47.9999 </r>
       <r>    16.8324     0.0009    48.0000 </r>
       <r>    16.9762     0.0000    48.0000 </r>
       <r>    17.1201     0.0000    48.0000 </r>
       <r>    17.2639     0.0000    48.0000 </r>
       <r>    17.4078     0.0000    48.0000 </r>
       <r>    17.5517     0.0000    48.0000 </r>
       <r>    17.6955     0.0000    48.0000 </r>
       <r>    17.8394     0.0000    48.0000 </r>
       <r>    17.9832     0.0000    48.0000 </r>
       <r>    18.1271     0.0000    48.0000 </r>
       <r>    18.2709     0.0000    48.0000 </r>
       <r>    18.4148     0.0000    48.0000 </r>
       <r>    18.5586     0.0000    48.0000 </r>
      </set>
     </set>
    </array>
   </total>
  </dos>
 </calculation>
 <structure name="finalpos" >
  <crystal>
   <varray name="basis" >
    <v>       1.23064405      -2.13565745       0.00000000 </v>
    <v>       1.23776977       2.13977147       0.00000000 </v>
    <v>       0.00000000       0.00000000      30.28239374 </v>
   </varray>
   <i name="volume">    159.79259873 </i>
   <varray name="rec_basis" >
    <v>       0.40550941      -0.23457051       0.00000000 </v>
    <v>       0.40472976       0.23322011       0.00000000 </v>
    <v>       0.00000000       0.00000000       0.03302249 </v>
   </varray>
  </crystal>
  <varray name="positions" >
   <v>      -0.00012482       0.99981866       0.50000000 </v>
   <v>       0.66679482       0.33351134       0.50000000 </v>
  </varray>
 </structure>
</modeling>
