unknown system                          
           1
     1.230644   -2.135657    0.000000
     1.237770    2.139771    0.000000
     0.000000    0.000000   30.282394
   C 
   2
Direct configuration=     1
   0.00000262  0.99999738  0.50000000
   0.66666738  0.33333262  0.50000000
Direct configuration=     2
  -0.00066850  0.99905619  0.50000000
   0.66733850  0.33427381  0.50000000
Direct configuration=     3
  -0.00012482  0.99981866  0.50000000
   0.66679482  0.33351134  0.50000000
