   4   4   0   0
  0.1792501E+02  0.4154383E-09  0.4154382E-09  0.4154382E-09  0.2000000E-15
  1.000000000000000E-004
  CAR 
 unknown system                          
     18.89818543     -1.67856366  301      8.69197591      1.00000000
     -1.679  0.0000E+00  0.0000E+00
     -1.610  0.0000E+00  0.0000E+00
     -1.541  0.0000E+00  0.0000E+00
     -1.473  0.0000E+00  0.0000E+00
     -1.404  0.0000E+00  0.0000E+00
     -1.336  0.0000E+00  0.0000E+00
     -1.267  0.4796E-20  0.3290E-21
     -1.198  0.8623E-17  0.5918E-18
     -1.130  0.7899E-14  0.5424E-15
     -1.061  0.2938E-11  0.2020E-12
     -0.993  0.4539E-09  0.3133E-10
     -0.924  0.3015E-07  0.2100E-08
     -0.855  0.9036E-06  0.6408E-07
     -0.787  0.1292E-04  0.9502E-06
     -0.718  0.9302E-04  0.7331E-05
     -0.650  0.3537E-03  0.3159E-04
     -0.581  0.7627E-03  0.8390E-04
     -0.513  0.1138E-02  0.1619E-03
     -0.444  0.1564E-02  0.2692E-03
     -0.375  0.1859E-02  0.3967E-03
     -0.307  0.1848E-02  0.5235E-03
     -0.238  0.2194E-02  0.6740E-03
     -0.170  0.2650E-02  0.8557E-03
     -0.101  0.2723E-02  0.1042E-02
     -0.032  0.2855E-02  0.1238E-02
      0.036  0.2846E-02  0.1434E-02
      0.105  0.2903E-02  0.1633E-02
      0.173  0.3639E-02  0.1882E-02
      0.242  0.4101E-02  0.2164E-02
      0.311  0.4075E-02  0.2443E-02
      0.379  0.3546E-02  0.2686E-02
      0.448  0.3334E-02  0.2915E-02
      0.516  0.4453E-02  0.3220E-02
      0.585  0.5365E-02  0.3588E-02
      0.653  0.5255E-02  0.3949E-02
      0.722  0.4833E-02  0.4280E-02
      0.791  0.4829E-02  0.4611E-02
      0.859  0.5453E-02  0.4985E-02
      0.928  0.5777E-02  0.5382E-02
      0.996  0.5790E-02  0.5779E-02
      1.065  0.6092E-02  0.6197E-02
      1.134  0.7224E-02  0.6692E-02
      1.202  0.8029E-02  0.7243E-02
      1.271  0.7510E-02  0.7758E-02
      1.339  0.7072E-02  0.8243E-02
      1.408  0.7136E-02  0.8732E-02
      1.477  0.8826E-02  0.9338E-02
      1.545  0.1156E-01  0.1013E-01
      1.614  0.1216E-01  0.1096E-01
      1.682  0.1136E-01  0.1174E-01
      1.751  0.1468E-01  0.1275E-01
      1.819  0.2116E-01  0.1420E-01
      1.888  0.2592E-01  0.1598E-01
      1.957  0.2798E-01  0.1790E-01
      2.025  0.2829E-01  0.1984E-01
      2.094  0.3147E-01  0.2200E-01
      2.162  0.3894E-01  0.2467E-01
      2.231  0.4530E-01  0.2778E-01
      2.300  0.5046E-01  0.3124E-01
      2.368  0.5697E-01  0.3514E-01
      2.437  0.6564E-01  0.3965E-01
      2.505  0.7326E-01  0.4467E-01
      2.574  0.7816E-01  0.5003E-01
      2.643  0.7956E-01  0.5549E-01
      2.711  0.7836E-01  0.6086E-01
      2.780  0.7747E-01  0.6618E-01
      2.848  0.7323E-01  0.7120E-01
      2.917  0.7010E-01  0.7601E-01
      2.985  0.7101E-01  0.8088E-01
      3.054  0.6830E-01  0.8556E-01
      3.123  0.6505E-01  0.9002E-01
      3.191  0.6116E-01  0.9422E-01
      3.260  0.5384E-01  0.9791E-01
      3.328  0.5280E-01  0.1015E+00
      3.397  0.5725E-01  0.1055E+00
      3.466  0.6276E-01  0.1098E+00
      3.534  0.6986E-01  0.1146E+00
      3.603  0.7756E-01  0.1199E+00
      3.671  0.8289E-01  0.1256E+00
      3.740  0.8592E-01  0.1315E+00
      3.809  0.8488E-01  0.1373E+00
      3.877  0.8287E-01  0.1430E+00
      3.946  0.8614E-01  0.1489E+00
      4.014  0.8973E-01  0.1550E+00
      4.083  0.8968E-01  0.1612E+00
      4.152  0.8921E-01  0.1673E+00
      4.220  0.9290E-01  0.1737E+00
      4.289  0.1019E+00  0.1807E+00
      4.357  0.1156E+00  0.1886E+00
      4.426  0.1288E+00  0.1974E+00
      4.494  0.1379E+00  0.2069E+00
      4.563  0.1376E+00  0.2163E+00
      4.632  0.1193E+00  0.2245E+00
      4.700  0.9762E-01  0.2312E+00
      4.769  0.8648E-01  0.2371E+00
      4.837  0.7874E-01  0.2425E+00
      4.906  0.7399E-01  0.2476E+00
      4.975  0.7148E-01  0.2525E+00
      5.043  0.6917E-01  0.2572E+00
      5.112  0.6948E-01  0.2620E+00
      5.180  0.7331E-01  0.2670E+00
      5.249  0.8097E-01  0.2726E+00
      5.318  0.8842E-01  0.2787E+00
      5.386  0.8915E-01  0.2848E+00
      5.455  0.8977E-01  0.2909E+00
      5.523  0.9389E-01  0.2974E+00
      5.592  0.9364E-01  0.3038E+00
      5.660  0.8614E-01  0.3097E+00
      5.729  0.8022E-01  0.3152E+00
      5.798  0.8080E-01  0.3207E+00
      5.866  0.7969E-01  0.3262E+00
      5.935  0.7374E-01  0.3313E+00
      6.003  0.6752E-01  0.3359E+00
      6.072  0.6751E-01  0.3405E+00
      6.141  0.7253E-01  0.3455E+00
      6.209  0.7574E-01  0.3507E+00
      6.278  0.7351E-01  0.3557E+00
      6.346  0.7606E-01  0.3610E+00
      6.415  0.8496E-01  0.3668E+00
      6.484  0.9003E-01  0.3730E+00
      6.552  0.1002E+00  0.3798E+00
      6.621  0.1215E+00  0.3882E+00
      6.689  0.1292E+00  0.3970E+00
      6.758  0.1112E+00  0.4047E+00
      6.826  0.8474E-01  0.4105E+00
      6.895  0.6004E-01  0.4146E+00
      6.964  0.4479E-01  0.4177E+00
      7.032  0.3669E-01  0.4202E+00
      7.101  0.2686E-01  0.4220E+00
      7.169  0.1432E-01  0.4230E+00
      7.238  0.6992E-02  0.4235E+00
      7.307  0.6510E-02  0.4239E+00
      7.375  0.9442E-02  0.4246E+00
      7.444  0.1414E-01  0.4255E+00
      7.512  0.1607E-01  0.4266E+00
      7.581  0.1310E-01  0.4275E+00
      7.650  0.9258E-02  0.4282E+00
      7.718  0.8259E-02  0.4287E+00
      7.787  0.1056E-01  0.4295E+00
      7.855  0.1384E-01  0.4304E+00
      7.924  0.1428E-01  0.4314E+00
      7.993  0.1236E-01  0.4322E+00
      8.061  0.1066E-01  0.4330E+00
      8.130  0.9862E-02  0.4337E+00
      8.198  0.1008E-01  0.4343E+00
      8.267  0.1137E-01  0.4351E+00
      8.335  0.1369E-01  0.4361E+00
      8.404  0.1416E-01  0.4370E+00
      8.473  0.1267E-01  0.4379E+00
      8.541  0.1134E-01  0.4387E+00
      8.610  0.9535E-02  0.4393E+00
      8.678  0.8046E-02  0.4399E+00
      8.747  0.9156E-02  0.4405E+00
      8.816  0.1285E-01  0.4414E+00
      8.884  0.1533E-01  0.4424E+00
      8.953  0.1537E-01  0.4435E+00
      9.021  0.1456E-01  0.4445E+00
      9.090  0.1132E-01  0.4453E+00
      9.159  0.7164E-02  0.4458E+00
      9.227  0.7127E-02  0.4463E+00
      9.296  0.9827E-02  0.4469E+00
      9.364  0.1184E-01  0.4477E+00
      9.433  0.1331E-01  0.4487E+00
      9.501  0.1324E-01  0.4496E+00
      9.570  0.1268E-01  0.4504E+00
      9.639  0.1242E-01  0.4513E+00
      9.707  0.1093E-01  0.4520E+00
      9.776  0.1030E-01  0.4527E+00
      9.844  0.1118E-01  0.4535E+00
      9.913  0.1201E-01  0.4543E+00
      9.982  0.1153E-01  0.4551E+00
     10.050  0.1003E-01  0.4558E+00
     10.119  0.1039E-01  0.4565E+00
     10.187  0.1201E-01  0.4573E+00
     10.256  0.1197E-01  0.4582E+00
     10.325  0.1122E-01  0.4589E+00
     10.393  0.1037E-01  0.4597E+00
     10.462  0.9602E-02  0.4603E+00
     10.530  0.9805E-02  0.4610E+00
     10.599  0.1199E-01  0.4618E+00
     10.667  0.1365E-01  0.4627E+00
     10.736  0.1163E-01  0.4635E+00
     10.805  0.9237E-02  0.4642E+00
     10.873  0.9107E-02  0.4648E+00
     10.942  0.8910E-02  0.4654E+00
     11.010  0.9250E-02  0.4660E+00
     11.079  0.1112E-01  0.4668E+00
     11.148  0.1207E-01  0.4676E+00
     11.216  0.1092E-01  0.4684E+00
     11.285  0.8707E-02  0.4690E+00
     11.353  0.8053E-02  0.4695E+00
     11.422  0.1188E-01  0.4703E+00
     11.491  0.1958E-01  0.4717E+00
     11.559  0.2306E-01  0.4733E+00
     11.628  0.1933E-01  0.4746E+00
     11.696  0.1461E-01  0.4756E+00
     11.765  0.1300E-01  0.4765E+00
     11.834  0.1397E-01  0.4775E+00
     11.902  0.1511E-01  0.4785E+00
     11.971  0.1494E-01  0.4795E+00
     12.039  0.1471E-01  0.4805E+00
     12.108  0.1459E-01  0.4815E+00
     12.176  0.1292E-01  0.4824E+00
     12.245  0.9671E-02  0.4831E+00
     12.314  0.7207E-02  0.4836E+00
     12.382  0.9556E-02  0.4842E+00
     12.451  0.1378E-01  0.4852E+00
     12.519  0.1305E-01  0.4861E+00
     12.588  0.1075E-01  0.4868E+00
     12.657  0.1109E-01  0.4876E+00
     12.725  0.1114E-01  0.4883E+00
     12.794  0.9311E-02  0.4890E+00
     12.862  0.8145E-02  0.4895E+00
     12.931  0.8748E-02  0.4901E+00
     13.000  0.1028E-01  0.4908E+00
     13.068  0.1220E-01  0.4917E+00
     13.137  0.1381E-01  0.4926E+00
     13.205  0.1396E-01  0.4936E+00
     13.274  0.1329E-01  0.4945E+00
     13.342  0.1162E-01  0.4953E+00
     13.411  0.1037E-01  0.4960E+00
     13.480  0.1264E-01  0.4969E+00
     13.548  0.1608E-01  0.4980E+00
     13.617  0.1745E-01  0.4992E+00
     13.685  0.1447E-01  0.5001E+00
     13.754  0.1040E-01  0.5009E+00
     13.823  0.1011E-01  0.5016E+00
     13.891  0.1288E-01  0.5024E+00
     13.960  0.1582E-01  0.5035E+00
     14.028  0.1689E-01  0.5047E+00
     14.097  0.1655E-01  0.5058E+00
     14.166  0.1623E-01  0.5069E+00
     14.234  0.1736E-01  0.5081E+00
     14.303  0.1643E-01  0.5092E+00
     14.371  0.1363E-01  0.5102E+00
     14.440  0.1110E-01  0.5109E+00
     14.508  0.8806E-02  0.5115E+00
     14.577  0.8127E-02  0.5121E+00
     14.646  0.1000E-01  0.5128E+00
     14.714  0.1318E-01  0.5137E+00
     14.783  0.1472E-01  0.5147E+00
     14.851  0.1162E-01  0.5155E+00
     14.920  0.8492E-02  0.5161E+00
     14.989  0.8077E-02  0.5166E+00
     15.057  0.8349E-02  0.5172E+00
     15.126  0.9429E-02  0.5179E+00
     15.194  0.1217E-01  0.5187E+00
     15.263  0.1389E-01  0.5196E+00
     15.332  0.1271E-01  0.5205E+00
     15.400  0.1100E-01  0.5213E+00
     15.469  0.9737E-02  0.5219E+00
     15.537  0.9951E-02  0.5226E+00
     15.606  0.1166E-01  0.5234E+00
     15.674  0.1389E-01  0.5244E+00
     15.743  0.1446E-01  0.5254E+00
     15.812  0.1061E-01  0.5261E+00
     15.880  0.7360E-02  0.5266E+00
     15.949  0.8800E-02  0.5272E+00
     16.017  0.1074E-01  0.5279E+00
     16.086  0.9761E-02  0.5286E+00
     16.155  0.8189E-02  0.5292E+00
     16.223  0.9322E-02  0.5298E+00
     16.292  0.1415E-01  0.5308E+00
     16.360  0.1786E-01  0.5320E+00
     16.429  0.1471E-01  0.5330E+00
     16.498  0.9653E-02  0.5337E+00
     16.566  0.8637E-02  0.5343E+00
     16.635  0.8524E-02  0.5348E+00
     16.703  0.7035E-02  0.5353E+00
     16.772  0.6114E-02  0.5357E+00
     16.841  0.6973E-02  0.5362E+00
     16.909  0.9391E-02  0.5369E+00
     16.978  0.1002E-01  0.5376E+00
     17.046  0.6627E-02  0.5380E+00
     17.115  0.2831E-02  0.5382E+00
     17.183  0.1399E-02  0.5383E+00
     17.252  0.1931E-02  0.5384E+00
     17.321  0.2659E-02  0.5386E+00
     17.389  0.2921E-02  0.5388E+00
     17.458  0.3218E-02  0.5390E+00
     17.526  0.3202E-02  0.5393E+00
     17.595  0.2702E-02  0.5394E+00
     17.664  0.2166E-02  0.5396E+00
     17.732  0.1508E-02  0.5397E+00
     17.801  0.1245E-02  0.5398E+00
     17.869  0.1541E-02  0.5399E+00
     17.938  0.1161E-02  0.5400E+00
     18.007  0.3999E-03  0.5400E+00
     18.075  0.6188E-04  0.5400E+00
     18.144  0.4328E-05  0.5400E+00
     18.212  0.1362E-06  0.5400E+00
     18.281  0.1894E-08  0.5400E+00
     18.349  0.1133E-10  0.5400E+00
     18.418  0.2837E-13  0.5400E+00
     18.487  0.2914E-16  0.5400E+00
     18.555  0.0000E+00  0.5400E+00
     18.624  0.0000E+00  0.5400E+00
     18.692  0.0000E+00  0.5400E+00
     18.761  0.0000E+00  0.5400E+00
     18.830  0.0000E+00  0.5400E+00
     18.898  0.0000E+00  0.5400E+00
