   4   4   0   0
  0.1761948E+02  0.4130643E-09  0.4130643E-09  0.4130643E-09  0.2000000E-15
  1.000000000000000E-004
  CAR 
 unknown system                          
     19.31241793     -1.57982439  301      8.96697543      1.00000000
     -1.580  0.0000E+00  0.0000E+00
     -1.510  0.0000E+00  0.0000E+00
     -1.441  0.0000E+00  0.0000E+00
     -1.371  0.0000E+00  0.0000E+00
     -1.301  0.0000E+00  0.0000E+00
     -1.232  0.0000E+00  0.0000E+00
     -1.162  0.9447E-20  0.6579E-21
     -1.092  0.1840E-16  0.1282E-17
     -1.023  0.1681E-13  0.1172E-14
     -0.953  0.6070E-11  0.4239E-12
     -0.883  0.8891E-09  0.6234E-10
     -0.814  0.5487E-07  0.3884E-08
     -0.744  0.1505E-05  0.1087E-06
     -0.674  0.1949E-04  0.1466E-05
     -0.605  0.1261E-03  0.1025E-04
     -0.535  0.4293E-03  0.4015E-04
     -0.466  0.8386E-03  0.9855E-04
     -0.396  0.1201E-02  0.1822E-03
     -0.326  0.1638E-02  0.2963E-03
     -0.257  0.1842E-02  0.4246E-03
     -0.187  0.1839E-02  0.5527E-03
     -0.117  0.2284E-02  0.7117E-03
     -0.048  0.2657E-02  0.8968E-03
      0.022  0.2691E-02  0.1084E-02
      0.092  0.2849E-02  0.1283E-02
      0.161  0.2767E-02  0.1475E-02
      0.231  0.2971E-02  0.1682E-02
      0.300  0.3752E-02  0.1943E-02
      0.370  0.4076E-02  0.2227E-02
      0.440  0.3958E-02  0.2503E-02
      0.509  0.3347E-02  0.2736E-02
      0.579  0.3421E-02  0.2974E-02
      0.649  0.4699E-02  0.3301E-02
      0.718  0.5351E-02  0.3674E-02
      0.788  0.5093E-02  0.4029E-02
      0.858  0.4693E-02  0.4356E-02
      0.927  0.4876E-02  0.4695E-02
      0.997  0.5520E-02  0.5080E-02
      1.067  0.5718E-02  0.5478E-02
      1.136  0.5741E-02  0.5878E-02
      1.206  0.6188E-02  0.6309E-02
      1.275  0.7464E-02  0.6828E-02
      1.345  0.7910E-02  0.7379E-02
      1.415  0.7274E-02  0.7886E-02
      1.484  0.6936E-02  0.8369E-02
      1.554  0.7272E-02  0.8875E-02
      1.624  0.9467E-02  0.9535E-02
      1.693  0.1197E-01  0.1037E-01
      1.763  0.1181E-01  0.1119E-01
      1.833  0.1172E-01  0.1201E-01
      1.902  0.1658E-01  0.1316E-01
      1.972  0.2294E-01  0.1476E-01
      2.041  0.2667E-01  0.1662E-01
      2.111  0.2786E-01  0.1856E-01
      2.181  0.2858E-01  0.2055E-01
      2.250  0.3364E-01  0.2289E-01
      2.320  0.4118E-01  0.2576E-01
      2.390  0.4675E-01  0.2901E-01
      2.459  0.5193E-01  0.3263E-01
      2.529  0.5897E-01  0.3674E-01
      2.599  0.6752E-01  0.4144E-01
      2.668  0.7411E-01  0.4660E-01
      2.738  0.7755E-01  0.5200E-01
      2.808  0.7741E-01  0.5739E-01
      2.877  0.7651E-01  0.6272E-01
      2.947  0.7486E-01  0.6793E-01
      3.016  0.6975E-01  0.7279E-01
      3.086  0.6882E-01  0.7758E-01
      3.156  0.6927E-01  0.8241E-01
      3.225  0.6553E-01  0.8697E-01
      3.295  0.6296E-01  0.9135E-01
      3.365  0.5769E-01  0.9537E-01
      3.434  0.5101E-01  0.9892E-01
      3.504  0.5244E-01  0.1026E+00
      3.574  0.5726E-01  0.1066E+00
      3.643  0.6284E-01  0.1109E+00
      3.713  0.6993E-01  0.1158E+00
      3.783  0.7696E-01  0.1212E+00
      3.852  0.8118E-01  0.1268E+00
      3.922  0.8355E-01  0.1326E+00
      3.991  0.8157E-01  0.1383E+00
      4.061  0.8029E-01  0.1439E+00
      4.131  0.8437E-01  0.1498E+00
      4.200  0.8748E-01  0.1559E+00
      4.270  0.8701E-01  0.1619E+00
      4.340  0.8661E-01  0.1680E+00
      4.409  0.9070E-01  0.1743E+00
      4.479  0.1001E+00  0.1813E+00
      4.549  0.1133E+00  0.1892E+00
      4.618  0.1253E+00  0.1979E+00
      4.688  0.1340E+00  0.2072E+00
      4.757  0.1342E+00  0.2166E+00
      4.827  0.1162E+00  0.2246E+00
      4.897  0.9493E-01  0.2313E+00
      4.966  0.8440E-01  0.2371E+00
      5.036  0.7657E-01  0.2425E+00
      5.106  0.7168E-01  0.2475E+00
      5.175  0.6947E-01  0.2523E+00
      5.245  0.6723E-01  0.2570E+00
      5.315  0.6720E-01  0.2617E+00
      5.384  0.7033E-01  0.2666E+00
      5.454  0.7732E-01  0.2719E+00
      5.524  0.8530E-01  0.2779E+00
      5.593  0.8614E-01  0.2839E+00
      5.663  0.8601E-01  0.2899E+00
      5.732  0.9076E-01  0.2962E+00
      5.802  0.9207E-01  0.3026E+00
      5.872  0.8517E-01  0.3085E+00
      5.941  0.7795E-01  0.3140E+00
      6.011  0.7802E-01  0.3194E+00
      6.081  0.7820E-01  0.3248E+00
      6.150  0.7314E-01  0.3299E+00
      6.220  0.6608E-01  0.3345E+00
      6.290  0.6420E-01  0.3390E+00
      6.359  0.6882E-01  0.3438E+00
      6.429  0.7352E-01  0.3489E+00
      6.499  0.7206E-01  0.3539E+00
      6.568  0.7046E-01  0.3588E+00
      6.638  0.7869E-01  0.3643E+00
      6.707  0.8542E-01  0.3703E+00
      6.777  0.9035E-01  0.3766E+00
      6.847  0.1077E+00  0.3841E+00
      6.916  0.1260E+00  0.3928E+00
      6.986  0.1187E+00  0.4011E+00
      7.056  0.9520E-01  0.4077E+00
      7.125  0.7008E-01  0.4126E+00
      7.195  0.5038E-01  0.4161E+00
      7.265  0.4147E-01  0.4190E+00
      7.334  0.3339E-01  0.4213E+00
      7.404  0.1989E-01  0.4227E+00
      7.473  0.8831E-02  0.4233E+00
      7.543  0.5950E-02  0.4237E+00
      7.613  0.7467E-02  0.4243E+00
      7.682  0.1186E-01  0.4251E+00
      7.752  0.1607E-01  0.4262E+00
      7.822  0.1514E-01  0.4273E+00
      7.891  0.1063E-01  0.4280E+00
      7.961  0.8005E-02  0.4286E+00
      8.031  0.9142E-02  0.4292E+00
      8.100  0.1222E-01  0.4301E+00
      8.170  0.1389E-01  0.4310E+00
      8.240  0.1322E-01  0.4319E+00
      8.309  0.1205E-01  0.4328E+00
      8.379  0.1068E-01  0.4335E+00
      8.448  0.9720E-02  0.4342E+00
      8.518  0.9777E-02  0.4349E+00
      8.588  0.1175E-01  0.4357E+00
      8.657  0.1387E-01  0.4367E+00
      8.727  0.1363E-01  0.4376E+00
      8.797  0.1232E-01  0.4385E+00
      8.866  0.1011E-01  0.4392E+00
      8.936  0.8207E-02  0.4397E+00
      9.006  0.8570E-02  0.4403E+00
      9.075  0.1158E-01  0.4412E+00
      9.145  0.1452E-01  0.4422E+00
      9.215  0.1516E-01  0.4432E+00
      9.284  0.1479E-01  0.4442E+00
      9.354  0.1223E-01  0.4451E+00
      9.423  0.7621E-02  0.4456E+00
      9.493  0.6422E-02  0.4461E+00
      9.563  0.9141E-02  0.4467E+00
      9.632  0.1173E-01  0.4475E+00
      9.702  0.1299E-01  0.4484E+00
      9.772  0.1298E-01  0.4493E+00
      9.841  0.1301E-01  0.4502E+00
      9.911  0.1276E-01  0.4511E+00
      9.981  0.1075E-01  0.4519E+00
     10.050  0.1024E-01  0.4526E+00
     10.120  0.1111E-01  0.4534E+00
     10.189  0.1135E-01  0.4542E+00
     10.259  0.1124E-01  0.4549E+00
     10.329  0.1014E-01  0.4557E+00
     10.398  0.9959E-02  0.4563E+00
     10.468  0.1191E-01  0.4572E+00
     10.538  0.1235E-01  0.4580E+00
     10.607  0.1116E-01  0.4588E+00
     10.677  0.1007E-01  0.4595E+00
     10.747  0.9409E-02  0.4602E+00
     10.816  0.9534E-02  0.4608E+00
     10.886  0.1129E-01  0.4616E+00
     10.956  0.1346E-01  0.4626E+00
     11.025  0.1224E-01  0.4634E+00
     11.095  0.9495E-02  0.4641E+00
     11.164  0.9071E-02  0.4647E+00
     11.234  0.8412E-02  0.4653E+00
     11.304  0.8111E-02  0.4659E+00
     11.373  0.1037E-01  0.4666E+00
     11.443  0.1232E-01  0.4674E+00
     11.513  0.1147E-01  0.4682E+00
     11.582  0.9020E-02  0.4689E+00
     11.652  0.7608E-02  0.4694E+00
     11.722  0.8711E-02  0.4700E+00
     11.791  0.1413E-01  0.4710E+00
     11.861  0.2125E-01  0.4725E+00
     11.930  0.2257E-01  0.4740E+00
     12.000  0.1788E-01  0.4753E+00
     12.070  0.1339E-01  0.4762E+00
     12.139  0.1211E-01  0.4771E+00
     12.209  0.1392E-01  0.4780E+00
     12.279  0.1577E-01  0.4791E+00
     12.348  0.1548E-01  0.4802E+00
     12.418  0.1477E-01  0.4812E+00
     12.488  0.1371E-01  0.4822E+00
     12.557  0.1096E-01  0.4829E+00
     12.627  0.7369E-02  0.4835E+00
     12.697  0.8344E-02  0.4840E+00
     12.766  0.1269E-01  0.4849E+00
     12.836  0.1309E-01  0.4858E+00
     12.905  0.1080E-01  0.4866E+00
     12.975  0.1149E-01  0.4874E+00
     13.045  0.1227E-01  0.4882E+00
     13.114  0.9954E-02  0.4889E+00
     13.184  0.8162E-02  0.4895E+00
     13.254  0.8205E-02  0.4901E+00
     13.323  0.9370E-02  0.4907E+00
     13.393  0.1168E-01  0.4915E+00
     13.463  0.1384E-01  0.4925E+00
     13.532  0.1415E-01  0.4935E+00
     13.602  0.1312E-01  0.4944E+00
     13.672  0.1120E-01  0.4952E+00
     13.741  0.1056E-01  0.4959E+00
     13.811  0.1289E-01  0.4968E+00
     13.880  0.1550E-01  0.4979E+00
     13.950  0.1721E-01  0.4991E+00
     14.020  0.1464E-01  0.5001E+00
     14.089  0.1005E-01  0.5008E+00
     14.159  0.9206E-02  0.5015E+00
     14.229  0.1240E-01  0.5023E+00
     14.298  0.1565E-01  0.5034E+00
     14.368  0.1624E-01  0.5045E+00
     14.438  0.1624E-01  0.5057E+00
     14.507  0.1684E-01  0.5068E+00
     14.577  0.1747E-01  0.5081E+00
     14.646  0.1582E-01  0.5092E+00
     14.716  0.1357E-01  0.5101E+00
     14.786  0.1121E-01  0.5109E+00
     14.855  0.8824E-02  0.5115E+00
     14.925  0.8330E-02  0.5121E+00
     14.995  0.1028E-01  0.5128E+00
     15.064  0.1333E-01  0.5137E+00
     15.134  0.1458E-01  0.5147E+00
     15.204  0.1109E-01  0.5155E+00
     15.273  0.8030E-02  0.5161E+00
     15.343  0.7798E-02  0.5166E+00
     15.413  0.8335E-02  0.5172E+00
     15.482  0.9779E-02  0.5179E+00
     15.552  0.1218E-01  0.5187E+00
     15.621  0.1343E-01  0.5197E+00
     15.691  0.1235E-01  0.5205E+00
     15.761  0.1073E-01  0.5213E+00
     15.830  0.9110E-02  0.5219E+00
     15.900  0.9523E-02  0.5226E+00
     15.970  0.1187E-01  0.5234E+00
     16.039  0.1451E-01  0.5244E+00
     16.109  0.1476E-01  0.5254E+00
     16.179  0.1024E-01  0.5261E+00
     16.248  0.7120E-02  0.5266E+00
     16.318  0.8986E-02  0.5273E+00
     16.388  0.1088E-01  0.5280E+00
     16.457  0.9665E-02  0.5287E+00
     16.527  0.7982E-02  0.5293E+00
     16.596  0.9434E-02  0.5299E+00
     16.666  0.1452E-01  0.5309E+00
     16.736  0.1741E-01  0.5321E+00
     16.805  0.1366E-01  0.5331E+00
     16.875  0.9231E-02  0.5337E+00
     16.945  0.8849E-02  0.5343E+00
     17.014  0.8462E-02  0.5349E+00
     17.084  0.6804E-02  0.5354E+00
     17.154  0.6090E-02  0.5358E+00
     17.223  0.7227E-02  0.5363E+00
     17.293  0.9626E-02  0.5370E+00
     17.362  0.9378E-02  0.5377E+00
     17.432  0.5592E-02  0.5380E+00
     17.502  0.2381E-02  0.5382E+00
     17.571  0.1528E-02  0.5383E+00
     17.641  0.2159E-02  0.5385E+00
     17.711  0.2637E-02  0.5387E+00
     17.780  0.2892E-02  0.5389E+00
     17.850  0.3277E-02  0.5391E+00
     17.920  0.3152E-02  0.5393E+00
     17.989  0.2569E-02  0.5395E+00
     18.059  0.2026E-02  0.5396E+00
     18.129  0.1353E-02  0.5397E+00
     18.198  0.1254E-02  0.5398E+00
     18.268  0.1496E-02  0.5399E+00
     18.337  0.9771E-03  0.5400E+00
     18.407  0.3079E-03  0.5400E+00
     18.477  0.4963E-04  0.5400E+00
     18.546  0.4127E-05  0.5400E+00
     18.616  0.1639E-06  0.5400E+00
     18.686  0.2829E-08  0.5400E+00
     18.755  0.1999E-10  0.5400E+00
     18.825  0.5601E-13  0.5400E+00
     18.895  0.6118E-16  0.5400E+00
     18.964  0.1889E-19  0.5400E+00
     19.034  0.0000E+00  0.5400E+00
     19.103  0.0000E+00  0.5400E+00
     19.173  0.0000E+00  0.5400E+00
     19.243  0.0000E+00  0.5400E+00
     19.312  0.0000E+00  0.5400E+00
