   8   8   0   0
  0.5628850E+01  0.3549781E-09  0.3549781E-09  0.3573605E-09  0.5000000E-15
  1.000000000000000E-004
  CAR 
 unknown system                          
     24.66523493    -12.15373483  301     11.29534654      1.00000000
    -12.154  0.0000E+00  0.0000E+00
    -12.031  0.0000E+00  0.0000E+00
    -11.908  0.0000E+00  0.0000E+00
    -11.786  0.0000E+00  0.0000E+00
    -11.663  0.0000E+00  0.0000E+00
    -11.540  0.0000E+00  0.0000E+00
    -11.417  0.0000E+00  0.0000E+00
    -11.295  0.0000E+00  0.0000E+00
    -11.172  0.0000E+00  0.0000E+00
    -11.049  0.0000E+00  0.0000E+00
    -10.926  0.0000E+00  0.0000E+00
    -10.804  0.0000E+00  0.0000E+00
    -10.681  0.3193E-11  0.3919E-12
    -10.558  0.6456E-05  0.7923E-06
    -10.436  0.5316E-03  0.6603E-04
    -10.313  0.1717E-02  0.2768E-03
    -10.190  0.2171E-02  0.5433E-03
    -10.067  0.3250E-02  0.9421E-03
     -9.945  0.2316E-02  0.1226E-02
     -9.822  0.4371E-02  0.1763E-02
     -9.699  0.3456E-02  0.2187E-02
     -9.576  0.3950E-02  0.2672E-02
     -9.454  0.4964E-02  0.3281E-02
     -9.331  0.4877E-02  0.3880E-02
     -9.208  0.5376E-02  0.4539E-02
     -9.085  0.3834E-02  0.5010E-02
     -8.963  0.6628E-02  0.5823E-02
     -8.840  0.6523E-02  0.6624E-02
     -8.717  0.5148E-02  0.7256E-02
     -8.595  0.5032E-02  0.7873E-02
     -8.472  0.7195E-02  0.8756E-02
     -8.349  0.8133E-02  0.9754E-02
     -8.226  0.5699E-02  0.1045E-01
     -8.104  0.7493E-02  0.1137E-01
     -7.981  0.6262E-02  0.1214E-01
     -7.858  0.8495E-02  0.1318E-01
     -7.735  0.5685E-02  0.1388E-01
     -7.613  0.9146E-02  0.1500E-01
     -7.490  0.1056E-01  0.1630E-01
     -7.367  0.5516E-02  0.1698E-01
     -7.245  0.8064E-02  0.1797E-01
     -7.122  0.7093E-02  0.1884E-01
     -6.999  0.1234E-01  0.2035E-01
     -6.876  0.8445E-02  0.2139E-01
     -6.754  0.9473E-02  0.2255E-01
     -6.631  0.7408E-02  0.2346E-01
     -6.508  0.1050E-01  0.2475E-01
     -6.385  0.8987E-02  0.2585E-01
     -6.263  0.1037E-01  0.2712E-01
     -6.140  0.1004E-01  0.2836E-01
     -6.017  0.1053E-01  0.2965E-01
     -5.895  0.1134E-01  0.3104E-01
     -5.772  0.1024E-01  0.3230E-01
     -5.649  0.1414E-01  0.3403E-01
     -5.526  0.6109E-02  0.3478E-01
     -5.404  0.9542E-02  0.3595E-01
     -5.281  0.1622E-01  0.3795E-01
     -5.158  0.1364E-01  0.3962E-01
     -5.035  0.1103E-01  0.4097E-01
     -4.913  0.1449E-01  0.4275E-01
     -4.790  0.1088E-01  0.4409E-01
     -4.667  0.1375E-01  0.4577E-01
     -4.544  0.1590E-01  0.4772E-01
     -4.422  0.1542E-01  0.4962E-01
     -4.299  0.1494E-01  0.5145E-01
     -4.176  0.1348E-01  0.5310E-01
     -4.054  0.1229E-01  0.5461E-01
     -3.931  0.1984E-01  0.5705E-01
     -3.808  0.1095E-01  0.5839E-01
     -3.685  0.1124E-01  0.5977E-01
     -3.563  0.1021E-01  0.6102E-01
     -3.440  0.9252E-02  0.6216E-01
     -3.317  0.1520E-01  0.6403E-01
     -3.194  0.1692E-01  0.6610E-01
     -3.072  0.5750E-02  0.6681E-01
     -2.949  0.9811E-02  0.6801E-01
     -2.826  0.1227E-01  0.6952E-01
     -2.704  0.1104E-01  0.7087E-01
     -2.581  0.1035E-01  0.7214E-01
     -2.458  0.5445E-02  0.7281E-01
     -2.335  0.7770E-02  0.7377E-01
     -2.213  0.9571E-02  0.7494E-01
     -2.090  0.1217E-01  0.7643E-01
     -1.967  0.1327E-01  0.7806E-01
     -1.844  0.1493E-01  0.7989E-01
     -1.722  0.1243E-01  0.8142E-01
     -1.599  0.6396E-02  0.8220E-01
     -1.476  0.8444E-02  0.8324E-01
     -1.354  0.1153E-01  0.8466E-01
     -1.231  0.8275E-02  0.8567E-01
     -1.108  0.8492E-02  0.8671E-01
     -0.985  0.1823E-01  0.8895E-01
     -0.863  0.1533E-01  0.9083E-01
     -0.740  0.1786E-01  0.9303E-01
     -0.617  0.2352E-01  0.9591E-01
     -0.494  0.2239E-01  0.9866E-01
     -0.372  0.2126E-01  0.1013E+00
     -0.249  0.1414E-01  0.1030E+00
     -0.126  0.2010E-01  0.1055E+00
     -0.003  0.2220E-01  0.1082E+00
      0.119  0.2462E-01  0.1112E+00
      0.242  0.1735E-01  0.1133E+00
      0.365  0.1564E-01  0.1153E+00
      0.487  0.7807E-02  0.1162E+00
      0.610  0.1051E-01  0.1175E+00
      0.733  0.1546E-01  0.1194E+00
      0.856  0.8506E-02  0.1205E+00
      0.978  0.1361E-01  0.1221E+00
      1.101  0.1212E-01  0.1236E+00
      1.224  0.1562E-01  0.1255E+00
      1.347  0.1024E-01  0.1268E+00
      1.469  0.8179E-02  0.1278E+00
      1.592  0.1297E-01  0.1294E+00
      1.715  0.1348E-01  0.1310E+00
      1.837  0.1052E-01  0.1323E+00
      1.960  0.1288E-01  0.1339E+00
      2.083  0.1805E-01  0.1361E+00
      2.206  0.2012E-01  0.1386E+00
      2.328  0.2023E-01  0.1411E+00
      2.451  0.2319E-01  0.1439E+00
      2.574  0.2047E-01  0.1464E+00
      2.697  0.2319E-01  0.1493E+00
      2.819  0.1906E-01  0.1516E+00
      2.942  0.1701E-01  0.1537E+00
      3.065  0.1263E-01  0.1553E+00
      3.188  0.2221E-01  0.1580E+00
      3.310  0.2801E-01  0.1614E+00
      3.433  0.2977E-01  0.1651E+00
      3.556  0.1162E-01  0.1665E+00
      3.678  0.1818E-01  0.1687E+00
      3.801  0.2245E-01  0.1715E+00
      3.924  0.2289E-01  0.1743E+00
      4.047  0.2752E-01  0.1777E+00
      4.169  0.2488E-01  0.1807E+00
      4.292  0.2208E-01  0.1834E+00
      4.415  0.1823E-01  0.1857E+00
      4.538  0.2948E-01  0.1893E+00
      4.660  0.3302E-01  0.1933E+00
      4.783  0.3363E-01  0.1975E+00
      4.906  0.2923E-01  0.2011E+00
      5.028  0.2730E-01  0.2044E+00
      5.151  0.2755E-01  0.2078E+00
      5.274  0.2757E-01  0.2112E+00
      5.397  0.4167E-01  0.2163E+00
      5.519  0.3995E-01  0.2212E+00
      5.642  0.2079E-01  0.2237E+00
      5.765  0.1809E-01  0.2260E+00
      5.888  0.3267E-01  0.2300E+00
      6.010  0.3088E-01  0.2338E+00
      6.133  0.3974E-01  0.2386E+00
      6.256  0.2328E-01  0.2415E+00
      6.378  0.2400E-01  0.2444E+00
      6.501  0.3112E-01  0.2483E+00
      6.624  0.2651E-01  0.2515E+00
      6.747  0.2551E-01  0.2546E+00
      6.869  0.3219E-01  0.2586E+00
      6.992  0.2539E-01  0.2617E+00
      7.115  0.2223E-01  0.2644E+00
      7.238  0.2915E-01  0.2680E+00
      7.360  0.3403E-01  0.2722E+00
      7.483  0.2187E-01  0.2749E+00
      7.606  0.2118E-01  0.2775E+00
      7.729  0.2664E-01  0.2808E+00
      7.851  0.2050E-01  0.2833E+00
      7.974  0.3703E-01  0.2878E+00
      8.097  0.2743E-01  0.2912E+00
      8.219  0.1543E-01  0.2931E+00
      8.342  0.1556E-01  0.2950E+00
      8.465  0.2558E-01  0.2981E+00
      8.588  0.2056E-01  0.3006E+00
      8.710  0.1894E-01  0.3030E+00
      8.833  0.1161E-01  0.3044E+00
      8.956  0.7334E-02  0.3053E+00
      9.079  0.1324E-01  0.3069E+00
      9.201  0.1688E-01  0.3090E+00
      9.324  0.1224E-01  0.3105E+00
      9.447  0.8217E-02  0.3115E+00
      9.569  0.6943E-02  0.3124E+00
      9.692  0.6438E-02  0.3131E+00
      9.815  0.1178E-01  0.3146E+00
      9.938  0.8278E-02  0.3156E+00
     10.060  0.5078E-02  0.3162E+00
     10.183  0.5530E-02  0.3169E+00
     10.306  0.4731E-02  0.3175E+00
     10.429  0.6407E-02  0.3183E+00
     10.551  0.3333E-02  0.3187E+00
     10.674  0.4591E-02  0.3192E+00
     10.797  0.2185E-02  0.3195E+00
     10.919  0.2414E-02  0.3198E+00
     11.042  0.1351E-02  0.3200E+00
     11.165  0.1842E-03  0.3200E+00
     11.288  0.3083E-07  0.3200E+00
     11.410  0.6920E-16  0.3200E+00
     11.533  0.0000E+00  0.3200E+00
     11.656  0.0000E+00  0.3200E+00
     11.779  0.0000E+00  0.3200E+00
     11.901  0.0000E+00  0.3200E+00
     12.024  0.0000E+00  0.3200E+00
     12.147  0.0000E+00  0.3200E+00
     12.270  0.0000E+00  0.3200E+00
     12.392  0.0000E+00  0.3200E+00
     12.515  0.0000E+00  0.3200E+00
     12.638  0.0000E+00  0.3200E+00
     12.760  0.0000E+00  0.3200E+00
     12.883  0.0000E+00  0.3200E+00
     13.006  0.0000E+00  0.3200E+00
     13.129  0.0000E+00  0.3200E+00
     13.251  0.0000E+00  0.3200E+00
     13.374  0.0000E+00  0.3200E+00
     13.497  0.0000E+00  0.3200E+00
     13.620  0.0000E+00  0.3200E+00
     13.742  0.0000E+00  0.3200E+00
     13.865  0.0000E+00  0.3200E+00
     13.988  0.0000E+00  0.3200E+00
     14.110  0.0000E+00  0.3200E+00
     14.233  0.0000E+00  0.3200E+00
     14.356  0.0000E+00  0.3200E+00
     14.479  0.0000E+00  0.3200E+00
     14.601  0.0000E+00  0.3200E+00
     14.724  0.0000E+00  0.3200E+00
     14.847  0.0000E+00  0.3200E+00
     14.970  0.5275E-19  0.3200E+00
     15.092  0.5864E-09  0.3200E+00
     15.215  0.1092E-03  0.3200E+00
     15.338  0.2557E-02  0.3203E+00
     15.460  0.2482E-02  0.3206E+00
     15.583  0.2582E-02  0.3209E+00
     15.706  0.6749E-02  0.3218E+00
     15.829  0.6766E-02  0.3226E+00
     15.951  0.1036E-01  0.3239E+00
     16.074  0.8285E-02  0.3249E+00
     16.197  0.5995E-02  0.3256E+00
     16.320  0.1118E-01  0.3270E+00
     16.442  0.1536E-01  0.3289E+00
     16.565  0.1705E-01  0.3310E+00
     16.688  0.1678E-01  0.3330E+00
     16.811  0.1650E-01  0.3351E+00
     16.933  0.1410E-01  0.3368E+00
     17.056  0.1641E-01  0.3388E+00
     17.179  0.1657E-01  0.3408E+00
     17.301  0.1764E-01  0.3430E+00
     17.424  0.2954E-01  0.3466E+00
     17.547  0.2211E-01  0.3493E+00
     17.670  0.1984E-01  0.3518E+00
     17.792  0.1677E-01  0.3538E+00
     17.915  0.2180E-01  0.3565E+00
     18.038  0.2830E-01  0.3600E+00
     18.161  0.2508E-01  0.3631E+00
     18.283  0.2247E-01  0.3658E+00
     18.406  0.1958E-01  0.3682E+00
     18.529  0.2878E-01  0.3718E+00
     18.651  0.3014E-01  0.3755E+00
     18.774  0.3332E-01  0.3795E+00
     18.897  0.4049E-01  0.3845E+00
     19.020  0.3231E-01  0.3885E+00
     19.142  0.3230E-01  0.3924E+00
     19.265  0.3144E-01  0.3963E+00
     19.388  0.3819E-01  0.4010E+00
     19.511  0.3862E-01  0.4057E+00
     19.633  0.3532E-01  0.4101E+00
     19.756  0.4572E-01  0.4157E+00
     19.879  0.5090E-01  0.4219E+00
     20.001  0.3949E-01  0.4268E+00
     20.124  0.2948E-01  0.4304E+00
     20.247  0.3250E-01  0.4344E+00
     20.370  0.2702E-01  0.4377E+00
     20.492  0.2588E-01  0.4409E+00
     20.615  0.2198E-01  0.4436E+00
     20.738  0.2727E-01  0.4469E+00
     20.861  0.3473E-01  0.4512E+00
     20.983  0.3618E-01  0.4556E+00
     21.106  0.2907E-01  0.4592E+00
     21.229  0.2419E-01  0.4622E+00
     21.352  0.2153E-01  0.4648E+00
     21.474  0.2349E-01  0.4677E+00
     21.597  0.1562E-01  0.4696E+00
     21.720  0.1300E-01  0.4712E+00
     21.842  0.1702E-01  0.4733E+00
     21.965  0.1557E-01  0.4752E+00
     22.088  0.1312E-01  0.4768E+00
     22.211  0.1077E-01  0.4781E+00
     22.333  0.6263E-02  0.4789E+00
     22.456  0.4746E-02  0.4795E+00
     22.579  0.1399E-02  0.4796E+00
     22.702  0.1682E-04  0.4797E+00
     22.824  0.2617E-04  0.4797E+00
     22.947  0.1146E-02  0.4798E+00
     23.070  0.1661E-02  0.4800E+00
     23.192  0.1741E-04  0.4800E+00
     23.315  0.7008E-11  0.4800E+00
     23.438  0.0000E+00  0.4800E+00
     23.561  0.0000E+00  0.4800E+00
     23.683  0.0000E+00  0.4800E+00
     23.806  0.0000E+00  0.4800E+00
     23.929  0.0000E+00  0.4800E+00
     24.052  0.0000E+00  0.4800E+00
     24.174  0.0000E+00  0.4800E+00
     24.297  0.0000E+00  0.4800E+00
     24.420  0.0000E+00  0.4800E+00
     24.543  0.0000E+00  0.4800E+00
     24.665  0.0000E+00  0.4800E+00
