Automatically generated mesh
     196
Reciprocal lattice
    0.03571428571429    0.03571428571429    0.03571428571429             8
    0.10714285714286    0.03571428571429    0.03571428571429            16
    0.17857142857143    0.03571428571429    0.03571428571429            16
    0.25000000000000    0.03571428571429    0.03571428571429            16
    0.32142857142857    0.03571428571429    0.03571428571429            16
    0.39285714285714    0.03571428571429    0.03571428571429            16
    0.46428571428571    0.03571428571429    0.03571428571429            16
    0.10714285714286    0.10714285714286    0.03571428571429             8
    0.17857142857143    0.10714285714286    0.03571428571429            16
    0.25000000000000    0.10714285714286    0.03571428571429            16
    0.32142857142857    0.10714285714286    0.03571428571429            16
    0.39285714285714    0.10714285714286    0.03571428571429            16
    0.46428571428571    0.10714285714286    0.03571428571429            16
    0.17857142857143    0.17857142857143    0.03571428571429             8
    0.25000000000000    0.17857142857143    0.03571428571429            16
    0.32142857142857    0.17857142857143    0.03571428571429            16
    0.39285714285714    0.17857142857143    0.03571428571429            16
    0.46428571428571    0.17857142857143    0.03571428571429            16
    0.25000000000000    0.25000000000000    0.03571428571429             8
    0.32142857142857    0.25000000000000    0.03571428571429            16
    0.39285714285714    0.25000000000000    0.03571428571429            16
    0.46428571428571    0.25000000000000    0.03571428571429            16
    0.32142857142857    0.32142857142857    0.03571428571429             8
    0.39285714285714    0.32142857142857    0.03571428571429            16
    0.46428571428571    0.32142857142857    0.03571428571429            16
    0.39285714285714    0.39285714285714    0.03571428571429             8
    0.46428571428571    0.39285714285714    0.03571428571429            16
    0.46428571428571    0.46428571428571    0.03571428571429             8
    0.03571428571429    0.03571428571429    0.10714285714286             8
    0.10714285714286    0.03571428571429    0.10714285714286            16
    0.17857142857143    0.03571428571429    0.10714285714286            16
    0.25000000000000    0.03571428571429    0.10714285714286            16
    0.32142857142857    0.03571428571429    0.10714285714286            16
    0.39285714285714    0.03571428571429    0.10714285714286            16
    0.46428571428571    0.03571428571429    0.10714285714286            16
    0.10714285714286    0.10714285714286    0.10714285714286             8
    0.17857142857143    0.10714285714286    0.10714285714286            16
    0.25000000000000    0.10714285714286    0.10714285714286            16
    0.32142857142857    0.10714285714286    0.10714285714286            16
    0.39285714285714    0.10714285714286    0.10714285714286            16
    0.46428571428571    0.10714285714286    0.10714285714286            16
    0.17857142857143    0.17857142857143    0.10714285714286             8
    0.25000000000000    0.17857142857143    0.10714285714286            16
    0.32142857142857    0.17857142857143    0.10714285714286            16
    0.39285714285714    0.17857142857143    0.10714285714286            16
    0.46428571428571    0.17857142857143    0.10714285714286            16
    0.25000000000000    0.25000000000000    0.10714285714286             8
    0.32142857142857    0.25000000000000    0.10714285714286            16
    0.39285714285714    0.25000000000000    0.10714285714286            16
    0.46428571428571    0.25000000000000    0.10714285714286            16
    0.32142857142857    0.32142857142857    0.10714285714286             8
    0.39285714285714    0.32142857142857    0.10714285714286            16
    0.46428571428571    0.32142857142857    0.10714285714286            16
    0.39285714285714    0.39285714285714    0.10714285714286             8
    0.46428571428571    0.39285714285714    0.10714285714286            16
    0.46428571428571    0.46428571428571    0.10714285714286             8
    0.03571428571429    0.03571428571429    0.17857142857143             8
    0.10714285714286    0.03571428571429    0.17857142857143            16
    0.17857142857143    0.03571428571429    0.17857142857143            16
    0.25000000000000    0.03571428571429    0.17857142857143            16
    0.32142857142857    0.03571428571429    0.17857142857143            16
    0.39285714285714    0.03571428571429    0.17857142857143            16
    0.46428571428571    0.03571428571429    0.17857142857143            16
    0.10714285714286    0.10714285714286    0.17857142857143             8
    0.17857142857143    0.10714285714286    0.17857142857143            16
    0.25000000000000    0.10714285714286    0.17857142857143            16
    0.32142857142857    0.10714285714286    0.17857142857143            16
    0.39285714285714    0.10714285714286    0.17857142857143            16
    0.46428571428571    0.10714285714286    0.17857142857143            16
    0.17857142857143    0.17857142857143    0.17857142857143             8
    0.25000000000000    0.17857142857143    0.17857142857143            16
    0.32142857142857    0.17857142857143    0.17857142857143            16
    0.39285714285714    0.17857142857143    0.17857142857143            16
    0.46428571428571    0.17857142857143    0.17857142857143            16
    0.25000000000000    0.25000000000000    0.17857142857143             8
    0.32142857142857    0.25000000000000    0.17857142857143            16
    0.39285714285714    0.25000000000000    0.17857142857143            16
    0.46428571428571    0.25000000000000    0.17857142857143            16
    0.32142857142857    0.32142857142857    0.17857142857143             8
    0.39285714285714    0.32142857142857    0.17857142857143            16
    0.46428571428571    0.32142857142857    0.17857142857143            16
    0.39285714285714    0.39285714285714    0.17857142857143             8
    0.46428571428571    0.39285714285714    0.17857142857143            16
    0.46428571428571    0.46428571428571    0.17857142857143             8
    0.03571428571429    0.03571428571429    0.25000000000000             8
    0.10714285714286    0.03571428571429    0.25000000000000            16
    0.17857142857143    0.03571428571429    0.25000000000000            16
    0.25000000000000    0.03571428571429    0.25000000000000            16
    0.32142857142857    0.03571428571429    0.25000000000000            16
    0.39285714285714    0.03571428571429    0.25000000000000            16
    0.46428571428571    0.03571428571429    0.25000000000000            16
    0.10714285714286    0.10714285714286    0.25000000000000             8
    0.17857142857143    0.10714285714286    0.25000000000000            16
    0.25000000000000    0.10714285714286    0.25000000000000            16
    0.32142857142857    0.10714285714286    0.25000000000000            16
    0.39285714285714    0.10714285714286    0.25000000000000            16
    0.46428571428571    0.10714285714286    0.25000000000000            16
    0.17857142857143    0.17857142857143    0.25000000000000             8
    0.25000000000000    0.17857142857143    0.25000000000000            16
    0.32142857142857    0.17857142857143    0.25000000000000            16
    0.39285714285714    0.17857142857143    0.25000000000000            16
    0.46428571428571    0.17857142857143    0.25000000000000            16
    0.25000000000000    0.25000000000000    0.25000000000000             8
    0.32142857142857    0.25000000000000    0.25000000000000            16
    0.39285714285714    0.25000000000000    0.25000000000000            16
    0.46428571428571    0.25000000000000    0.25000000000000            16
    0.32142857142857    0.32142857142857    0.25000000000000             8
    0.39285714285714    0.32142857142857    0.25000000000000            16
    0.46428571428571    0.32142857142857    0.25000000000000            16
    0.39285714285714    0.39285714285714    0.25000000000000             8
    0.46428571428571    0.39285714285714    0.25000000000000            16
    0.46428571428571    0.46428571428571    0.25000000000000             8
    0.03571428571429    0.03571428571429    0.32142857142857             8
    0.10714285714286    0.03571428571429    0.32142857142857            16
    0.17857142857143    0.03571428571429    0.32142857142857            16
    0.25000000000000    0.03571428571429    0.32142857142857            16
    0.32142857142857    0.03571428571429    0.32142857142857            16
    0.39285714285714    0.03571428571429    0.32142857142857            16
    0.46428571428571    0.03571428571429    0.32142857142857            16
    0.10714285714286    0.10714285714286    0.32142857142857             8
    0.17857142857143    0.10714285714286    0.32142857142857            16
    0.25000000000000    0.10714285714286    0.32142857142857            16
    0.32142857142857    0.10714285714286    0.32142857142857            16
    0.39285714285714    0.10714285714286    0.32142857142857            16
    0.46428571428571    0.10714285714286    0.32142857142857            16
    0.17857142857143    0.17857142857143    0.32142857142857             8
    0.25000000000000    0.17857142857143    0.32142857142857            16
    0.32142857142857    0.17857142857143    0.32142857142857            16
    0.39285714285714    0.17857142857143    0.32142857142857            16
    0.46428571428571    0.17857142857143    0.32142857142857            16
    0.25000000000000    0.25000000000000    0.32142857142857             8
    0.32142857142857    0.25000000000000    0.32142857142857            16
    0.39285714285714    0.25000000000000    0.32142857142857            16
    0.46428571428571    0.25000000000000    0.32142857142857            16
    0.32142857142857    0.32142857142857    0.32142857142857             8
    0.39285714285714    0.32142857142857    0.32142857142857            16
    0.46428571428571    0.32142857142857    0.32142857142857            16
    0.39285714285714    0.39285714285714    0.32142857142857             8
    0.46428571428571    0.39285714285714    0.32142857142857            16
    0.46428571428571    0.46428571428571    0.32142857142857             8
    0.03571428571429    0.03571428571429    0.39285714285714             8
    0.10714285714286    0.03571428571429    0.39285714285714            16
    0.17857142857143    0.03571428571429    0.39285714285714            16
    0.25000000000000    0.03571428571429    0.39285714285714            16
    0.32142857142857    0.03571428571429    0.39285714285714            16
    0.39285714285714    0.03571428571429    0.39285714285714            16
    0.46428571428571    0.03571428571429    0.39285714285714            16
    0.10714285714286    0.10714285714286    0.39285714285714             8
    0.17857142857143    0.10714285714286    0.39285714285714            16
    0.25000000000000    0.10714285714286    0.39285714285714            16
    0.32142857142857    0.10714285714286    0.39285714285714            16
    0.39285714285714    0.10714285714286    0.39285714285714            16
    0.46428571428571    0.10714285714286    0.39285714285714            16
    0.17857142857143    0.17857142857143    0.39285714285714             8
    0.25000000000000    0.17857142857143    0.39285714285714            16
    0.32142857142857    0.17857142857143    0.39285714285714            16
    0.39285714285714    0.17857142857143    0.39285714285714            16
    0.46428571428571    0.17857142857143    0.39285714285714            16
    0.25000000000000    0.25000000000000    0.39285714285714             8
    0.32142857142857    0.25000000000000    0.39285714285714            16
    0.39285714285714    0.25000000000000    0.39285714285714            16
    0.46428571428571    0.25000000000000    0.39285714285714            16
    0.32142857142857    0.32142857142857    0.39285714285714             8
    0.39285714285714    0.32142857142857    0.39285714285714            16
    0.46428571428571    0.32142857142857    0.39285714285714            16
    0.39285714285714    0.39285714285714    0.39285714285714             8
    0.46428571428571    0.39285714285714    0.39285714285714            16
    0.46428571428571    0.46428571428571    0.39285714285714             8
    0.03571428571429    0.03571428571429    0.46428571428571             8
    0.10714285714286    0.03571428571429    0.46428571428571            16
    0.17857142857143    0.03571428571429    0.46428571428571            16
    0.25000000000000    0.03571428571429    0.46428571428571            16
    0.32142857142857    0.03571428571429    0.46428571428571            16
    0.39285714285714    0.03571428571429    0.46428571428571            16
    0.46428571428571    0.03571428571429    0.46428571428571            16
    0.10714285714286    0.10714285714286    0.46428571428571             8
    0.17857142857143    0.10714285714286    0.46428571428571            16
    0.25000000000000    0.10714285714286    0.46428571428571            16
    0.32142857142857    0.10714285714286    0.46428571428571            16
    0.39285714285714    0.10714285714286    0.46428571428571            16
    0.46428571428571    0.10714285714286    0.46428571428571            16
    0.17857142857143    0.17857142857143    0.46428571428571             8
    0.25000000000000    0.17857142857143    0.46428571428571            16
    0.32142857142857    0.17857142857143    0.46428571428571            16
    0.39285714285714    0.17857142857143    0.46428571428571            16
    0.46428571428571    0.17857142857143    0.46428571428571            16
    0.25000000000000    0.25000000000000    0.46428571428571             8
    0.32142857142857    0.25000000000000    0.46428571428571            16
    0.39285714285714    0.25000000000000    0.46428571428571            16
    0.46428571428571    0.25000000000000    0.46428571428571            16
    0.32142857142857    0.32142857142857    0.46428571428571             8
    0.39285714285714    0.32142857142857    0.46428571428571            16
    0.46428571428571    0.32142857142857    0.46428571428571            16
    0.39285714285714    0.39285714285714    0.46428571428571             8
    0.46428571428571    0.39285714285714    0.46428571428571            16
    0.46428571428571    0.46428571428571    0.46428571428571             8
