       N       E                     dE             d eps       ncg     rms          rms(c)
DAV:   1     0.101195907234E+03    0.10120E+03   -0.25986E+04  9408   0.199E+03
DAV:   2    -0.725815629786E+02   -0.17378E+03   -0.17087E+03 15072   0.226E+02
DAV:   3    -0.753542741003E+02   -0.27727E+01   -0.27727E+01 10968   0.404E+01
DAV:   4    -0.753722558260E+02   -0.17982E-01   -0.17982E-01 17400   0.253E+00
DAV:   5    -0.753722591359E+02   -0.33099E-05   -0.33095E-05 10920   0.370E-02    0.168E+01
DAV:   6    -0.734706607519E+02    0.19016E+01   -0.14297E+00 11016   0.640E+00    0.111E+01
DAV:   7    -0.728339064342E+02    0.63675E+00   -0.18537E+00 13608   0.736E+00    0.237E+00
DAV:   8    -0.728320486701E+02    0.18578E-02   -0.24878E-02 15264   0.120E+00    0.120E-01
DAV:   9    -0.728322191883E+02   -0.17052E-03   -0.45673E-04 13584   0.142E-01    0.614E-02
DAV:  10    -0.728323408288E+02   -0.12164E-03   -0.11322E-04 14832   0.848E-02    0.488E-03
DAV:  11    -0.728323420241E+02   -0.11952E-05   -0.17554E-06 14208   0.105E-02    0.298E-03
DAV:  12    -0.728323423733E+02   -0.34927E-06   -0.64612E-08 14832   0.233E-03    0.154E-04
DAV:  13    -0.728323423823E+02   -0.89985E-08   -0.11296E-10 14040   0.815E-05
   1 F= -.72832342E+02 E0= -.72832342E+02  d E =-.728323E+02
