<?xml version="1.0" encoding="ISO-8859-1"?>
<modeling>
 <generator>
  <i name="program" type="string">vasp </i>
  <i name="version" type="string">5.4.4.18Apr17-6-g9f103f2a35  </i>
  <i name="subversion" type="string">(build Jan 14 2019 14:48:31) complex            parallel </i>
  <i name="platform" type="string">LinuxIFC </i>
  <i name="date" type="string">2019 08 26 </i>
  <i name="time" type="string">21:11:35 </i>
 </generator>
 <incar>
  <i type="int" name="ISTART">     0</i>
  <i type="string" name="PREC">high     (precision level)</i>
  <i type="logical" name="ADDGRID"> T  </i>
  <i type="int" name="NELM">    40</i>
  <i type="int" name="NELMIN">     4</i>
  <i type="int" name="IBRION">     2</i>
  <i name="EDIFF">      0.00000001</i>
  <i name="EDIFFG">     -0.01000000</i>
  <i type="int" name="NSW">   100</i>
  <i type="int" name="ISIF">     2</i>
  <i type="logical" name="LREAL"> F  </i>
  <i type="int" name="ISMEAR">     0</i>
  <i name="SIGMA">      0.05000000</i>
  <i type="logical" name="LWAVE"> F  </i>
  <i type="logical" name="LCHARG"> F  </i>
  <v type="int" name="KPOINT_BSE">    -1     0     0     0</v>
  <i type="int" name="NELM">    40</i>
 </incar>
 <structure name="primitive_cell" >
  <crystal>
   <varray name="basis" >
    <v>       0.00000000      -1.77489052       1.78680254 </v>
    <v>       0.00000000       1.77489052       1.78680254 </v>
    <v>      -1.77489052       0.00000000      -1.78680254 </v>
   </varray>
   <i name="volume">     11.25770061 </i>
   <varray name="rec_basis" >
    <v>      -0.28170752      -0.28170752       0.27982947 </v>
    <v>      -0.28170752       0.28170752       0.27982947 </v>
    <v>      -0.56341503       0.00000000       0.00000000 </v>
   </varray>
  </crystal>
  <varray name="positions" >
   <v>      -0.25000000       0.25000000      -0.50000000 </v>
   <v>       0.00000000       0.00000000       0.00000000 </v>
  </varray>
 </structure>
 <varray name="primitive_index" >
  <v type="int" >        1 </v>
  <v type="int" >        2 </v>
 </varray>
 <kpoints>
  <generation param="Monkhorst-Pack">
   <v type="int" name="divisions">      14       14       14 </v>
   <v name="usershift">      0.00000000       0.00000000       0.00000000 </v>
   <v name="genvec1">      0.07142857       0.00000000       0.00000000 </v>
   <v name="genvec2">      0.00000000       0.07142857       0.00000000 </v>
   <v name="genvec3">      0.00000000       0.00000000       0.07142857 </v>
   <v name="shift">      0.50000000       0.50000000       0.50000000 </v>
  </generation>
  <varray name="kpointlist" >
   <v>       0.03571429       0.03571429       0.03571429 </v>
   <v>       0.10714286       0.03571429       0.03571429 </v>
   <v>       0.17857143       0.03571429       0.03571429 </v>
   <v>       0.25000000       0.03571429       0.03571429 </v>
   <v>       0.32142857       0.03571429       0.03571429 </v>
   <v>       0.39285714       0.03571429       0.03571429 </v>
   <v>       0.46428571       0.03571429       0.03571429 </v>
   <v>       0.10714286       0.10714286       0.03571429 </v>
   <v>       0.17857143       0.10714286       0.03571429 </v>
   <v>       0.25000000       0.10714286       0.03571429 </v>
   <v>       0.32142857       0.10714286       0.03571429 </v>
   <v>       0.39285714       0.10714286       0.03571429 </v>
   <v>       0.46428571       0.10714286       0.03571429 </v>
   <v>       0.17857143       0.17857143       0.03571429 </v>
   <v>       0.25000000       0.17857143       0.03571429 </v>
   <v>       0.32142857       0.17857143       0.03571429 </v>
   <v>       0.39285714       0.17857143       0.03571429 </v>
   <v>       0.46428571       0.17857143       0.03571429 </v>
   <v>       0.25000000       0.25000000       0.03571429 </v>
   <v>       0.32142857       0.25000000       0.03571429 </v>
   <v>       0.39285714       0.25000000       0.03571429 </v>
   <v>       0.46428571       0.25000000       0.03571429 </v>
   <v>       0.32142857       0.32142857       0.03571429 </v>
   <v>       0.39285714       0.32142857       0.03571429 </v>
   <v>       0.46428571       0.32142857       0.03571429 </v>
   <v>       0.39285714       0.39285714       0.03571429 </v>
   <v>       0.46428571       0.39285714       0.03571429 </v>
   <v>       0.46428571       0.46428571       0.03571429 </v>
   <v>       0.03571429       0.03571429       0.10714286 </v>
   <v>       0.10714286       0.03571429       0.10714286 </v>
   <v>       0.17857143       0.03571429       0.10714286 </v>
   <v>       0.25000000       0.03571429       0.10714286 </v>
   <v>       0.32142857       0.03571429       0.10714286 </v>
   <v>       0.39285714       0.03571429       0.10714286 </v>
   <v>       0.46428571       0.03571429       0.10714286 </v>
   <v>       0.10714286       0.10714286       0.10714286 </v>
   <v>       0.17857143       0.10714286       0.10714286 </v>
   <v>       0.25000000       0.10714286       0.10714286 </v>
   <v>       0.32142857       0.10714286       0.10714286 </v>
   <v>       0.39285714       0.10714286       0.10714286 </v>
   <v>       0.46428571       0.10714286       0.10714286 </v>
   <v>       0.17857143       0.17857143       0.10714286 </v>
   <v>       0.25000000       0.17857143       0.10714286 </v>
   <v>       0.32142857       0.17857143       0.10714286 </v>
   <v>       0.39285714       0.17857143       0.10714286 </v>
   <v>       0.46428571       0.17857143       0.10714286 </v>
   <v>       0.25000000       0.25000000       0.10714286 </v>
   <v>       0.32142857       0.25000000       0.10714286 </v>
   <v>       0.39285714       0.25000000       0.10714286 </v>
   <v>       0.46428571       0.25000000       0.10714286 </v>
   <v>       0.32142857       0.32142857       0.10714286 </v>
   <v>       0.39285714       0.32142857       0.10714286 </v>
   <v>       0.46428571       0.32142857       0.10714286 </v>
   <v>       0.39285714       0.39285714       0.10714286 </v>
   <v>       0.46428571       0.39285714       0.10714286 </v>
   <v>       0.46428571       0.46428571       0.10714286 </v>
   <v>       0.03571429       0.03571429       0.17857143 </v>
   <v>       0.10714286       0.03571429       0.17857143 </v>
   <v>       0.17857143       0.03571429       0.17857143 </v>
   <v>       0.25000000       0.03571429       0.17857143 </v>
   <v>       0.32142857       0.03571429       0.17857143 </v>
   <v>       0.39285714       0.03571429       0.17857143 </v>
   <v>       0.46428571       0.03571429       0.17857143 </v>
   <v>       0.10714286       0.10714286       0.17857143 </v>
   <v>       0.17857143       0.10714286       0.17857143 </v>
   <v>       0.25000000       0.10714286       0.17857143 </v>
   <v>       0.32142857       0.10714286       0.17857143 </v>
   <v>       0.39285714       0.10714286       0.17857143 </v>
   <v>       0.46428571       0.10714286       0.17857143 </v>
   <v>       0.17857143       0.17857143       0.17857143 </v>
   <v>       0.25000000       0.17857143       0.17857143 </v>
   <v>       0.32142857       0.17857143       0.17857143 </v>
   <v>       0.39285714       0.17857143       0.17857143 </v>
   <v>       0.46428571       0.17857143       0.17857143 </v>
   <v>       0.25000000       0.25000000       0.17857143 </v>
   <v>       0.32142857       0.25000000       0.17857143 </v>
   <v>       0.39285714       0.25000000       0.17857143 </v>
   <v>       0.46428571       0.25000000       0.17857143 </v>
   <v>       0.32142857       0.32142857       0.17857143 </v>
   <v>       0.39285714       0.32142857       0.17857143 </v>
   <v>       0.46428571       0.32142857       0.17857143 </v>
   <v>       0.39285714       0.39285714       0.17857143 </v>
   <v>       0.46428571       0.39285714       0.17857143 </v>
   <v>       0.46428571       0.46428571       0.17857143 </v>
   <v>       0.03571429       0.03571429       0.25000000 </v>
   <v>       0.10714286       0.03571429       0.25000000 </v>
   <v>       0.17857143       0.03571429       0.25000000 </v>
   <v>       0.25000000       0.03571429       0.25000000 </v>
   <v>       0.32142857       0.03571429       0.25000000 </v>
   <v>       0.39285714       0.03571429       0.25000000 </v>
   <v>       0.46428571       0.03571429       0.25000000 </v>
   <v>       0.10714286       0.10714286       0.25000000 </v>
   <v>       0.17857143       0.10714286       0.25000000 </v>
   <v>       0.25000000       0.10714286       0.25000000 </v>
   <v>       0.32142857       0.10714286       0.25000000 </v>
   <v>       0.39285714       0.10714286       0.25000000 </v>
   <v>       0.46428571       0.10714286       0.25000000 </v>
   <v>       0.17857143       0.17857143       0.25000000 </v>
   <v>       0.25000000       0.17857143       0.25000000 </v>
   <v>       0.32142857       0.17857143       0.25000000 </v>
   <v>       0.39285714       0.17857143       0.25000000 </v>
   <v>       0.46428571       0.17857143       0.25000000 </v>
   <v>       0.25000000       0.25000000       0.25000000 </v>
   <v>       0.32142857       0.25000000       0.25000000 </v>
   <v>       0.39285714       0.25000000       0.25000000 </v>
   <v>       0.46428571       0.25000000       0.25000000 </v>
   <v>       0.32142857       0.32142857       0.25000000 </v>
   <v>       0.39285714       0.32142857       0.25000000 </v>
   <v>       0.46428571       0.32142857       0.25000000 </v>
   <v>       0.39285714       0.39285714       0.25000000 </v>
   <v>       0.46428571       0.39285714       0.25000000 </v>
   <v>       0.46428571       0.46428571       0.25000000 </v>
   <v>       0.03571429       0.03571429       0.32142857 </v>
   <v>       0.10714286       0.03571429       0.32142857 </v>
   <v>       0.17857143       0.03571429       0.32142857 </v>
   <v>       0.25000000       0.03571429       0.32142857 </v>
   <v>       0.32142857       0.03571429       0.32142857 </v>
   <v>       0.39285714       0.03571429       0.32142857 </v>
   <v>       0.46428571       0.03571429       0.32142857 </v>
   <v>       0.10714286       0.10714286       0.32142857 </v>
   <v>       0.17857143       0.10714286       0.32142857 </v>
   <v>       0.25000000       0.10714286       0.32142857 </v>
   <v>       0.32142857       0.10714286       0.32142857 </v>
   <v>       0.39285714       0.10714286       0.32142857 </v>
   <v>       0.46428571       0.10714286       0.32142857 </v>
   <v>       0.17857143       0.17857143       0.32142857 </v>
   <v>       0.25000000       0.17857143       0.32142857 </v>
   <v>       0.32142857       0.17857143       0.32142857 </v>
   <v>       0.39285714       0.17857143       0.32142857 </v>
   <v>       0.46428571       0.17857143       0.32142857 </v>
   <v>       0.25000000       0.25000000       0.32142857 </v>
   <v>       0.32142857       0.25000000       0.32142857 </v>
   <v>       0.39285714       0.25000000       0.32142857 </v>
   <v>       0.46428571       0.25000000       0.32142857 </v>
   <v>       0.32142857       0.32142857       0.32142857 </v>
   <v>       0.39285714       0.32142857       0.32142857 </v>
   <v>       0.46428571       0.32142857       0.32142857 </v>
   <v>       0.39285714       0.39285714       0.32142857 </v>
   <v>       0.46428571       0.39285714       0.32142857 </v>
   <v>       0.46428571       0.46428571       0.32142857 </v>
   <v>       0.03571429       0.03571429       0.39285714 </v>
   <v>       0.10714286       0.03571429       0.39285714 </v>
   <v>       0.17857143       0.03571429       0.39285714 </v>
   <v>       0.25000000       0.03571429       0.39285714 </v>
   <v>       0.32142857       0.03571429       0.39285714 </v>
   <v>       0.39285714       0.03571429       0.39285714 </v>
   <v>       0.46428571       0.03571429       0.39285714 </v>
   <v>       0.10714286       0.10714286       0.39285714 </v>
   <v>       0.17857143       0.10714286       0.39285714 </v>
   <v>       0.25000000       0.10714286       0.39285714 </v>
   <v>       0.32142857       0.10714286       0.39285714 </v>
   <v>       0.39285714       0.10714286       0.39285714 </v>
   <v>       0.46428571       0.10714286       0.39285714 </v>
   <v>       0.17857143       0.17857143       0.39285714 </v>
   <v>       0.25000000       0.17857143       0.39285714 </v>
   <v>       0.32142857       0.17857143       0.39285714 </v>
   <v>       0.39285714       0.17857143       0.39285714 </v>
   <v>       0.46428571       0.17857143       0.39285714 </v>
   <v>       0.25000000       0.25000000       0.39285714 </v>
   <v>       0.32142857       0.25000000       0.39285714 </v>
   <v>       0.39285714       0.25000000       0.39285714 </v>
   <v>       0.46428571       0.25000000       0.39285714 </v>
   <v>       0.32142857       0.32142857       0.39285714 </v>
   <v>       0.39285714       0.32142857       0.39285714 </v>
   <v>       0.46428571       0.32142857       0.39285714 </v>
   <v>       0.39285714       0.39285714       0.39285714 </v>
   <v>       0.46428571       0.39285714       0.39285714 </v>
   <v>       0.46428571       0.46428571       0.39285714 </v>
   <v>       0.03571429       0.03571429       0.46428571 </v>
   <v>       0.10714286       0.03571429       0.46428571 </v>
   <v>       0.17857143       0.03571429       0.46428571 </v>
   <v>       0.25000000       0.03571429       0.46428571 </v>
   <v>       0.32142857       0.03571429       0.46428571 </v>
   <v>       0.39285714       0.03571429       0.46428571 </v>
   <v>       0.46428571       0.03571429       0.46428571 </v>
   <v>       0.10714286       0.10714286       0.46428571 </v>
   <v>       0.17857143       0.10714286       0.46428571 </v>
   <v>       0.25000000       0.10714286       0.46428571 </v>
   <v>       0.32142857       0.10714286       0.46428571 </v>
   <v>       0.39285714       0.10714286       0.46428571 </v>
   <v>       0.46428571       0.10714286       0.46428571 </v>
   <v>       0.17857143       0.17857143       0.46428571 </v>
   <v>       0.25000000       0.17857143       0.46428571 </v>
   <v>       0.32142857       0.17857143       0.46428571 </v>
   <v>       0.39285714       0.17857143       0.46428571 </v>
   <v>       0.46428571       0.17857143       0.46428571 </v>
   <v>       0.25000000       0.25000000       0.46428571 </v>
   <v>       0.32142857       0.25000000       0.46428571 </v>
   <v>       0.39285714       0.25000000       0.46428571 </v>
   <v>       0.46428571       0.25000000       0.46428571 </v>
   <v>       0.32142857       0.32142857       0.46428571 </v>
   <v>       0.39285714       0.32142857       0.46428571 </v>
   <v>       0.46428571       0.32142857       0.46428571 </v>
   <v>       0.39285714       0.39285714       0.46428571 </v>
   <v>       0.46428571       0.39285714       0.46428571 </v>
   <v>       0.46428571       0.46428571       0.46428571 </v>
  </varray>
  <varray name="weights" >
   <v>       0.00291545 </v>
   <v>       0.00583090 </v>
   <v>       0.00583090 </v>
   <v>       0.00583090 </v>
   <v>       0.00583090 </v>
   <v>       0.00583090 </v>
   <v>       0.00583090 </v>
   <v>       0.00291545 </v>
   <v>       0.00583090 </v>
   <v>       0.00583090 </v>
   <v>       0.00583090 </v>
   <v>       0.00583090 </v>
   <v>       0.00583090 </v>
   <v>       0.00291545 </v>
   <v>       0.00583090 </v>
   <v>       0.00583090 </v>
   <v>       0.00583090 </v>
   <v>       0.00583090 </v>
   <v>       0.00291545 </v>
   <v>       0.00583090 </v>
   <v>       0.00583090 </v>
   <v>       0.00583090 </v>
   <v>       0.00291545 </v>
   <v>       0.00583090 </v>
   <v>       0.00583090 </v>
   <v>       0.00291545 </v>
   <v>       0.00583090 </v>
   <v>       0.00291545 </v>
   <v>       0.00291545 </v>
   <v>       0.00583090 </v>
   <v>       0.00583090 </v>
   <v>       0.00583090 </v>
   <v>       0.00583090 </v>
   <v>       0.00583090 </v>
   <v>       0.00583090 </v>
   <v>       0.00291545 </v>
   <v>       0.00583090 </v>
   <v>       0.00583090 </v>
   <v>       0.00583090 </v>
   <v>       0.00583090 </v>
   <v>       0.00583090 </v>
   <v>       0.00291545 </v>
   <v>       0.00583090 </v>
   <v>       0.00583090 </v>
   <v>       0.00583090 </v>
   <v>       0.00583090 </v>
   <v>       0.00291545 </v>
   <v>       0.00583090 </v>
   <v>       0.00583090 </v>
   <v>       0.00583090 </v>
   <v>       0.00291545 </v>
   <v>       0.00583090 </v>
   <v>       0.00583090 </v>
   <v>       0.00291545 </v>
   <v>       0.00583090 </v>
   <v>       0.00291545 </v>
   <v>       0.00291545 </v>
   <v>       0.00583090 </v>
   <v>       0.00583090 </v>
   <v>       0.00583090 </v>
   <v>       0.00583090 </v>
   <v>       0.00583090 </v>
   <v>       0.00583090 </v>
   <v>       0.00291545 </v>
   <v>       0.00583090 </v>
   <v>       0.00583090 </v>
   <v>       0.00583090 </v>
   <v>       0.00583090 </v>
   <v>       0.00583090 </v>
   <v>       0.00291545 </v>
   <v>       0.00583090 </v>
   <v>       0.00583090 </v>
   <v>       0.00583090 </v>
   <v>       0.00583090 </v>
   <v>       0.00291545 </v>
   <v>       0.00583090 </v>
   <v>       0.00583090 </v>
   <v>       0.00583090 </v>
   <v>       0.00291545 </v>
   <v>       0.00583090 </v>
   <v>       0.00583090 </v>
   <v>       0.00291545 </v>
   <v>       0.00583090 </v>
   <v>       0.00291545 </v>
   <v>       0.00291545 </v>
   <v>       0.00583090 </v>
   <v>       0.00583090 </v>
   <v>       0.00583090 </v>
   <v>       0.00583090 </v>
   <v>       0.00583090 </v>
   <v>       0.00583090 </v>
   <v>       0.00291545 </v>
   <v>       0.00583090 </v>
   <v>       0.00583090 </v>
   <v>       0.00583090 </v>
   <v>       0.00583090 </v>
   <v>       0.00583090 </v>
   <v>       0.00291545 </v>
   <v>       0.00583090 </v>
   <v>       0.00583090 </v>
   <v>       0.00583090 </v>
   <v>       0.00583090 </v>
   <v>       0.00291545 </v>
   <v>       0.00583090 </v>
   <v>       0.00583090 </v>
   <v>       0.00583090 </v>
   <v>       0.00291545 </v>
   <v>       0.00583090 </v>
   <v>       0.00583090 </v>
   <v>       0.00291545 </v>
   <v>       0.00583090 </v>
   <v>       0.00291545 </v>
   <v>       0.00291545 </v>
   <v>       0.00583090 </v>
   <v>       0.00583090 </v>
   <v>       0.00583090 </v>
   <v>       0.00583090 </v>
   <v>       0.00583090 </v>
   <v>       0.00583090 </v>
   <v>       0.00291545 </v>
   <v>       0.00583090 </v>
   <v>       0.00583090 </v>
   <v>       0.00583090 </v>
   <v>       0.00583090 </v>
   <v>       0.00583090 </v>
   <v>       0.00291545 </v>
   <v>       0.00583090 </v>
   <v>       0.00583090 </v>
   <v>       0.00583090 </v>
   <v>       0.00583090 </v>
   <v>       0.00291545 </v>
   <v>       0.00583090 </v>
   <v>       0.00583090 </v>
   <v>       0.00583090 </v>
   <v>       0.00291545 </v>
   <v>       0.00583090 </v>
   <v>       0.00583090 </v>
   <v>       0.00291545 </v>
   <v>       0.00583090 </v>
   <v>       0.00291545 </v>
   <v>       0.00291545 </v>
   <v>       0.00583090 </v>
   <v>       0.00583090 </v>
   <v>       0.00583090 </v>
   <v>       0.00583090 </v>
   <v>       0.00583090 </v>
   <v>       0.00583090 </v>
   <v>       0.00291545 </v>
   <v>       0.00583090 </v>
   <v>       0.00583090 </v>
   <v>       0.00583090 </v>
   <v>       0.00583090 </v>
   <v>       0.00583090 </v>
   <v>       0.00291545 </v>
   <v>       0.00583090 </v>
   <v>       0.00583090 </v>
   <v>       0.00583090 </v>
   <v>       0.00583090 </v>
   <v>       0.00291545 </v>
   <v>       0.00583090 </v>
   <v>       0.00583090 </v>
   <v>       0.00583090 </v>
   <v>       0.00291545 </v>
   <v>       0.00583090 </v>
   <v>       0.00583090 </v>
   <v>       0.00291545 </v>
   <v>       0.00583090 </v>
   <v>       0.00291545 </v>
   <v>       0.00291545 </v>
   <v>       0.00583090 </v>
   <v>       0.00583090 </v>
   <v>       0.00583090 </v>
   <v>       0.00583090 </v>
   <v>       0.00583090 </v>
   <v>       0.00583090 </v>
   <v>       0.00291545 </v>
   <v>       0.00583090 </v>
   <v>       0.00583090 </v>
   <v>       0.00583090 </v>
   <v>       0.00583090 </v>
   <v>       0.00583090 </v>
   <v>       0.00291545 </v>
   <v>       0.00583090 </v>
   <v>       0.00583090 </v>
   <v>       0.00583090 </v>
   <v>       0.00583090 </v>
   <v>       0.00291545 </v>
   <v>       0.00583090 </v>
   <v>       0.00583090 </v>
   <v>       0.00583090 </v>
   <v>       0.00291545 </v>
   <v>       0.00583090 </v>
   <v>       0.00583090 </v>
   <v>       0.00291545 </v>
   <v>       0.00583090 </v>
   <v>       0.00291545 </v>
  </varray>
 </kpoints>
 <parameters>
  <separator name="general" >
   <i type="string" name="SYSTEM">unknown system</i>
   <i type="logical" name="LCOMPAT"> F  </i>
  </separator>
  <separator name="electronic" >
   <i type="string" name="PREC">high</i>
   <i name="ENMAX">    875.00000000</i>
   <i name="ENAUG">    946.76800000</i>
   <i name="EDIFF">      0.00000001</i>
   <i type="int" name="IALGO">    38</i>
   <i type="int" name="IWAVPR">    11</i>
   <i type="int" name="NBANDS">    24</i>
   <i name="NELECT">     32.00000000</i>
   <i type="int" name="TURBO">     0</i>
   <i type="int" name="IRESTART">     0</i>
   <i type="int" name="NREBOOT">     0</i>
   <i type="int" name="NMIN">     0</i>
   <i name="EREF">      0.00000000</i>
   <separator name="electronic smearing" >
    <i type="int" name="ISMEAR">     0</i>
    <i name="SIGMA">      0.05000000</i>
    <i name="KSPACING">      0.50000000</i>
    <i type="logical" name="KGAMMA"> T  </i>
   </separator>
   <separator name="electronic projectors" >
    <i type="logical" name="LREAL"> F  </i>
    <v name="ROPT">      0.00000000</v>
    <i type="int" name="LMAXPAW">  -100</i>
    <i type="int" name="LMAXMIX">     2</i>
    <i type="logical" name="NLSPLINE"> F  </i>
   </separator>
   <separator name="electronic startup" >
    <i type="int" name="ISTART">     0</i>
    <i type="int" name="ICHARG">     2</i>
    <i type="int" name="INIWAV">     1</i>
   </separator>
   <separator name="electronic spin" >
    <i type="int" name="ISPIN">     1</i>
    <i type="logical" name="LNONCOLLINEAR"> F  </i>
    <v name="MAGMOM">      1.00000000      1.00000000      1.00000000      1.00000000      1.00000000      1.00000000      1.00000000      1.00000000</v>
    <i name="NUPDOWN">     -1.00000000</i>
    <i type="logical" name="LSORBIT"> F  </i>
    <v name="SAXIS">      0.00000000      0.00000000      1.00000000</v>
    <i type="logical" name="LSPIRAL"> F  </i>
    <v name="QSPIRAL">      0.00000000      0.00000000      0.00000000</v>
    <i type="logical" name="LZEROZ"> F  </i>
   </separator>
   <separator name="electronic exchange-correlation" >
    <i type="logical" name="LASPH"> F  </i>
    <i type="logical" name="LMETAGGA"> F  </i>
   </separator>
   <separator name="electronic convergence" >
    <i type="int" name="NELM">    40</i>
    <i type="int" name="NELMDL">    -5</i>
    <i type="int" name="NELMIN">     4</i>
    <i name="ENINI">    875.00000000</i>
    <separator name="electronic convergence detail" >
     <i type="logical" name="LDIAG"> T  </i>
     <i type="logical" name="LSUBROT"> F  </i>
     <i name="WEIMIN">      0.00100000</i>
     <i name="EBREAK">      0.00000000</i>
     <i name="DEPER">      0.30000000</i>
     <i type="int" name="NRMM">     4</i>
     <i name="TIME">      0.40000000</i>
    </separator>
   </separator>
   <separator name="electronic mixer" >
    <i name="AMIX">      0.40000000</i>
    <i name="BMIX">      1.00000000</i>
    <i name="AMIN">      0.10000000</i>
    <i name="AMIX_MAG">      1.60000000</i>
    <i name="BMIX_MAG">      1.00000000</i>
    <separator name="electronic mixer details" >
     <i type="int" name="IMIX">     4</i>
     <i type="logical" name="MIXFIRST"> F  </i>
     <i type="int" name="MAXMIX">   -45</i>
     <i name="WC">    100.00000000</i>
     <i type="int" name="INIMIX">     1</i>
     <i type="int" name="MIXPRE">     1</i>
     <i type="int" name="MREMOVE">     5</i>
    </separator>
   </separator>
   <separator name="electronic dipolcorrection" >
    <i type="logical" name="LDIPOL"> F  </i>
    <i type="logical" name="LMONO"> F  </i>
    <i type="int" name="IDIPOL">     0</i>
    <i name="EPSILON">      1.00000000</i>
    <v name="DIPOL">   -100.00000000   -100.00000000   -100.00000000</v>
    <i name="EFIELD">      0.00000000</i>
   </separator>
  </separator>
  <separator name="grids" >
   <i type="int" name="NGX">    36</i>
   <i type="int" name="NGY">    36</i>
   <i type="int" name="NGZ">    36</i>
   <i type="int" name="NGXF">    48</i>
   <i type="int" name="NGYF">    48</i>
   <i type="int" name="NGZF">    48</i>
   <i type="logical" name="ADDGRID"> T  </i>
  </separator>
  <separator name="ionic" >
   <i type="int" name="NSW">   100</i>
   <i type="int" name="IBRION">     2</i>
   <i type="int" name="MDALGO">     0</i>
   <i type="int" name="ISIF">     2</i>
   <i name="PSTRESS">      0.00000000</i>
   <i name="EDIFFG">     -0.01000000</i>
   <i type="int" name="NFREE">     1</i>
   <i name="POTIM">      0.50000000</i>
   <i name="SMASS">     -3.00000000</i>
   <i name="SCALEE">      1.00000000</i>
  </separator>
  <separator name="ionic md" >
   <i name="TEBEG">      0.00010000</i>
   <i name="TEEND">      0.00010000</i>
   <i type="int" name="NBLOCK">     1</i>
   <i type="int" name="KBLOCK">   100</i>
   <i type="int" name="NPACO">   256</i>
   <i name="APACO">     16.00000000</i>
  </separator>
  <separator name="symmetry" >
   <i type="int" name="ISYM">     2</i>
   <i name="SYMPREC">      0.00001000</i>
  </separator>
  <separator name="dos" >
   <i type="int" name="LORBIT">     0</i>
   <v name="RWIGS">     -1.00000000</v>
   <i type="int" name="NEDOS">   301</i>
   <i name="EMIN">     10.00000000</i>
   <i name="EMAX">    -10.00000000</i>
   <i name="EFERMI">      0.00000000</i>
  </separator>
  <separator name="writing" >
   <i type="int" name="NWRITE">     2</i>
   <i type="logical" name="LWAVE"> F  </i>
   <i type="logical" name="LDOWNSAMPLE"> F  </i>
   <i type="logical" name="LCHARG"> F  </i>
   <i type="logical" name="LPARD"> F  </i>
   <i type="logical" name="LVTOT"> F  </i>
   <i type="logical" name="LVHAR"> F  </i>
   <i type="logical" name="LELF"> F  </i>
   <i type="logical" name="LOPTICS"> F  </i>
   <v name="STM">      0.00000000      0.00000000      0.00000000      0.00000000      0.00000000      0.00000000      0.00000000</v>
  </separator>
  <separator name="performance" >
   <i type="int" name="NPAR">    24</i>
   <i type="int" name="NSIM">     4</i>
   <i type="int" name="NBLK">    -1</i>
   <i type="logical" name="LPLANE"> T  </i>
   <i type="logical" name="LSCALAPACK"> T  </i>
   <i type="logical" name="LSCAAWARE"> F  </i>
   <i type="logical" name="LSCALU"> F  </i>
   <i type="logical" name="LASYNC"> F  </i>
   <i type="logical" name="LORBITALREAL"> F  </i>
  </separator>
  <separator name="miscellaneous" >
   <i type="int" name="IDIOT">     3</i>
   <i type="int" name="ISPECIAL">     0</i>
   <i type="logical" name="LMUSIC"> F  </i>
   <v name="POMASS">     12.01100000</v>
   <v name="DARWINR">      0.00000000</v>
   <v name="DARWINV">      1.00000000</v>
   <i type="logical" name="LCORR"> T  </i>
  </separator>
  <i type="logical" name="GGA_COMPAT"> T  </i>
  <i type="logical" name="LBERRY"> F  </i>
  <i type="int" name="ICORELEVEL">     0</i>
  <i type="logical" name="LDAU"> F  </i>
  <i type="int" name="I_CONSTRAINED_M">     0</i>
  <separator name="electronic exchange-correlation" >
   <i type="string" name="GGA">--</i>
   <i type="int" name="VOSKOWN">     0</i>
   <i type="logical" name="LHFCALC"> F  </i>
   <i type="string" name="PRECFOCK"></i>
   <i type="logical" name="LSYMGRAD"> F  </i>
   <i type="logical" name="LHFONE"> F  </i>
   <i type="logical" name="LRHFCALC"> F  </i>
   <i type="logical" name="LTHOMAS"> F  </i>
   <i type="logical" name="LMODELHF"> F  </i>
   <i name="ENCUT4O">     -1.00000000</i>
   <i type="int" name="EXXOEP">     0</i>
   <i type="int" name="FOURORBIT">     0</i>
   <i name="AEXX">      0.00000000</i>
   <i name="HFALPHA">      0.00000000</i>
   <i name="MCALPHA">      0.00000000</i>
   <i name="ALDAX">      1.00000000</i>
   <i name="AGGAX">      1.00000000</i>
   <i name="ALDAC">      1.00000000</i>
   <i name="AGGAC">      1.00000000</i>
   <i type="int" name="NKREDX">     1</i>
   <i type="int" name="NKREDY">     1</i>
   <i type="int" name="NKREDZ">     1</i>
   <i type="logical" name="SHIFTRED"> F  </i>
   <i type="logical" name="ODDONLY"> F  </i>
   <i type="logical" name="EVENONLY"> F  </i>
   <i type="int" name="LMAXFOCK">     0</i>
   <i type="int" name="NMAXFOCKAE">     0</i>
   <i type="logical" name="LFOCKAEDFT"> F  </i>
   <i name="HFSCREEN">      0.00000000</i>
   <i name="HFSCREENC">      0.00000000</i>
   <i type="int" name="NBANDSGWLOW">     0</i>
  </separator>
  <separator name="vdW DFT" >
   <i type="logical" name="LUSE_VDW"> F  </i>
   <i name="Zab_VDW">     -0.84910000</i>
   <i name="PARAM1">      0.12340000</i>
   <i name="PARAM2">      1.00000000</i>
   <i name="PARAM3">      0.00000000</i>
  </separator>
  <separator name="model GW" >
   <i type="int" name="MODEL_GW">     0</i>
   <i name="MODEL_EPS0">      3.37731018</i>
   <i name="MODEL_ALPHA">      1.00000000</i>
  </separator>
  <separator name="linear response parameters" >
   <i type="logical" name="LEPSILON"> F  </i>
   <i type="logical" name="LRPA"> F  </i>
   <i type="logical" name="LNABLA"> F  </i>
   <i type="logical" name="LVEL"> F  </i>
   <i type="int" name="KINTER">     0</i>
   <i name="CSHIFT">      0.10000000</i>
   <i name="OMEGAMAX">     -1.00000000</i>
   <i name="DEG_THRESHOLD">      0.00200000</i>
   <i name="RTIME">     -0.10000000</i>
   <i name="WPLASMAI">      0.00000000</i>
   <v name="DFIELD">      0.00000000      0.00000000      0.00000000</v>
   <v name="WPLASMA">      0.00000000      0.00000000      0.00000000      0.00000000      0.00000000      0.00000000      0.00000000      0.00000000      0.00000000</v>
  </separator>
  <separator name="orbital magnetization" >
   <i type="logical" name="NUCIND"> F  </i>
   <v name="MAGPOS">      0.00000000      0.00000000      0.00000000</v>
   <i type="logical" name="LNICSALL"> T  </i>
   <i type="logical" name="ORBITALMAG"> F  </i>
   <i type="logical" name="LMAGBLOCH"> F  </i>
   <i type="logical" name="LCHIMAG"> F  </i>
   <i type="logical" name="LGAUGE"> T  </i>
   <i type="int" name="MAGATOM">     0</i>
   <v name="MAGDIPOL">      0.00000000      0.00000000      0.00000000</v>
   <v name="AVECCONST">      0.00000000      0.00000000      0.00000000</v>
  </separator>
  <separator name="response functions" >
   <i type="logical" name="LADDER"> F  </i>
   <i type="logical" name="LRPAFORCE"> F  </i>
   <i type="logical" name="LFXC"> F  </i>
   <i type="logical" name="LHARTREE"> T  </i>
   <i type="int" name="IBSE">     0</i>
   <v type="int" name="KPOINT">    -1     0     0     0</v>
   <i type="logical" name="LTCTE"> F  </i>
   <i type="logical" name="LTETE"> F  </i>
   <i type="logical" name="LTRIPLET"> F  </i>
   <i type="logical" name="LFXCEPS"> F  </i>
   <i type="logical" name="LFXHEG"> F  </i>
   <i type="int" name="NATURALO">     2</i>
   <i type="logical" name="L2ORDER"> F  </i>
   <i type="logical" name="LMP2LT"> F  </i>
   <i type="logical" name="LUSEW"> F  </i>
   <i name="ENCUTGW">     -2.00000000</i>
   <i name="ENCUTGWSOFT">     -2.00000000</i>
   <i name="ENCUTLF">     -1.00000000</i>
   <i type="int" name="LMAXMP2">    -1</i>
   <i name="SCISSOR">      0.00000000</i>
   <i type="int" name="NOMEGA">     0</i>
   <i type="int" name="NOMEGAR">     0</i>
   <i type="int" name="NBANDSGW">    -1</i>
   <i type="int" name="NBANDSO">    -1</i>
   <i type="int" name="NBANDSV">    -1</i>
   <i type="int" name="NELM">    40</i>
   <i type="int" name="NELMHF">     1</i>
   <i type="int" name="DIM">     3</i>
   <i type="int" name="ANTIRES">     0</i>
   <i name="OMEGAMAX">    -30.00000000</i>
   <i name="OMEGAMIN">    -30.00000000</i>
   <i name="OMEGATL">   -200.00000000</i>
   <i type="int" name="OMEGAGRID">   140</i>
   <i name="CSHIFT">     -0.10000000</i>
   <i type="logical" name="SELFENERGY"> F  </i>
   <i type="logical" name="LSPECTRAL"> F  </i>
   <i type="logical" name="LSPECTRALGW"> F  </i>
   <i type="logical" name="LSINGLES"> F  </i>
   <i type="logical" name="LFERMIGW"> F  </i>
   <i type="logical" name="ODDONLYGW"> F  </i>
   <i type="logical" name="EVENONLYGW"> F  </i>
   <i type="int" name="NKREDLFX">     1</i>
   <i type="int" name="NKREDLFY">     1</i>
   <i type="int" name="NKREDLFZ">     1</i>
   <i type="int" name="MAXMEM">  2800</i>
   <i type="int" name="TELESCOPE">     0</i>
   <i type="int" name="TAUPAR">     1</i>
   <i type="int" name="OMEGAPAR">    -1</i>
   <i name="LAMBDA">      1.00000000</i>
  </separator>
  <separator name="External order field" >
   <i name="OFIELD_KAPPA">      0.00000000</i>
   <v name="OFIELD_K">      0.00000000      0.00000000      0.00000000</v>
   <i name="OFIELD_Q6_NEAR">      0.00000000</i>
   <i name="OFIELD_Q6_FAR">      0.00000000</i>
   <i name="OFIELD_A">      0.00000000</i>
  </separator>
 </parameters>
 <atominfo>
  <atoms>       8 </atoms>
  <types>       1 </types>
  <array name="atoms" >
   <dimension dim="1">ion</dimension>
   <field type="string">element</field>
   <field type="int">atomtype</field>
   <set>
    <rc><c>C </c><c>   1</c></rc>
    <rc><c>C </c><c>   1</c></rc>
    <rc><c>C </c><c>   1</c></rc>
    <rc><c>C </c><c>   1</c></rc>
    <rc><c>C </c><c>   1</c></rc>
    <rc><c>C </c><c>   1</c></rc>
    <rc><c>C </c><c>   1</c></rc>
    <rc><c>C </c><c>   1</c></rc>
   </set>
  </array>
  <array name="atomtypes" >
   <dimension dim="1">type</dimension>
   <field type="int">atomspertype</field>
   <field type="string">element</field>
   <field>mass</field>
   <field>valence</field>
   <field type="string">pseudopotential</field>
   <set>
    <rc><c>   8</c><c>C </c><c>     12.01100000</c><c>      4.00000000</c><c>  PAW_PBE C_h 06Feb2004                 </c></rc>
   </set>
  </array>
 </atominfo>
 <structure name="initialpos" >
  <crystal>
   <varray name="basis" >
    <v>       3.54978104       0.00000000       0.00000000 </v>
    <v>       0.00000000       3.54978104       0.00000000 </v>
    <v>       0.00000000       0.00000000       3.57360507 </v>
   </varray>
   <i name="volume">     45.03080242 </i>
   <varray name="rec_basis" >
    <v>       0.28170752       0.00000000       0.00000000 </v>
    <v>       0.00000000       0.28170752       0.00000000 </v>
    <v>       0.00000000       0.00000000       0.27982947 </v>
   </varray>
  </crystal>
  <varray name="positions" >
   <v>       0.25000000       0.25000000       0.25000000 </v>
   <v>       0.00000000       0.00000000       0.00000000 </v>
   <v>       0.25000000       0.75000000       0.75000000 </v>
   <v>       0.00000000       0.50000000       0.50000000 </v>
   <v>       0.75000000       0.25000000       0.75000000 </v>
   <v>       0.50000000       0.00000000       0.50000000 </v>
   <v>       0.75000000       0.75000000       0.25000000 </v>
   <v>       0.50000000       0.50000000       0.00000000 </v>
  </varray>
 </structure>
 <calculation>
  <scstep>
   <time name="dav">    3.10    3.21</time>
   <time name="total">    3.14    3.29</time>
   <energy>
    <i name="alphaZ">     77.91394839 </i>
    <i name="ewald">  -1395.40359012 </i>
    <i name="hartreedc">    -69.30688214 </i>
    <i name="XCdc">     62.37975594 </i>
    <i name="pawpsdc">    914.77613359 </i>
    <i name="pawaedc">   -872.73161751 </i>
    <i name="eentropy">     -0.00148199 </i>
    <i name="bandstr">    206.35686842 </i>
    <i name="atom">   1177.21277265 </i>
    <i name="e_fr_energy">    101.19590723 </i>
    <i name="e_wo_entrp">    101.19738923 </i>
    <i name="e_0_energy">    101.19664823 </i>
   </energy>
  </scstep>
  <scstep>
   <time name="dav">    5.26    5.30</time>
   <time name="total">    5.26    5.30</time>
   <energy>
    <i name="e_fr_energy">    -72.58156298 </i>
    <i name="e_wo_entrp">    -72.58156298 </i>
    <i name="e_0_energy">    -72.58156298 </i>
   </energy>
  </scstep>
  <scstep>
   <time name="dav">    3.75    3.77</time>
   <time name="total">    3.75    3.77</time>
   <energy>
    <i name="e_fr_energy">    -75.35427410 </i>
    <i name="e_wo_entrp">    -75.35427410 </i>
    <i name="e_0_energy">    -75.35427410 </i>
   </energy>
  </scstep>
  <scstep>
   <time name="dav">    6.52    6.54</time>
   <time name="total">    6.52    6.54</time>
   <energy>
    <i name="e_fr_energy">    -75.37225583 </i>
    <i name="e_wo_entrp">    -75.37225583 </i>
    <i name="e_0_energy">    -75.37225583 </i>
   </energy>
  </scstep>
  <scstep>
   <time name="dav">    3.73    3.75</time>
   <time name="total">    3.89    3.95</time>
   <energy>
    <i name="e_fr_energy">    -75.37225914 </i>
    <i name="e_wo_entrp">    -75.37225914 </i>
    <i name="e_0_energy">    -75.37225914 </i>
   </energy>
  </scstep>
  <scstep>
   <time name="dav">    3.71    3.72</time>
   <time name="total">    3.87    3.91</time>
   <energy>
    <i name="e_fr_energy">    -73.47066075 </i>
    <i name="e_wo_entrp">    -73.47066075 </i>
    <i name="e_0_energy">    -73.47066075 </i>
   </energy>
  </scstep>
  <scstep>
   <time name="dav">    4.75    4.76</time>
   <time name="total">    4.92    4.94</time>
   <energy>
    <i name="e_fr_energy">    -72.83390643 </i>
    <i name="e_wo_entrp">    -72.83390643 </i>
    <i name="e_0_energy">    -72.83390643 </i>
   </energy>
  </scstep>
  <scstep>
   <time name="dav">    5.55    5.56</time>
   <time name="total">    5.71    5.73</time>
   <energy>
    <i name="e_fr_energy">    -72.83204867 </i>
    <i name="e_wo_entrp">    -72.83204867 </i>
    <i name="e_0_energy">    -72.83204867 </i>
   </energy>
  </scstep>
  <scstep>
   <time name="dav">    4.87    4.88</time>
   <time name="total">    5.03    5.05</time>
   <energy>
    <i name="e_fr_energy">    -72.83221919 </i>
    <i name="e_wo_entrp">    -72.83221919 </i>
    <i name="e_0_energy">    -72.83221919 </i>
   </energy>
  </scstep>
  <scstep>
   <time name="dav">    5.42    5.44</time>
   <time name="total">    5.59    5.61</time>
   <energy>
    <i name="e_fr_energy">    -72.83234083 </i>
    <i name="e_wo_entrp">    -72.83234083 </i>
    <i name="e_0_energy">    -72.83234083 </i>
   </energy>
  </scstep>
  <scstep>
   <time name="dav">    5.14    5.15</time>
   <time name="total">    5.30    5.32</time>
   <energy>
    <i name="e_fr_energy">    -72.83234202 </i>
    <i name="e_wo_entrp">    -72.83234202 </i>
    <i name="e_0_energy">    -72.83234202 </i>
   </energy>
  </scstep>
  <scstep>
   <time name="dav">    5.43    5.44</time>
   <time name="total">    5.59    5.62</time>
   <energy>
    <i name="e_fr_energy">    -72.83234237 </i>
    <i name="e_wo_entrp">    -72.83234237 </i>
    <i name="e_0_energy">    -72.83234237 </i>
   </energy>
  </scstep>
  <scstep>
   <time name="dav">    5.07    5.09</time>
   <time name="total">    5.09    5.11</time>
   <energy>
    <i name="alphaZ">     77.91394839 </i>
    <i name="ewald">  -1395.40359012 </i>
    <i name="hartreedc">   -104.82076784 </i>
    <i name="XCdc">     65.44255077 </i>
    <i name="pawpsdc">  14956.89625030 </i>
    <i name="pawaedc"> -14915.39640229 </i>
    <i name="eentropy">     -0.00000000 </i>
    <i name="bandstr">     65.32289575 </i>
    <i name="atom">   1177.21277265 </i>
    <i name="e_fr_energy">    -72.83234238 </i>
    <i name="e_wo_entrp">    -72.83234238 </i>
    <i name="e_0_energy">    -72.83234238 </i>
   </energy>
  </scstep>
  <structure>
   <crystal>
    <varray name="basis" >
     <v>       3.54978104       0.00000000       0.00000000 </v>
     <v>       0.00000000       3.54978104       0.00000000 </v>
     <v>       0.00000000       0.00000000       3.57360507 </v>
    </varray>
    <i name="volume">     45.03080242 </i>
    <varray name="rec_basis" >
     <v>       0.28170752       0.00000000       0.00000000 </v>
     <v>       0.00000000       0.28170752       0.00000000 </v>
     <v>       0.00000000       0.00000000       0.27982947 </v>
    </varray>
   </crystal>
   <varray name="positions" >
    <v>       0.25000000       0.25000000       0.25000000 </v>
    <v>       0.00000000       0.00000000       0.00000000 </v>
    <v>       0.25000000       0.75000000       0.75000000 </v>
    <v>       0.00000000       0.50000000       0.50000000 </v>
    <v>       0.75000000       0.25000000       0.75000000 </v>
    <v>       0.50000000       0.00000000       0.50000000 </v>
    <v>       0.75000000       0.75000000       0.25000000 </v>
    <v>       0.50000000       0.50000000       0.00000000 </v>
   </varray>
  </structure>
  <varray name="forces" >
   <v>       0.00000000       0.00000000      -0.00000000 </v>
   <v>      -0.00000000       0.00000000       0.00000000 </v>
   <v>      -0.00000000       0.00000000       0.00000000 </v>
   <v>       0.00000000      -0.00000000       0.00000000 </v>
   <v>      -0.00000000      -0.00000000      -0.00000000 </v>
   <v>       0.00000000      -0.00000000      -0.00000000 </v>
   <v>      -0.00000000      -0.00000000      -0.00000000 </v>
   <v>      -0.00000000      -0.00000000       0.00000000 </v>
  </varray>
  <varray name="stress" >
   <v>      66.38376251       0.00000000       0.00000000 </v>
   <v>       0.00000000      66.38376251       0.00000000 </v>
   <v>       0.00000000       0.00000000       3.12768123 </v>
  </varray>
  <energy>
   <i name="e_fr_energy">    -72.83234238 </i>
   <i name="e_wo_entrp">    -72.83234238 </i>
   <i name="e_0_energy">     -0.00000000 </i>
  </energy>
  <time name="totalsc">   67.20   67.76</time>
  <eigenvalues>
   <array>
    <dimension dim="1">band</dimension>
    <dimension dim="2">kpoint</dimension>
    <dimension dim="3">spin</dimension>
    <field>eigene</field>
    <field>occ</field>
    <set>
     <set comment="spin 1">
      <set comment="kpoint 1">
       <r>  -10.4801    1.0000 </r>
       <r>   -2.3745    1.0000 </r>
       <r>   -2.2759    1.0000 </r>
       <r>   -2.2759    1.0000 </r>
       <r>   -1.2345    1.0000 </r>
       <r>   -1.1257    1.0000 </r>
       <r>   -1.1257    1.0000 </r>
       <r>    4.5722    1.0000 </r>
       <r>    4.5722    1.0000 </r>
       <r>    4.6692    1.0000 </r>
       <r>    4.7165    1.0000 </r>
       <r>    4.7165    1.0000 </r>
       <r>    4.8157    1.0000 </r>
       <r>   10.7912    1.0000 </r>
       <r>   10.9737    1.0000 </r>
       <r>   11.0296    1.0000 </r>
       <r>   15.7078    0.0000 </r>
       <r>   15.7078    0.0000 </r>
       <r>   15.8675    0.0000 </r>
       <r>   16.0931    0.0000 </r>
       <r>   16.0931    0.0000 </r>
       <r>   16.2481    0.0000 </r>
       <r>   16.7401    0.0000 </r>
       <r>   16.7715    0.0000 </r>
      </set>
      <set comment="kpoint 2">
       <r>  -10.3851    1.0000 </r>
       <r>   -3.3770    1.0000 </r>
       <r>   -2.3077    1.0000 </r>
       <r>   -2.2107    1.0000 </r>
       <r>   -1.1800    1.0000 </r>
       <r>   -1.0740    1.0000 </r>
       <r>    0.0606    1.0000 </r>
       <r>    4.2427    1.0000 </r>
       <r>    4.3360    1.0000 </r>
       <r>    4.6492    1.0000 </r>
       <r>    4.6682    1.0000 </r>
       <r>    4.7492    1.0000 </r>
       <r>    4.8091    1.0000 </r>
       <r>   10.3388    1.0000 </r>
       <r>   10.6147    1.0000 </r>
       <r>   10.9024    1.0000 </r>
       <r>   15.4728    0.0000 </r>
       <r>   16.0001    0.0000 </r>
       <r>   16.1565    0.0000 </r>
       <r>   16.5500    0.0000 </r>
       <r>   16.5622    0.0000 </r>
       <r>   16.6705    0.0000 </r>
       <r>   16.7188    0.0000 </r>
       <r>   17.1965    0.0000 </r>
      </set>
      <set comment="kpoint 3">
       <r>  -10.1951    1.0000 </r>
       <r>   -4.4187    1.0000 </r>
       <r>   -2.1783    1.0000 </r>
       <r>   -2.0850    1.0000 </r>
       <r>   -1.0775    1.0000 </r>
       <r>   -0.9777    1.0000 </r>
       <r>    1.2677    1.0000 </r>
       <r>    3.7955    1.0000 </r>
       <r>    3.8826    1.0000 </r>
       <r>    4.4001    1.0000 </r>
       <r>    4.4984    1.0000 </r>
       <r>    4.8605    1.0000 </r>
       <r>    4.9937    1.0000 </r>
       <r>    9.6998    1.0000 </r>
       <r>   10.0133    1.0000 </r>
       <r>   10.5271    1.0000 </r>
       <r>   15.3258    0.0000 </r>
       <r>   16.5288    0.0000 </r>
       <r>   16.6196    0.0000 </r>
       <r>   16.7727    0.0000 </r>
       <r>   17.1409    0.0000 </r>
       <r>   17.3697    0.0000 </r>
       <r>   17.5265    0.0000 </r>
       <r>   17.9370    0.0000 </r>
      </set>
      <set comment="kpoint 4">
       <r>   -9.9109    1.0000 </r>
       <r>   -5.3929    1.0000 </r>
       <r>   -1.9965    1.0000 </r>
       <r>   -1.9100    1.0000 </r>
       <r>   -0.9417    1.0000 </r>
       <r>   -0.8531    1.0000 </r>
       <r>    2.4765    1.0000 </r>
       <r>    3.3111    1.0000 </r>
       <r>    3.3880    1.0000 </r>
       <r>    4.0386    1.0000 </r>
       <r>    4.1313    1.0000 </r>
       <r>    5.1502    1.0000 </r>
       <r>    5.2690    1.0000 </r>
       <r>    8.9729    1.0000 </r>
       <r>    9.3073    1.0000 </r>
       <r>    9.9471    1.0000 </r>
       <r>   15.2644    0.0000 </r>
       <r>   16.3390    0.0000 </r>
       <r>   17.5206    0.0000 </r>
       <r>   17.6704    0.0000 </r>
       <r>   17.8664    0.0000 </r>
       <r>   18.4134    0.0000 </r>
       <r>   18.5690    0.0000 </r>
       <r>   18.8577    0.0000 </r>
      </set>
      <set comment="kpoint 5">
       <r>   -9.5330    1.0000 </r>
       <r>   -6.2928    1.0000 </r>
       <r>   -1.7816    1.0000 </r>
       <r>   -1.7070    1.0000 </r>
       <r>   -0.7978    1.0000 </r>
       <r>   -0.7274    1.0000 </r>
       <r>    2.8687    1.0000 </r>
       <r>    2.9294    1.0000 </r>
       <r>    3.6483    1.0000 </r>
       <r>    3.6633    1.0000 </r>
       <r>    3.7290    1.0000 </r>
       <r>    5.5407    1.0000 </r>
       <r>    5.6328    1.0000 </r>
       <r>    8.2177    1.0000 </r>
       <r>    8.5774    1.0000 </r>
       <r>    9.2139    1.0000 </r>
       <r>   15.2801    0.0000 </r>
       <r>   16.1215    0.0000 </r>
       <r>   18.6269    0.0000 </r>
       <r>   18.7298    0.0000 </r>
       <r>   18.7724    0.0000 </r>
       <r>   19.6096    0.0000 </r>
       <r>   19.7616    0.0000 </r>
       <r>   19.8790    0.0000 </r>
      </set>
      <set comment="kpoint 6">
       <r>   -9.0626    1.0000 </r>
       <r>   -7.1134    1.0000 </r>
       <r>   -1.5690    1.0000 </r>
       <r>   -1.5151    1.0000 </r>
       <r>   -0.6800    1.0000 </r>
       <r>   -0.6358    1.0000 </r>
       <r>    2.5397    1.0000 </r>
       <r>    2.5774    1.0000 </r>
       <r>    3.3150    1.0000 </r>
       <r>    3.3735    1.0000 </r>
       <r>    4.7936    1.0000 </r>
       <r>    6.0413    1.0000 </r>
       <r>    6.0840    1.0000 </r>
       <r>    7.4595    1.0000 </r>
       <r>    7.8683    1.0000 </r>
       <r>    8.3762    1.0000 </r>
       <r>   15.3629    0.0000 </r>
       <r>   15.8970    0.0000 </r>
       <r>   19.7268    0.0000 </r>
       <r>   19.8507    0.0000 </r>
       <r>   19.9882    0.0000 </r>
       <r>   20.8610    0.0000 </r>
       <r>   20.9529    0.0000 </r>
       <r>   21.0970    0.0000 </r>
      </set>
      <set comment="kpoint 7">
       <r>   -8.5012    1.0000 </r>
       <r>   -7.8506    1.0000 </r>
       <r>   -1.4184    1.0000 </r>
       <r>   -1.3978    1.0000 </r>
       <r>   -0.6148    1.0000 </r>
       <r>   -0.6003    1.0000 </r>
       <r>    2.3735    1.0000 </r>
       <r>    2.3857    1.0000 </r>
       <r>    3.1268    1.0000 </r>
       <r>    3.1490    1.0000 </r>
       <r>    5.8141    1.0000 </r>
       <r>    6.6035    1.0000 </r>
       <r>    6.6832    1.0000 </r>
       <r>    6.6958    1.0000 </r>
       <r>    7.2055    1.0000 </r>
       <r>    7.4996    1.0000 </r>
       <r>   15.5020    0.0000 </r>
       <r>   15.6847    0.0000 </r>
       <r>   20.8369    0.0000 </r>
       <r>   21.0325    0.0000 </r>
       <r>   21.1326    0.0000 </r>
       <r>   21.8696    0.0000 </r>
       <r>   21.9258    0.0000 </r>
       <r>   22.0192    0.0000 </r>
      </set>
      <set comment="kpoint 8">
       <r>  -10.2901    1.0000 </r>
       <r>   -3.3025    1.0000 </r>
       <r>   -3.3025    1.0000 </r>
       <r>   -2.2464    1.0000 </r>
       <r>   -1.1293    1.0000 </r>
       <r>    0.0897    1.0000 </r>
       <r>    0.0897    1.0000 </r>
       <r>    3.8015    1.0000 </r>
       <r>    4.3470    1.0000 </r>
       <r>    4.3470    1.0000 </r>
       <r>    4.7472    1.0000 </r>
       <r>    4.7472    1.0000 </r>
       <r>    4.9738    1.0000 </r>
       <r>    9.7963    1.0000 </r>
       <r>   10.3086    1.0000 </r>
       <r>   10.9202    1.0000 </r>
       <r>   15.8250    0.0000 </r>
       <r>   15.8250    0.0000 </r>
       <r>   16.1114    0.0000 </r>
       <r>   16.9260    0.0000 </r>
       <r>   16.9553    0.0000 </r>
       <r>   16.9553    0.0000 </r>
       <r>   17.2884    0.0000 </r>
       <r>   17.4417    0.0000 </r>
      </set>
      <set comment="kpoint 9">
       <r>  -10.1003    1.0000 </r>
       <r>   -4.3381    1.0000 </r>
       <r>   -3.1563    1.0000 </r>
       <r>   -2.1315    1.0000 </r>
       <r>   -1.0346    1.0000 </r>
       <r>    0.1355    1.0000 </r>
       <r>    1.2598    1.0000 </r>
       <r>    3.2254    1.0000 </r>
       <r>    3.9098    1.0000 </r>
       <r>    4.5180    1.0000 </r>
       <r>    4.5570    1.0000 </r>
       <r>    4.9454    1.0000 </r>
       <r>    4.9860    1.0000 </r>
       <r>    9.1054    1.0000 </r>
       <r>    9.7387    1.0000 </r>
       <r>   10.7039    1.0000 </r>
       <r>   15.6988    0.0000 </r>
       <r>   16.4270    0.0000 </r>
       <r>   16.4988    0.0000 </r>
       <r>   16.8842    0.0000 </r>
       <r>   17.5173    0.0000 </r>
       <r>   17.7002    0.0000 </r>
       <r>   17.9264    0.0000 </r>
       <r>   18.2291    0.0000 </r>
      </set>
      <set comment="kpoint 10">
       <r>   -9.8164    1.0000 </r>
       <r>   -5.3080    1.0000 </r>
       <r>   -2.9450    1.0000 </r>
       <r>   -1.9823    1.0000 </r>
       <r>   -0.9090    1.0000 </r>
       <r>    0.1702    1.0000 </r>
       <r>    2.4054    1.0000 </r>
       <r>    2.6892    1.0000 </r>
       <r>    3.4320    1.0000 </r>
       <r>    4.2020    1.0000 </r>
       <r>    4.8148    1.0000 </r>
       <r>    4.8747    1.0000 </r>
       <r>    5.2512    1.0000 </r>
       <r>    8.3533    1.0000 </r>
       <r>    9.0557    1.0000 </r>
       <r>   10.2413    1.0000 </r>
       <r>   15.6483    0.0000 </r>
       <r>   16.7137    0.0000 </r>
       <r>   17.0904    0.0000 </r>
       <r>   17.4366    0.0000 </r>
       <r>   18.2200    0.0000 </r>
       <r>   18.6930    0.0000 </r>
       <r>   18.8321    0.0000 </r>
       <r>   19.0254    0.0000 </r>
      </set>
      <set comment="kpoint 11">
       <r>   -9.4390    1.0000 </r>
       <r>   -6.2050    1.0000 </r>
       <r>   -2.6806    1.0000 </r>
       <r>   -1.8408    1.0000 </r>
       <r>   -0.7654    1.0000 </r>
       <r>    0.1527    1.0000 </r>
       <r>    2.2748    1.0000 </r>
       <r>    2.9757    1.0000 </r>
       <r>    3.4843    1.0000 </r>
       <r>    3.9028    1.0000 </r>
       <r>    4.5276    1.0000 </r>
       <r>    5.2967    1.0000 </r>
       <r>    5.6862    1.0000 </r>
       <r>    7.5852    1.0000 </r>
       <r>    8.3413    1.0000 </r>
       <r>    9.5866    1.0000 </r>
       <r>   15.6701    0.0000 </r>
       <r>   16.5052    0.0000 </r>
       <r>   18.0287    0.0000 </r>
       <r>   18.5678    0.0000 </r>
       <r>   19.0613    0.0000 </r>
       <r>   19.8367    0.0000 </r>
       <r>   19.8524    0.0000 </r>
       <r>   19.9496    0.0000 </r>
      </set>
      <set comment="kpoint 12">
       <r>   -8.9692    1.0000 </r>
       <r>   -7.0235    1.0000 </r>
       <r>   -2.3844    1.0000 </r>
       <r>   -1.7807    1.0000 </r>
       <r>   -0.5982    1.0000 </r>
       <r>    0.0449    1.0000 </r>
       <r>    2.0562    1.0000 </r>
       <r>    2.5763    1.0000 </r>
       <r>    3.7258    1.0000 </r>
       <r>    4.2019    1.0000 </r>
       <r>    4.4509    1.0000 </r>
       <r>    5.8011    1.0000 </r>
       <r>    6.2902    1.0000 </r>
       <r>    6.8231    1.0000 </r>
       <r>    7.6400    1.0000 </r>
       <r>    8.7979    1.0000 </r>
       <r>   15.7561    0.0000 </r>
       <r>   16.2864    0.0000 </r>
       <r>   19.1487    0.0000 </r>
       <r>   19.8117    0.0000 </r>
       <r>   20.0353    0.0000 </r>
       <r>   20.9269    0.0000 </r>
       <r>   20.9514    0.0000 </r>
       <r>   20.9805    0.0000 </r>
      </set>
      <set comment="kpoint 13">
       <r>   -8.4086    1.0000 </r>
       <r>   -7.7592    1.0000 </r>
       <r>   -2.0940    1.0000 </r>
       <r>   -1.8697    1.0000 </r>
       <r>   -0.3873    1.0000 </r>
       <r>   -0.1521    1.0000 </r>
       <r>    2.0623    1.0000 </r>
       <r>    2.2571    1.0000 </r>
       <r>    3.7339    1.0000 </r>
       <r>    3.9130    1.0000 </r>
       <r>    5.2959    1.0000 </r>
       <r>    6.0684    1.0000 </r>
       <r>    6.3628    1.0000 </r>
       <r>    6.9766    1.0000 </r>
       <r>    7.0660    1.0000 </r>
       <r>    7.9338    1.0000 </r>
       <r>   15.8961    0.0000 </r>
       <r>   16.0776    0.0000 </r>
       <r>   20.3193    0.0000 </r>
       <r>   20.9152    0.0000 </r>
       <r>   21.1208    0.0000 </r>
       <r>   21.5934    0.0000 </r>
       <r>   21.9757    0.0000 </r>
       <r>   22.0364    0.0000 </r>
      </set>
      <set comment="kpoint 14">
       <r>   -9.9110    1.0000 </r>
       <r>   -4.1787    1.0000 </r>
       <r>   -4.1787    1.0000 </r>
       <r>   -2.0546    1.0000 </r>
       <r>   -0.9542    1.0000 </r>
       <r>    1.2238    1.0000 </r>
       <r>    1.2238    1.0000 </r>
       <r>    2.6057    1.0000 </r>
       <r>    4.1373    1.0000 </r>
       <r>    4.1373    1.0000 </r>
       <r>    4.7662    1.0000 </r>
       <r>    4.7662    1.0000 </r>
       <r>    5.2847    1.0000 </r>
       <r>    8.3859    1.0000 </r>
       <r>    9.1997    1.0000 </r>
       <r>   10.6897    1.0000 </r>
       <r>   16.4005    0.0000 </r>
       <r>   16.4005    0.0000 </r>
       <r>   16.4283    0.0000 </r>
       <r>   17.2968    0.0000 </r>
       <r>   18.1116    0.0000 </r>
       <r>   18.2175    0.0000 </r>
       <r>   18.2175    0.0000 </r>
       <r>   18.5895    0.0000 </r>
      </set>
      <set comment="kpoint 15">
       <r>   -9.6277    1.0000 </r>
       <r>   -5.1396    1.0000 </r>
       <r>   -3.9446    1.0000 </r>
       <r>   -1.9910    1.0000 </r>
       <r>   -0.8398    1.0000 </r>
       <r>    1.1231    1.0000 </r>
       <r>    2.1102    1.0000 </r>
       <r>    2.2413    1.0000 </r>
       <r>    3.6624    1.0000 </r>
       <r>    4.4699    1.0000 </r>
       <r>    4.5561    1.0000 </r>
       <r>    5.1741    1.0000 </r>
       <r>    5.3714    1.0000 </r>
       <r>    7.6240    1.0000 </r>
       <r>    8.5429    1.0000 </r>
       <r>   10.4070    1.0000 </r>
       <r>   16.3643    0.0000 </r>
       <r>   16.8062    0.0000 </r>
       <r>   17.3240    0.0000 </r>
       <r>   17.3622    0.0000 </r>
       <r>   18.8333    0.0000 </r>
       <r>   18.8804    0.0000 </r>
       <r>   19.1352    0.0000 </r>
       <r>   19.1573    0.0000 </r>
      </set>
      <set comment="kpoint 16">
       <r>   -9.2512    1.0000 </r>
       <r>   -6.0304    1.0000 </r>
       <r>   -3.6433    1.0000 </r>
       <r>   -2.0173    1.0000 </r>
       <r>   -0.6757    1.0000 </r>
       <r>    0.9225    1.0000 </r>
       <r>    1.8213    1.0000 </r>
       <r>    3.1466    1.0000 </r>
       <r>    3.1749    1.0000 </r>
       <r>    4.4239    1.0000 </r>
       <r>    4.8874    1.0000 </r>
       <r>    5.2759    1.0000 </r>
       <r>    5.7748    1.0000 </r>
       <r>    6.8580    1.0000 </r>
       <r>    7.8489    1.0000 </r>
       <r>    9.8826    1.0000 </r>
       <r>   16.3928    0.0000 </r>
       <r>   17.1728    0.0000 </r>
       <r>   17.5207    0.0000 </r>
       <r>   18.5109    0.0000 </r>
       <r>   19.6803    0.0000 </r>
       <r>   19.8188    0.0000 </r>
       <r>   19.8374    0.0000 </r>
       <r>   20.2224    0.0000 </r>
      </set>
      <set comment="kpoint 17">
       <r>   -8.7827    1.0000 </r>
       <r>   -6.8444    1.0000 </r>
       <r>   -3.2873    1.0000 </r>
       <r>   -2.1983    1.0000 </r>
       <r>   -0.4324    1.0000 </r>
       <r>    0.6208    1.0000 </r>
       <r>    1.7787    1.0000 </r>
       <r>    2.7036    1.0000 </r>
       <r>    3.9397    1.0000 </r>
       <r>    4.4329    1.0000 </r>
       <r>    5.0633    1.0000 </r>
       <r>    5.3710    1.0000 </r>
       <r>    6.1079    1.0000 </r>
       <r>    6.5558    1.0000 </r>
       <r>    7.1639    1.0000 </r>
       <r>    9.1727    1.0000 </r>
       <r>   16.4798    0.0000 </r>
       <r>   16.9810    0.0000 </r>
       <r>   18.4895    0.0000 </r>
       <r>   19.7680    0.0000 </r>
       <r>   20.6081    0.0000 </r>
       <r>   20.6440    0.0000 </r>
       <r>   20.9034    0.0000 </r>
       <r>   21.1120    0.0000 </r>
      </set>
      <set comment="kpoint 18">
       <r>   -8.2239    1.0000 </r>
       <r>   -7.5769    1.0000 </r>
       <r>   -2.8988    1.0000 </r>
       <r>   -2.5155    1.0000 </r>
       <r>   -0.1095    1.0000 </r>
       <r>    0.2582    1.0000 </r>
       <r>    1.9533    1.0000 </r>
       <r>    2.2813    1.0000 </r>
       <r>    4.5766    1.0000 </r>
       <r>    4.6675    1.0000 </r>
       <r>    4.8074    1.0000 </r>
       <r>    5.3805    1.0000 </r>
       <r>    5.9141    1.0000 </r>
       <r>    6.5141    1.0000 </r>
       <r>    7.4404    1.0000 </r>
       <r>    8.3374    1.0000 </r>
       <r>   16.6157    0.0000 </r>
       <r>   16.7880    0.0000 </r>
       <r>   19.6015    0.0000 </r>
       <r>   20.5840    0.0000 </r>
       <r>   21.3028    0.0000 </r>
       <r>   21.5189    0.0000 </r>
       <r>   21.6325    0.0000 </r>
       <r>   22.0197    0.0000 </r>
      </set>
      <set comment="kpoint 19">
       <r>   -9.3454    1.0000 </r>
       <r>   -4.8904    1.0000 </r>
       <r>   -4.8904    1.0000 </r>
       <r>   -2.0975    1.0000 </r>
       <r>   -0.7132    1.0000 </r>
       <r>    1.7404    1.0000 </r>
       <r>    1.9627    1.0000 </r>
       <r>    1.9627    1.0000 </r>
       <r>    3.9815    1.0000 </r>
       <r>    3.9815    1.0000 </r>
       <r>    5.1320    1.0000 </r>
       <r>    5.1320    1.0000 </r>
       <r>    5.7372    1.0000 </r>
       <r>    6.8642    1.0000 </r>
       <r>    7.9097    1.0000 </r>
       <r>   10.3235    1.0000 </r>
       <r>   16.8782    0.0000 </r>
       <r>   17.3368    0.0000 </r>
       <r>   17.3368    0.0000 </r>
       <r>   17.8500    0.0000 </r>
       <r>   19.0850    0.0000 </r>
       <r>   19.3755    0.0000 </r>
       <r>   19.7629    0.0000 </r>
       <r>   19.7629    0.0000 </r>
      </set>
      <set comment="kpoint 20">
       <r>   -8.9704    1.0000 </r>
       <r>   -5.7708    1.0000 </r>
       <r>   -4.5652    1.0000 </r>
       <r>   -2.3639    1.0000 </r>
       <r>   -0.4968    1.0000 </r>
       <r>    1.5780    1.0000 </r>
       <r>    1.6269    1.0000 </r>
       <r>    2.6908    1.0000 </r>
       <r>    3.4550    1.0000 </r>
       <r>    4.3726    1.0000 </r>
       <r>    5.1803    1.0000 </r>
       <r>    5.8911    1.0000 </r>
       <r>    5.9109    1.0000 </r>
       <r>    6.1080    1.0000 </r>
       <r>    7.2360    1.0000 </r>
       <r>    9.9744    1.0000 </r>
       <r>   17.3144    0.0000 </r>
       <r>   17.3666    0.0000 </r>
       <r>   17.9604    0.0000 </r>
       <r>   18.4901    0.0000 </r>
       <r>   19.7697    0.0000 </r>
       <r>   19.8522    0.0000 </r>
       <r>   20.4914    0.0000 </r>
       <r>   20.7060    0.0000 </r>
      </set>
      <set comment="kpoint 21">
       <r>   -8.5040    1.0000 </r>
       <r>   -6.5775    1.0000 </r>
       <r>   -4.1720    1.0000 </r>
       <r>   -2.7697    1.0000 </r>
       <r>   -0.1830    1.0000 </r>
       <r>    1.1271    1.0000 </r>
       <r>    1.7461    1.0000 </r>
       <r>    2.9313    1.0000 </r>
       <r>    3.3542    1.0000 </r>
       <r>    4.8304    1.0000 </r>
       <r>    5.3185    1.0000 </r>
       <r>    5.3747    1.0000 </r>
       <r>    5.8627    1.0000 </r>
       <r>    6.5687    1.0000 </r>
       <r>    6.8133    1.0000 </r>
       <r>    9.3910    1.0000 </r>
       <r>   17.4467    0.0000 </r>
       <r>   17.8611    0.0000 </r>
       <r>   18.0669    0.0000 </r>
       <r>   19.7445    0.0000 </r>
       <r>   20.3048    0.0000 </r>
       <r>   20.8900    0.0000 </r>
       <r>   21.0457    0.0000 </r>
       <r>   21.2974    0.0000 </r>
      </set>
      <set comment="kpoint 22">
       <r>   -7.9479    1.0000 </r>
       <r>   -7.3047    1.0000 </r>
       <r>   -3.7240    1.0000 </r>
       <r>   -3.2436    1.0000 </r>
       <r>    0.2106    1.0000 </r>
       <r>    0.6579    1.0000 </r>
       <r>    2.0378    1.0000 </r>
       <r>    2.4469    1.0000 </r>
       <r>    4.0047    1.0000 </r>
       <r>    4.6737    1.0000 </r>
       <r>    5.3528    1.0000 </r>
       <r>    5.5127    1.0000 </r>
       <r>    5.7140    1.0000 </r>
       <r>    5.9354    1.0000 </r>
       <r>    7.7456    1.0000 </r>
       <r>    8.6275    1.0000 </r>
       <r>   17.5672    0.0000 </r>
       <r>   17.7131    0.0000 </r>
       <r>   19.0444    0.0000 </r>
       <r>   20.0949    0.0000 </r>
       <r>   20.9430    0.0000 </r>
       <r>   21.1671    0.0000 </r>
       <r>   21.5789    0.0000 </r>
       <r>   22.0112    0.0000 </r>
      </set>
      <set comment="kpoint 23">
       <r>   -8.5975    1.0000 </r>
       <r>   -5.4296    1.0000 </r>
       <r>   -5.4296    1.0000 </r>
       <r>   -2.8547    1.0000 </r>
       <r>   -0.2195    1.0000 </r>
       <r>    1.6743    1.0000 </r>
       <r>    2.1667    1.0000 </r>
       <r>    2.1667    1.0000 </r>
       <r>    3.8122    1.0000 </r>
       <r>    3.8122    1.0000 </r>
       <r>    5.3661    1.0000 </r>
       <r>    6.0854    1.0000 </r>
       <r>    6.0854    1.0000 </r>
       <r>    6.3132    1.0000 </r>
       <r>    6.5805    1.0000 </r>
       <r>    9.8175    1.0000 </r>
       <r>   17.4519    0.0000 </r>
       <r>   18.5127    0.0000 </r>
       <r>   18.5127    0.0000 </r>
       <r>   18.5799    0.0000 </r>
       <r>   19.8166    0.0000 </r>
       <r>   20.1665    0.0000 </r>
       <r>   21.1667    0.0000 </r>
       <r>   21.1667    0.0000 </r>
      </set>
      <set comment="kpoint 24">
       <r>   -8.1341    1.0000 </r>
       <r>   -6.2253    1.0000 </r>
       <r>   -5.0120    1.0000 </r>
       <r>   -3.4166    1.0000 </r>
       <r>    0.1464    1.0000 </r>
       <r>    1.6192    1.0000 </r>
       <r>    1.9061    1.0000 </r>
       <r>    2.7419    1.0000 </r>
       <r>    3.2526    1.0000 </r>
       <r>    4.2441    1.0000 </r>
       <r>    4.6510    1.0000 </r>
       <r>    5.9296    1.0000 </r>
       <r>    6.2753    1.0000 </r>
       <r>    6.5228    1.0000 </r>
       <r>    7.0403    1.0000 </r>
       <r>    9.4061    1.0000 </r>
       <r>   17.9325    0.0000 </r>
       <r>   18.5738    0.0000 </r>
       <r>   18.7774    0.0000 </r>
       <r>   19.7469    0.0000 </r>
       <r>   20.0096    0.0000 </r>
       <r>   20.7131    0.0000 </r>
       <r>   20.9715    0.0000 </r>
       <r>   21.1952    0.0000 </r>
      </set>
      <set comment="kpoint 25">
       <r>   -7.5822    1.0000 </r>
       <r>   -6.9446    1.0000 </r>
       <r>   -4.5266    1.0000 </r>
       <r>   -3.9871    1.0000 </r>
       <r>    0.5862    1.0000 </r>
       <r>    1.0837    1.0000 </r>
       <r>    2.2702    1.0000 </r>
       <r>    2.7289    1.0000 </r>
       <r>    3.3388    1.0000 </r>
       <r>    3.9738    1.0000 </r>
       <r>    4.7465    1.0000 </r>
       <r>    5.3122    1.0000 </r>
       <r>    6.4458    1.0000 </r>
       <r>    6.5481    1.0000 </r>
       <r>    7.9595    1.0000 </r>
       <r>    8.7696    1.0000 </r>
       <r>   18.6602    0.0000 </r>
       <r>   18.7013    0.0000 </r>
       <r>   18.7476    0.0000 </r>
       <r>   19.6543    0.0000 </r>
       <r>   20.3450    0.0000 </r>
       <r>   20.7830    0.0000 </r>
       <r>   21.0950    0.0000 </r>
       <r>   22.0412    0.0000 </r>
      </set>
      <set comment="kpoint 26">
       <r>   -7.6749    1.0000 </r>
       <r>   -5.7913    1.0000 </r>
       <r>   -5.7913    1.0000 </r>
       <r>   -4.0750    1.0000 </r>
       <r>    0.5511    1.0000 </r>
       <r>    2.1348    1.0000 </r>
       <r>    2.1348    1.0000 </r>
       <r>    2.2082    1.0000 </r>
       <r>    3.6591    1.0000 </r>
       <r>    3.6591    1.0000 </r>
       <r>    3.9553    1.0000 </r>
       <r>    5.2939    1.0000 </r>
       <r>    6.9865    1.0000 </r>
       <r>    7.2130    1.0000 </r>
       <r>    7.2130    1.0000 </r>
       <r>    9.1876    1.0000 </r>
       <r>   18.1193    0.0000 </r>
       <r>   19.4760    0.0000 </r>
       <r>   19.7670    0.0000 </r>
       <r>   19.7670    0.0000 </r>
       <r>   19.8308    0.0000 </r>
       <r>   20.3178    0.0000 </r>
       <r>   20.3178    0.0000 </r>
       <r>   21.3526    0.0000 </r>
      </set>
      <set comment="kpoint 27">
       <r>   -7.1288    1.0000 </r>
       <r>   -6.4993    1.0000 </r>
       <r>   -5.2815    1.0000 </r>
       <r>   -4.7046    1.0000 </r>
       <r>    1.0242    1.0000 </r>
       <r>    1.5564    1.0000 </r>
       <r>    2.6174    1.0000 </r>
       <r>    2.6928    1.0000 </r>
       <r>    3.1085    1.0000 </r>
       <r>    3.3001    1.0000 </r>
       <r>    4.1422    1.0000 </r>
       <r>    4.6916    1.0000 </r>
       <r>    7.2353    1.0000 </r>
       <r>    7.2944    1.0000 </r>
       <r>    8.0532    1.0000 </r>
       <r>    8.7286    1.0000 </r>
       <r>   18.6185    0.0000 </r>
       <r>   19.3686    0.0000 </r>
       <r>   19.7412    0.0000 </r>
       <r>   19.7794    0.0000 </r>
       <r>   19.8356    0.0000 </r>
       <r>   20.0094    0.0000 </r>
       <r>   21.0255    0.0000 </r>
       <r>   22.1343    0.0000 </r>
      </set>
      <set comment="kpoint 28">
       <r>   -6.5908    1.0000 </r>
       <r>   -5.9729    1.0000 </r>
       <r>   -5.9729    1.0000 </r>
       <r>   -5.3715    1.0000 </r>
       <r>    1.5250    1.0000 </r>
       <r>    2.0840    1.0000 </r>
       <r>    2.0840    1.0000 </r>
       <r>    2.6670    1.0000 </r>
       <r>    3.0572    1.0000 </r>
       <r>    3.5715    1.0000 </r>
       <r>    3.5715    1.0000 </r>
       <r>    4.1044    1.0000 </r>
       <r>    7.7212    1.0000 </r>
       <r>    7.9872    1.0000 </r>
       <r>    7.9872    1.0000 </r>
       <r>    8.4722    1.0000 </r>
       <r>   18.8210    0.0000 </r>
       <r>   19.2922    0.0000 </r>
       <r>   19.2922    0.0000 </r>
       <r>   19.4472    0.0000 </r>
       <r>   20.5208    0.0000 </r>
       <r>   20.8871    0.0000 </r>
       <r>   20.8871    0.0000 </r>
       <r>   21.6889    0.0000 </r>
      </set>
      <set comment="kpoint 29">
       <r>  -10.3864    1.0000 </r>
       <r>   -3.4646    1.0000 </r>
       <r>   -2.2112    1.0000 </r>
       <r>   -2.2112    1.0000 </r>
       <r>   -1.0741    1.0000 </r>
       <r>   -1.0741    1.0000 </r>
       <r>   -0.0569    1.0000 </r>
       <r>    4.2477    1.0000 </r>
       <r>    4.2477    1.0000 </r>
       <r>    4.6547    1.0000 </r>
       <r>    4.6547    1.0000 </r>
       <r>    4.7639    1.0000 </r>
       <r>    4.9071    1.0000 </r>
       <r>   10.3462    1.0000 </r>
       <r>   10.6629    1.0000 </r>
       <r>   10.8450    1.0000 </r>
       <r>   15.6356    0.0000 </r>
       <r>   15.9926    0.0000 </r>
       <r>   15.9926    0.0000 </r>
       <r>   16.5552    0.0000 </r>
       <r>   16.5552    0.0000 </r>
       <r>   16.6958    0.0000 </r>
       <r>   16.7535    0.0000 </r>
       <r>   17.1884    0.0000 </r>
      </set>
      <set comment="kpoint 30">
       <r>  -10.2913    1.0000 </r>
       <r>   -3.3891    1.0000 </r>
       <r>   -3.3033    1.0000 </r>
       <r>   -2.1521    1.0000 </r>
       <r>   -1.0265    1.0000 </r>
       <r>   -0.0227    1.0000 </r>
       <r>    0.0903    1.0000 </r>
       <r>    3.7212    1.0000 </r>
       <r>    4.3527    1.0000 </r>
       <r>    4.4384    1.0000 </r>
       <r>    4.7512    1.0000 </r>
       <r>    4.8448    1.0000 </r>
       <r>    4.8741    1.0000 </r>
       <r>    9.7880    1.0000 </r>
       <r>   10.3683    1.0000 </r>
       <r>   10.8672    1.0000 </r>
       <r>   15.8176    0.0000 </r>
       <r>   15.9537    0.0000 </r>
       <r>   15.9852    0.0000 </r>
       <r>   16.9482    0.0000 </r>
       <r>   16.9608    0.0000 </r>
       <r>   17.1021    0.0000 </r>
       <r>   17.2741    0.0000 </r>
       <r>   17.3513    0.0000 </r>
      </set>
      <set comment="kpoint 31">
       <r>  -10.1016    1.0000 </r>
       <r>   -4.3391    1.0000 </r>
       <r>   -3.2408    1.0000 </r>
       <r>   -2.0423    1.0000 </r>
       <r>   -0.9385    1.0000 </r>
       <r>    0.0342    1.0000 </r>
       <r>    1.2613    1.0000 </r>
       <r>    3.1565    1.0000 </r>
       <r>    3.9946    1.0000 </r>
       <r>    4.5646    1.0000 </r>
       <r>    4.6105    1.0000 </r>
       <r>    4.8826    1.0000 </r>
       <r>    4.9462    1.0000 </r>
       <r>    9.0962    1.0000 </r>
       <r>    9.7914    1.0000 </r>
       <r>   10.6595    1.0000 </r>
       <r>   15.6917    0.0000 </r>
       <r>   16.2754    0.0000 </r>
       <r>   16.6554    0.0000 </r>
       <r>   16.8880    0.0000 </r>
       <r>   17.5105    0.0000 </r>
       <r>   17.8477    0.0000 </r>
       <r>   18.0356    0.0000 </r>
       <r>   18.1231    0.0000 </r>
      </set>
      <set comment="kpoint 32">
       <r>   -9.8177    1.0000 </r>
       <r>   -5.3091    1.0000 </r>
       <r>   -3.0257    1.0000 </r>
       <r>   -1.9035    1.0000 </r>
       <r>   -0.8241    1.0000 </r>
       <r>    0.0891    1.0000 </r>
       <r>    2.4085    1.0000 </r>
       <r>    2.6382    1.0000 </r>
       <r>    3.5081    1.0000 </r>
       <r>    4.2813    1.0000 </r>
       <r>    4.7108    1.0000 </r>
       <r>    4.8869    1.0000 </r>
       <r>    5.2454    1.0000 </r>
       <r>    8.3463    1.0000 </r>
       <r>    9.1026    1.0000 </r>
       <r>   10.2020    1.0000 </r>
       <r>   15.6416    0.0000 </r>
       <r>   16.7136    0.0000 </r>
       <r>   16.9447    0.0000 </r>
       <r>   17.5894    0.0000 </r>
       <r>   18.2136    0.0000 </r>
       <r>   18.8398    0.0000 </r>
       <r>   18.8900    0.0000 </r>
       <r>   18.9715    0.0000 </r>
      </set>
      <set comment="kpoint 33">
       <r>   -9.4402    1.0000 </r>
       <r>   -6.2062    1.0000 </r>
       <r>   -2.7548    1.0000 </r>
       <r>   -1.7823    1.0000 </r>
       <r>   -0.6950    1.0000 </r>
       <r>    0.1025    1.0000 </r>
       <r>    2.2508    1.0000 </r>
       <r>    3.0426    1.0000 </r>
       <r>    3.4893    1.0000 </r>
       <r>    3.9556    1.0000 </r>
       <r>    4.4277    1.0000 </r>
       <r>    5.3182    1.0000 </r>
       <r>    5.6687    1.0000 </r>
       <r>    7.5811    1.0000 </r>
       <r>    8.3838    1.0000 </r>
       <r>    9.5503    1.0000 </r>
       <r>   15.6638    0.0000 </r>
       <r>   16.5034    0.0000 </r>
       <r>   17.8887    0.0000 </r>
       <r>   18.7161    0.0000 </r>
       <r>   19.0555    0.0000 </r>
       <r>   19.7945    0.0000 </r>
       <r>   19.9787    0.0000 </r>
       <r>   20.0101    0.0000 </r>
      </set>
      <set comment="kpoint 34">
       <r>   -8.9705    1.0000 </r>
       <r>   -7.0247    1.0000 </r>
       <r>   -2.4478    1.0000 </r>
       <r>   -1.7564    1.0000 </r>
       <r>   -0.5407    1.0000 </r>
       <r>    0.0329    1.0000 </r>
       <r>    2.0654    1.0000 </r>
       <r>    2.6371    1.0000 </r>
       <r>    3.7372    1.0000 </r>
       <r>    4.1129    1.0000 </r>
       <r>    4.4567    1.0000 </r>
       <r>    5.8330    1.0000 </r>
       <r>    6.2605    1.0000 </r>
       <r>    6.8221    1.0000 </r>
       <r>    7.6796    1.0000 </r>
       <r>    8.7635    1.0000 </r>
       <r>   15.7504    0.0000 </r>
       <r>   16.2833    0.0000 </r>
       <r>   19.0157    0.0000 </r>
       <r>   19.9511    0.0000 </r>
       <r>   20.0303    0.0000 </r>
       <r>   20.7718    0.0000 </r>
       <r>   21.0967    0.0000 </r>
       <r>   21.1073    0.0000 </r>
      </set>
      <set comment="kpoint 35">
       <r>   -8.4099    1.0000 </r>
       <r>   -7.7604    1.0000 </r>
       <r>   -2.1388    1.0000 </r>
       <r>   -1.8846    1.0000 </r>
       <r>   -0.3425    1.0000 </r>
       <r>   -0.1296    1.0000 </r>
       <r>    2.1004    1.0000 </r>
       <r>    2.3113    1.0000 </r>
       <r>    3.7005    1.0000 </r>
       <r>    3.8453    1.0000 </r>
       <r>    5.3005    1.0000 </r>
       <r>    6.0703    1.0000 </r>
       <r>    6.3990    1.0000 </r>
       <r>    7.0144    1.0000 </r>
       <r>    7.0321    1.0000 </r>
       <r>    7.8998    1.0000 </r>
       <r>   15.8911    0.0000 </r>
       <r>   16.0735    0.0000 </r>
       <r>   20.2043    0.0000 </r>
       <r>   20.9579    0.0000 </r>
       <r>   21.1169    0.0000 </r>
       <r>   21.6395    0.0000 </r>
       <r>   21.7874    0.0000 </r>
       <r>   22.2181    0.0000 </r>
      </set>
      <set comment="kpoint 36">
       <r>  -10.1964    1.0000 </r>
       <r>   -3.3160    1.0000 </r>
       <r>   -3.2314    1.0000 </r>
       <r>   -3.2314    1.0000 </r>
       <r>   -0.0008    1.0000 </r>
       <r>    0.1058    1.0000 </r>
       <r>    0.1058    1.0000 </r>
       <r>    3.8506    1.0000 </r>
       <r>    3.8506    1.0000 </r>
       <r>    3.9259    1.0000 </r>
       <r>    4.9651    1.0000 </r>
       <r>    4.9651    1.0000 </r>
       <r>    5.0638    1.0000 </r>
       <r>    9.1693    1.0000 </r>
       <r>   10.5176    1.0000 </r>
       <r>   10.5901    1.0000 </r>
       <r>   15.9070    0.0000 </r>
       <r>   15.9070    0.0000 </r>
       <r>   16.0668    0.0000 </r>
       <r>   17.3250    0.0000 </r>
       <r>   17.3658    0.0000 </r>
       <r>   17.5358    0.0000 </r>
       <r>   17.5358    0.0000 </r>
       <r>   17.7446    0.0000 </r>
      </set>
      <set comment="kpoint 37">
       <r>  -10.0069    1.0000 </r>
       <r>   -4.2598    1.0000 </r>
       <r>   -3.1736    1.0000 </r>
       <r>   -3.0915    1.0000 </r>
       <r>    0.0263    1.0000 </r>
       <r>    0.1179    1.0000 </r>
       <r>    1.2225    1.0000 </r>
       <r>    3.3266    1.0000 </r>
       <r>    3.3856    1.0000 </r>
       <r>    4.1219    1.0000 </r>
       <r>    4.9774    1.0000 </r>
       <r>    5.0786    1.0000 </r>
       <r>    5.1462    1.0000 </r>
       <r>    8.4355    1.0000 </r>
       <r>    9.9809    1.0000 </r>
       <r>   10.5023    1.0000 </r>
       <r>   15.8669    0.0000 </r>
       <r>   16.2804    0.0000 </r>
       <r>   16.4325    0.0000 </r>
       <r>   17.2153    0.0000 </r>
       <r>   18.0057    0.0000 </r>
       <r>   18.0280    0.0000 </r>
       <r>   18.2480    0.0000 </r>
       <r>   18.4619    0.0000 </r>
      </set>
      <set comment="kpoint 38">
       <r>   -9.7233    1.0000 </r>
       <r>   -5.2250    1.0000 </r>
       <r>   -2.9706    1.0000 </r>
       <r>   -2.8933    1.0000 </r>
       <r>    0.0226    1.0000 </r>
       <r>    0.0880    1.0000 </r>
       <r>    2.2726    1.0000 </r>
       <r>    2.8758    1.0000 </r>
       <r>    2.9101    1.0000 </r>
       <r>    4.5633    1.0000 </r>
       <r>    4.8206    1.0000 </r>
       <r>    4.9196    1.0000 </r>
       <r>    5.4160    1.0000 </r>
       <r>    7.6629    1.0000 </r>
       <r>    9.3203    1.0000 </r>
       <r>   10.1467    1.0000 </r>
       <r>   15.8696    0.0000 </r>
       <r>   16.9715    0.0000 </r>
       <r>   17.0359    0.0000 </r>
       <r>   17.1170    0.0000 </r>
       <r>   18.6464    0.0000 </r>
       <r>   18.8537    0.0000 </r>
       <r>   18.9989    0.0000 </r>
       <r>   19.5856    0.0000 </r>
      </set>
      <set comment="kpoint 39">
       <r>   -9.3463    1.0000 </r>
       <r>   -6.1189    1.0000 </r>
       <r>   -2.7253    1.0000 </r>
       <r>   -2.6569    1.0000 </r>
       <r>   -0.0560    1.0000 </r>
       <r>   -0.0253    1.0000 </r>
       <r>    2.5786    1.0000 </r>
       <r>    2.5826    1.0000 </r>
       <r>    3.1996    1.0000 </r>
       <r>    4.5699    1.0000 </r>
       <r>    4.6588    1.0000 </r>
       <r>    5.2073    1.0000 </r>
       <r>    5.7719    1.0000 </r>
       <r>    6.8899    1.0000 </r>
       <r>    8.6267    1.0000 </r>
       <r>    9.5581    1.0000 </r>
       <r>   15.9262    0.0000 </r>
       <r>   16.8241    0.0000 </r>
       <r>   17.9236    0.0000 </r>
       <r>   18.0631    0.0000 </r>
       <r>   19.4409    0.0000 </r>
       <r>   19.7639    0.0000 </r>
       <r>   19.9235    0.0000 </r>
       <r>   20.8111    0.0000 </r>
      </set>
      <set comment="kpoint 40">
       <r>   -8.8772    1.0000 </r>
       <r>   -6.9352    1.0000 </r>
       <r>   -2.4749    1.0000 </r>
       <r>   -2.4235    1.0000 </r>
       <r>   -0.2125    1.0000 </r>
       <r>   -0.2097    1.0000 </r>
       <r>    2.4354    1.0000 </r>
       <r>    2.4508    1.0000 </r>
       <r>    3.9926    1.0000 </r>
       <r>    4.3194    1.0000 </r>
       <r>    4.3854    1.0000 </r>
       <r>    6.0383    1.0000 </r>
       <r>    6.1375    1.0000 </r>
       <r>    6.2110    1.0000 </r>
       <r>    7.9461    1.0000 </r>
       <r>    8.7962    1.0000 </r>
       <r>   16.0360    0.0000 </r>
       <r>   16.6009    0.0000 </r>
       <r>   19.0482    0.0000 </r>
       <r>   19.1792    0.0000 </r>
       <r>   20.3761    0.0000 </r>
       <r>   20.7463    0.0000 </r>
       <r>   20.9292    0.0000 </r>
       <r>   21.9551    0.0000 </r>
      </set>
      <set comment="kpoint 41">
       <r>   -8.3175    1.0000 </r>
       <r>   -7.6692    1.0000 </r>
       <r>   -2.2922    1.0000 </r>
       <r>   -2.2719    1.0000 </r>
       <r>   -0.3612    1.0000 </r>
       <r>   -0.3575    1.0000 </r>
       <r>    2.4117    1.0000 </r>
       <r>    2.4216    1.0000 </r>
       <r>    4.1697    1.0000 </r>
       <r>    4.1951    1.0000 </r>
       <r>    4.7094    1.0000 </r>
       <r>    5.4135    1.0000 </r>
       <r>    6.7219    1.0000 </r>
       <r>    6.9761    1.0000 </r>
       <r>    7.3057    1.0000 </r>
       <r>    7.9170    1.0000 </r>
       <r>   16.1924    0.0000 </r>
       <r>   16.3851    0.0000 </r>
       <r>   20.1836    0.0000 </r>
       <r>   20.2796    0.0000 </r>
       <r>   21.4265    0.0000 </r>
       <r>   21.7723    0.0000 </r>
       <r>   21.8907    0.0000 </r>
       <r>   21.9625    0.0000 </r>
      </set>
      <set comment="kpoint 42">
       <r>   -9.8178    1.0000 </r>
       <r>   -4.1036    1.0000 </r>
       <r>   -4.1036    1.0000 </r>
       <r>   -3.0457    1.0000 </r>
       <r>   -0.0180    1.0000 </r>
       <r>    1.1124    1.0000 </r>
       <r>    1.1124    1.0000 </r>
       <r>    2.8429    1.0000 </r>
       <r>    3.6908    1.0000 </r>
       <r>    3.6908    1.0000 </r>
       <r>    5.1688    1.0000 </r>
       <r>    5.1688    1.0000 </r>
       <r>    5.3711    1.0000 </r>
       <r>    7.6736    1.0000 </r>
       <r>    9.6459    1.0000 </r>
[...]
       <r>   -5.2302    1.0000 </r>
       <r>   -4.7641    1.0000 </r>
       <r>   -1.7584    1.0000 </r>
       <r>   -1.3036    1.0000 </r>
       <r>   -1.2973    1.0000 </r>
       <r>   -0.7676    1.0000 </r>
       <r>    6.9719    1.0000 </r>
       <r>    7.2459    1.0000 </r>
       <r>    7.2659    1.0000 </r>
       <r>    7.6156    1.0000 </r>
       <r>    7.9242    1.0000 </r>
       <r>    8.0501    1.0000 </r>
       <r>    8.0607    1.0000 </r>
       <r>    8.3493    1.0000 </r>
       <r>   19.1789    0.0000 </r>
       <r>   19.4095    0.0000 </r>
       <r>   19.4473    0.0000 </r>
       <r>   19.5414    0.0000 </r>
       <r>   19.6919    0.0000 </r>
       <r>   19.7456    0.0000 </r>
       <r>   19.9340    0.0000 </r>
       <r>   20.2678    0.0000 </r>
      </set>
      <set comment="kpoint 194">
       <r>   -5.8701    1.0000 </r>
       <r>   -5.3235    1.0000 </r>
       <r>   -4.5408    1.0000 </r>
       <r>   -4.5408    1.0000 </r>
       <r>   -2.1470    1.0000 </r>
       <r>   -2.1470    1.0000 </r>
       <r>   -1.3817    1.0000 </r>
       <r>   -0.8492    1.0000 </r>
       <r>    7.3907    1.0000 </r>
       <r>    7.3907    1.0000 </r>
       <r>    7.8022    1.0000 </r>
       <r>    7.8022    1.0000 </r>
       <r>    7.8389    1.0000 </r>
       <r>    7.9996    1.0000 </r>
       <r>    8.2560    1.0000 </r>
       <r>    8.2724    1.0000 </r>
       <r>   19.2079    0.0000 </r>
       <r>   19.2505    0.0000 </r>
       <r>   19.2505    0.0000 </r>
       <r>   19.3656    0.0000 </r>
       <r>   19.7909    0.0000 </r>
       <r>   19.9435    0.0000 </r>
       <r>   19.9435    0.0000 </r>
       <r>   20.0504    0.0000 </r>
      </set>
      <set comment="kpoint 195">
       <r>   -5.4041    1.0000 </r>
       <r>   -4.9341    1.0000 </r>
       <r>   -4.9286    1.0000 </r>
       <r>   -4.6275    1.0000 </r>
       <r>   -2.2310    1.0000 </r>
       <r>   -1.9352    1.0000 </r>
       <r>   -1.9300    1.0000 </r>
       <r>   -1.4700    1.0000 </r>
       <r>    7.6791    1.0000 </r>
       <r>    7.8130    1.0000 </r>
       <r>    7.8647    1.0000 </r>
       <r>    8.0427    1.0000 </r>
       <r>    8.0846    1.0000 </r>
       <r>    8.0955    1.0000 </r>
       <r>    8.1307    1.0000 </r>
       <r>    8.3152    1.0000 </r>
       <r>   19.3515    0.0000 </r>
       <r>   19.4341    0.0000 </r>
       <r>   19.4480    0.0000 </r>
       <r>   19.5107    0.0000 </r>
       <r>   19.6186    0.0000 </r>
       <r>   19.6824    0.0000 </r>
       <r>   19.8289    0.0000 </r>
       <r>   19.9098    0.0000 </r>
      </set>
      <set comment="kpoint 196">
       <r>   -5.0144    1.0000 </r>
       <r>   -4.7117    1.0000 </r>
       <r>   -4.7094    1.0000 </r>
       <r>   -4.7094    1.0000 </r>
       <r>   -2.3208    1.0000 </r>
       <r>   -2.3208    1.0000 </r>
       <r>   -2.3186    1.0000 </r>
       <r>   -2.0208    1.0000 </r>
       <r>    8.0543    1.0000 </r>
       <r>    8.0942    1.0000 </r>
       <r>    8.0942    1.0000 </r>
       <r>    8.1969    1.0000 </r>
       <r>    8.1969    1.0000 </r>
       <r>    8.2047    1.0000 </r>
       <r>    8.2349    1.0000 </r>
       <r>    8.3253    1.0000 </r>
       <r>   19.4768    0.0000 </r>
       <r>   19.4768    0.0000 </r>
       <r>   19.4827    0.0000 </r>
       <r>   19.4999    0.0000 </r>
       <r>   19.5857    0.0000 </r>
       <r>   19.6605    0.0000 </r>
       <r>   19.6606    0.0000 </r>
       <r>   19.7106    0.0000 </r>
      </set>
     </set>
    </set>
   </array>
  </eigenvalues>
  <separator name="orbital magnetization" >
   <v name="MAGDIPOLOUT">      0.00000000      0.00000000      0.00000000</v>
  </separator>
  <dos>
   <i name="efermi">     11.29534654 </i>
   <total>
    <array>
     <dimension dim="1">gridpoints</dimension>
     <dimension dim="2">spin</dimension>
     <field>energy</field>
     <field>total</field>
     <field>integrated</field>
     <set>
      <set comment="spin 1">
       <r>   -12.1537     0.0000     0.0000 </r>
       <r>   -12.0310     0.0000     0.0000 </r>
       <r>   -11.9083     0.0000     0.0000 </r>
       <r>   -11.7855     0.0000     0.0000 </r>
       <r>   -11.6628     0.0000     0.0000 </r>
       <r>   -11.5401     0.0000     0.0000 </r>
       <r>   -11.4174     0.0000     0.0000 </r>
       <r>   -11.2946     0.0000     0.0000 </r>
       <r>   -11.1719     0.0000     0.0000 </r>
       <r>   -11.0492     0.0000     0.0000 </r>
       <r>   -10.9264     0.0000     0.0000 </r>
       <r>   -10.8037     0.0000     0.0000 </r>
       <r>   -10.6810     0.0000     0.0000 </r>
       <r>   -10.5582     0.0006     0.0001 </r>
       <r>   -10.4355     0.0532     0.0066 </r>
       <r>   -10.3128     0.1717     0.0277 </r>
       <r>   -10.1901     0.2171     0.0543 </r>
       <r>   -10.0673     0.3250     0.0942 </r>
       <r>    -9.9446     0.2316     0.1226 </r>
       <r>    -9.8219     0.4371     0.1763 </r>
       <r>    -9.6991     0.3456     0.2187 </r>
       <r>    -9.5764     0.3950     0.2672 </r>
       <r>    -9.4537     0.4964     0.3281 </r>
       <r>    -9.3309     0.4877     0.3880 </r>
       <r>    -9.2082     0.5376     0.4539 </r>
       <r>    -9.0855     0.3834     0.5010 </r>
       <r>    -8.9628     0.6628     0.5823 </r>
       <r>    -8.8400     0.6523     0.6624 </r>
       <r>    -8.7173     0.5148     0.7256 </r>
       <r>    -8.5946     0.5032     0.7873 </r>
       <r>    -8.4718     0.7195     0.8756 </r>
       <r>    -8.3491     0.8133     0.9754 </r>
       <r>    -8.2264     0.5699     1.0454 </r>
       <r>    -8.1036     0.7493     1.1374 </r>
       <r>    -7.9809     0.6262     1.2142 </r>
       <r>    -7.8582     0.8495     1.3185 </r>
       <r>    -7.7355     0.5685     1.3882 </r>
       <r>    -7.6127     0.9146     1.5005 </r>
       <r>    -7.4900     1.0558     1.6301 </r>
       <r>    -7.3673     0.5516     1.6978 </r>
       <r>    -7.2445     0.8064     1.7967 </r>
       <r>    -7.1218     0.7093     1.8838 </r>
       <r>    -6.9991     1.2339     2.0352 </r>
       <r>    -6.8763     0.8445     2.1389 </r>
       <r>    -6.7536     0.9473     2.2551 </r>
       <r>    -6.6309     0.7408     2.3461 </r>
       <r>    -6.5082     1.0498     2.4749 </r>
       <r>    -6.3854     0.8987     2.5852 </r>
       <r>    -6.2627     1.0368     2.7124 </r>
       <r>    -6.1400     1.0044     2.8357 </r>
       <r>    -6.0172     1.0530     2.9650 </r>
       <r>    -5.8945     1.1339     3.1041 </r>
       <r>    -5.7718     1.0242     3.2298 </r>
       <r>    -5.6491     1.4136     3.4033 </r>
       <r>    -5.5263     0.6109     3.4783 </r>
       <r>    -5.4036     0.9542     3.5954 </r>
       <r>    -5.2809     1.6222     3.7945 </r>
       <r>    -5.1581     1.3637     3.9619 </r>
       <r>    -5.0354     1.1027     4.0972 </r>
       <r>    -4.9127     1.4493     4.2751 </r>
       <r>    -4.7899     1.0883     4.4086 </r>
       <r>    -4.6672     1.3746     4.5773 </r>
       <r>    -4.5445     1.5898     4.7725 </r>
       <r>    -4.4218     1.5415     4.9616 </r>
       <r>    -4.2990     1.4935     5.1449 </r>
       <r>    -4.1763     1.3480     5.3104 </r>
       <r>    -4.0536     1.2289     5.4612 </r>
       <r>    -3.9308     1.9842     5.7047 </r>
       <r>    -3.8081     1.0951     5.8391 </r>
       <r>    -3.6854     1.1244     5.9771 </r>
       <r>    -3.5626     1.0208     6.1024 </r>
       <r>    -3.4399     0.9252     6.2160 </r>
       <r>    -3.3172     1.5200     6.4025 </r>
       <r>    -3.1945     1.6918     6.6102 </r>
       <r>    -3.0717     0.5750     6.6807 </r>
       <r>    -2.9490     0.9811     6.8011 </r>
       <r>    -2.8263     1.2273     6.9518 </r>
       <r>    -2.7035     1.1044     7.0873 </r>
       <r>    -2.5808     1.0352     7.2143 </r>
       <r>    -2.4581     0.5445     7.2812 </r>
       <r>    -2.3353     0.7770     7.3765 </r>
       <r>    -2.2126     0.9571     7.4940 </r>
       <r>    -2.0899     1.2169     7.6433 </r>
       <r>    -1.9672     1.3267     7.8062 </r>
       <r>    -1.8444     1.4929     7.9894 </r>
       <r>    -1.7217     1.2435     8.1420 </r>
       <r>    -1.5990     0.6396     8.2205 </r>
       <r>    -1.4762     0.8444     8.3241 </r>
       <r>    -1.3535     1.1535     8.4657 </r>
       <r>    -1.2308     0.8275     8.5673 </r>
       <r>    -1.1080     0.8492     8.6715 </r>
       <r>    -0.9853     1.8234     8.8953 </r>
       <r>    -0.8626     1.5334     9.0835 </r>
       <r>    -0.7399     1.7861     9.3027 </r>
       <r>    -0.6171     2.3524     9.5914 </r>
       <r>    -0.4944     2.2388     9.8662 </r>
       <r>    -0.3717     2.1256    10.1270 </r>
       <r>    -0.2489     1.4143    10.3006 </r>
       <r>    -0.1262     2.0098    10.5473 </r>
       <r>    -0.0035     2.2197    10.8197 </r>
       <r>     0.1193     2.4623    11.1219 </r>
       <r>     0.2420     1.7349    11.3348 </r>
       <r>     0.3647     1.5639    11.5267 </r>
       <r>     0.4874     0.7807    11.6226 </r>
       <r>     0.6102     1.0509    11.7515 </r>
       <r>     0.7329     1.5461    11.9413 </r>
       <r>     0.8556     0.8506    12.0457 </r>
       <r>     0.9784     1.3606    12.2127 </r>
       <r>     1.1011     1.2121    12.3614 </r>
       <r>     1.2238     1.5623    12.5532 </r>
       <r>     1.3466     1.0237    12.6788 </r>
       <r>     1.4693     0.8179    12.7792 </r>
       <r>     1.5920     1.2968    12.9383 </r>
       <r>     1.7147     1.3477    13.1037 </r>
       <r>     1.8375     1.0520    13.2328 </r>
       <r>     1.9602     1.2882    13.3910 </r>
       <r>     2.0829     1.8052    13.6125 </r>
       <r>     2.2057     2.0122    13.8595 </r>
       <r>     2.3284     2.0228    14.1077 </r>
       <r>     2.4511     2.3189    14.3923 </r>
       <r>     2.5739     2.0475    14.6436 </r>
       <r>     2.6966     2.3195    14.9283 </r>
       <r>     2.8193     1.9063    15.1622 </r>
       <r>     2.9420     1.7007    15.3710 </r>
       <r>     3.0648     1.2630    15.5260 </r>
       <r>     3.1875     2.2212    15.7986 </r>
       <r>     3.3102     2.8011    16.1423 </r>
       <r>     3.4330     2.9774    16.5078 </r>
       <r>     3.5557     1.1616    16.6503 </r>
       <r>     3.6784     1.8175    16.8734 </r>
       <r>     3.8012     2.2445    17.1489 </r>
       <r>     3.9239     2.2888    17.4298 </r>
       <r>     4.0466     2.7518    17.7675 </r>
       <r>     4.1693     2.4878    18.0728 </r>
       <r>     4.2921     2.2078    18.3438 </r>
       <r>     4.4148     1.8234    18.5676 </r>
       <r>     4.5375     2.9482    18.9294 </r>
       <r>     4.6603     3.3015    19.3346 </r>
       <r>     4.7830     3.3630    19.7474 </r>
       <r>     4.9057     2.9229    20.1061 </r>
       <r>     5.0285     2.7295    20.4411 </r>
       <r>     5.1512     2.7553    20.7792 </r>
       <r>     5.2739     2.7574    21.1177 </r>
       <r>     5.3966     4.1671    21.6291 </r>
       <r>     5.5194     3.9948    22.1194 </r>
       <r>     5.6421     2.0788    22.3745 </r>
       <r>     5.7648     1.8092    22.5965 </r>
       <r>     5.8876     3.2670    22.9975 </r>
       <r>     6.0103     3.0877    23.3765 </r>
       <r>     6.1330     3.9736    23.8641 </r>
       <r>     6.2558     2.3284    24.1499 </r>
       <r>     6.3785     2.3995    24.4444 </r>
       <r>     6.5012     3.1123    24.8264 </r>
       <r>     6.6239     2.6513    25.1518 </r>
       <r>     6.7467     2.5511    25.4649 </r>
       <r>     6.8694     3.2190    25.8599 </r>
       <r>     6.9921     2.5392    26.1716 </r>
       <r>     7.1149     2.2235    26.4445 </r>
       <r>     7.2376     2.9151    26.8022 </r>
       <r>     7.3603     3.4026    27.2198 </r>
       <r>     7.4830     2.1874    27.4883 </r>
       <r>     7.6058     2.1180    27.7482 </r>
       <r>     7.7285     2.6637    28.0752 </r>
       <r>     7.8512     2.0498    28.3267 </r>
       <r>     7.9740     3.7026    28.7812 </r>
       <r>     8.0967     2.7429    29.1178 </r>
       <r>     8.2194     1.5435    29.3072 </r>
       <r>     8.3422     1.5564    29.4982 </r>
       <r>     8.4649     2.5581    29.8122 </r>
       <r>     8.5876     2.0564    30.0646 </r>
       <r>     8.7103     1.8941    30.2970 </r>
       <r>     8.8331     1.1607    30.4395 </r>
       <r>     8.9558     0.7334    30.5295 </r>
       <r>     9.0785     1.3237    30.6920 </r>
       <r>     9.2013     1.6878    30.8991 </r>
       <r>     9.3240     1.2240    31.0493 </r>
       <r>     9.4467     0.8217    31.1502 </r>
       <r>     9.5695     0.6943    31.2354 </r>
       <r>     9.6922     0.6438    31.3144 </r>
       <r>     9.8149     1.1781    31.4590 </r>
       <r>     9.9376     0.8278    31.5606 </r>
       <r>    10.0604     0.5078    31.6229 </r>
       <r>    10.1831     0.5530    31.6908 </r>
       <r>    10.3058     0.4731    31.7488 </r>
       <r>    10.4286     0.6407    31.8275 </r>
       <r>    10.5513     0.3333    31.8684 </r>
       <r>    10.6740     0.4591    31.9247 </r>
       <r>    10.7968     0.2185    31.9515 </r>
       <r>    10.9195     0.2414    31.9812 </r>
       <r>    11.0422     0.1351    31.9977 </r>
       <r>    11.1649     0.0184    32.0000 </r>
       <r>    11.2877     0.0000    32.0000 </r>
       <r>    11.4104     0.0000    32.0000 </r>
       <r>    11.5331     0.0000    32.0000 </r>
       <r>    11.6559     0.0000    32.0000 </r>
       <r>    11.7786     0.0000    32.0000 </r>
       <r>    11.9013     0.0000    32.0000 </r>
       <r>    12.0241     0.0000    32.0000 </r>
       <r>    12.1468     0.0000    32.0000 </r>
       <r>    12.2695     0.0000    32.0000 </r>
       <r>    12.3922     0.0000    32.0000 </r>
       <r>    12.5150     0.0000    32.0000 </r>
       <r>    12.6377     0.0000    32.0000 </r>
       <r>    12.7604     0.0000    32.0000 </r>
       <r>    12.8832     0.0000    32.0000 </r>
       <r>    13.0059     0.0000    32.0000 </r>
       <r>    13.1286     0.0000    32.0000 </r>
       <r>    13.2514     0.0000    32.0000 </r>
       <r>    13.3741     0.0000    32.0000 </r>
       <r>    13.4968     0.0000    32.0000 </r>
       <r>    13.6195     0.0000    32.0000 </r>
       <r>    13.7423     0.0000    32.0000 </r>
       <r>    13.8650     0.0000    32.0000 </r>
       <r>    13.9877     0.0000    32.0000 </r>
       <r>    14.1105     0.0000    32.0000 </r>
       <r>    14.2332     0.0000    32.0000 </r>
       <r>    14.3559     0.0000    32.0000 </r>
       <r>    14.4787     0.0000    32.0000 </r>
       <r>    14.6014     0.0000    32.0000 </r>
       <r>    14.7241     0.0000    32.0000 </r>
       <r>    14.8468     0.0000    32.0000 </r>
       <r>    14.9696     0.0000    32.0000 </r>
       <r>    15.0923     0.0000    32.0000 </r>
       <r>    15.2150     0.0109    32.0013 </r>
       <r>    15.3378     0.2557    32.0327 </r>
       <r>    15.4605     0.2482    32.0632 </r>
       <r>    15.5832     0.2582    32.0949 </r>
       <r>    15.7060     0.6749    32.1777 </r>
       <r>    15.8287     0.6766    32.2607 </r>
       <r>    15.9514     1.0364    32.3879 </r>
       <r>    16.0741     0.8285    32.4896 </r>
       <r>    16.1969     0.5995    32.5632 </r>
       <r>    16.3196     1.1178    32.7004 </r>
       <r>    16.4423     1.5365    32.8889 </r>
       <r>    16.5651     1.7047    33.0982 </r>
       <r>    16.6878     1.6776    33.3040 </r>
       <r>    16.8105     1.6504    33.5066 </r>
       <r>    16.9333     1.4098    33.6796 </r>
       <r>    17.0560     1.6410    33.8810 </r>
       <r>    17.1787     1.6573    34.0844 </r>
       <r>    17.3014     1.7643    34.3010 </r>
       <r>    17.4242     2.9543    34.6635 </r>
       <r>    17.5469     2.2108    34.9349 </r>
       <r>    17.6696     1.9841    35.1784 </r>
       <r>    17.7924     1.6769    35.3842 </r>
       <r>    17.9151     2.1799    35.6517 </r>
       <r>    18.0378     2.8300    35.9990 </r>
       <r>    18.1606     2.5079    36.3068 </r>
       <r>    18.2833     2.2469    36.5826 </r>
       <r>    18.4060     1.9583    36.8229 </r>
       <r>    18.5287     2.8776    37.1761 </r>
       <r>    18.6515     3.0144    37.5461 </r>
       <r>    18.7742     3.3317    37.9550 </r>
       <r>    18.8969     4.0493    38.4519 </r>
       <r>    19.0197     3.2310    38.8485 </r>
       <r>    19.1424     3.2297    39.2448 </r>
       <r>    19.2651     3.1442    39.6307 </r>
       <r>    19.3878     3.8188    40.0994 </r>
       <r>    19.5106     3.8623    40.5734 </r>
       <r>    19.6333     3.5317    41.0069 </r>
       <r>    19.7560     4.5725    41.5681 </r>
       <r>    19.8788     5.0903    42.1928 </r>
       <r>    20.0015     3.9492    42.6775 </r>
       <r>    20.1242     2.9478    43.0393 </r>
       <r>    20.2470     3.2495    43.4381 </r>
       <r>    20.3697     2.7018    43.7697 </r>
       <r>    20.4924     2.5878    44.0873 </r>
       <r>    20.6151     2.1983    44.3571 </r>
       <r>    20.7379     2.7269    44.6917 </r>
       <r>    20.8606     3.4728    45.1179 </r>
       <r>    20.9833     3.6177    45.5619 </r>
       <r>    21.1061     2.9067    45.9187 </r>
       <r>    21.2288     2.4192    46.2156 </r>
       <r>    21.3515     2.1529    46.4798 </r>
       <r>    21.4743     2.3494    46.7682 </r>
       <r>    21.5970     1.5618    46.9598 </r>
       <r>    21.7197     1.3005    47.1194 </r>
       <r>    21.8424     1.7016    47.3283 </r>
       <r>    21.9652     1.5567    47.5193 </r>
       <r>    22.0879     1.3118    47.6803 </r>
       <r>    22.2106     1.0772    47.8125 </r>
       <r>    22.3334     0.6263    47.8894 </r>
       <r>    22.4561     0.4746    47.9476 </r>
       <r>    22.5788     0.1399    47.9648 </r>
       <r>    22.7016     0.0017    47.9650 </r>
       <r>    22.8243     0.0026    47.9653 </r>
       <r>    22.9470     0.1146    47.9794 </r>
       <r>    23.0697     0.1661    47.9998 </r>
       <r>    23.1925     0.0017    48.0000 </r>
       <r>    23.3152     0.0000    48.0000 </r>
       <r>    23.4379     0.0000    48.0000 </r>
       <r>    23.5607     0.0000    48.0000 </r>
       <r>    23.6834     0.0000    48.0000 </r>
       <r>    23.8061     0.0000    48.0000 </r>
       <r>    23.9289     0.0000    48.0000 </r>
       <r>    24.0516     0.0000    48.0000 </r>
       <r>    24.1743     0.0000    48.0000 </r>
       <r>    24.2970     0.0000    48.0000 </r>
       <r>    24.4198     0.0000    48.0000 </r>
       <r>    24.5425     0.0000    48.0000 </r>
       <r>    24.6652     0.0000    48.0000 </r>
      </set>
     </set>
    </array>
   </total>
  </dos>
 </calculation>
 <structure name="finalpos" >
  <crystal>
   <varray name="basis" >
    <v>       3.54978104       0.00000000       0.00000000 </v>
    <v>       0.00000000       3.54978104       0.00000000 </v>
    <v>       0.00000000       0.00000000       3.57360507 </v>
   </varray>
   <i name="volume">     45.03080242 </i>
   <varray name="rec_basis" >
    <v>       0.28170752       0.00000000       0.00000000 </v>
    <v>       0.00000000       0.28170752       0.00000000 </v>
    <v>       0.00000000       0.00000000       0.27982947 </v>
   </varray>
  </crystal>
  <varray name="positions" >
   <v>       0.25000000       0.25000000       0.25000000 </v>
   <v>       0.00000000       0.00000000       0.00000000 </v>
   <v>       0.25000000       0.75000000       0.75000000 </v>
   <v>       0.00000000       0.50000000       0.50000000 </v>
   <v>       0.75000000       0.25000000       0.75000000 </v>
   <v>       0.50000000       0.00000000       0.50000000 </v>
   <v>       0.75000000       0.75000000       0.25000000 </v>
   <v>       0.50000000       0.50000000       0.00000000 </v>
  </varray>
 </structure>
</modeling>
