   2   2   0   0
  0.7830658E+02  0.2443734E-09  0.2443734E-09  0.3028239E-08  0.5000000E-15
  1.000000000000000E-004
  CAR 
 unknown system                          
     18.08599777    -24.72479497  301     -3.44426341      1.00000000
    -24.725  0.0000E+00  0.0000E+00
    -24.582  0.0000E+00  0.0000E+00
    -24.439  0.0000E+00  0.0000E+00
    -24.297  0.0000E+00  0.0000E+00
    -24.154  0.0000E+00  0.0000E+00
    -24.011  0.0000E+00  0.0000E+00
    -23.869  0.0000E+00  0.0000E+00
    -23.726  0.0000E+00  0.0000E+00
    -23.583  0.0000E+00  0.0000E+00
    -23.440  0.0000E+00  0.0000E+00
    -23.298  0.0000E+00  0.0000E+00
    -23.155  0.0000E+00  0.0000E+00
    -23.012  0.3875E-13  0.5530E-14
    -22.870  0.9941E-05  0.1419E-05
    -22.727  0.2163E-02  0.3101E-03
    -22.584  0.1952E-02  0.5886E-03
    -22.442  0.4711E-02  0.1261E-02
    -22.299  0.2065E-02  0.1556E-02
    -22.156  0.2725E-02  0.1944E-02
    -22.013  0.2866E-02  0.2353E-02
    -21.871  0.4884E-02  0.3050E-02
    -21.728  0.2329E-02  0.3383E-02
    -21.585  0.1946E-02  0.3660E-02
    -21.443  0.3534E-02  0.4165E-02
    -21.300  0.1634E-02  0.4398E-02
    -21.157  0.5905E-02  0.5241E-02
    -21.015  0.3440E-02  0.5732E-02
    -20.872  0.8583E-03  0.5854E-02
    -20.729  0.5583E-02  0.6651E-02
    -20.586  0.1155E-03  0.6667E-02
    -20.444  0.3235E-02  0.7129E-02
    -20.301  0.3430E-02  0.7618E-02
    -20.158  0.4995E-02  0.8331E-02
    -20.016  0.3731E-02  0.8863E-02
    -19.873  0.7195E-03  0.8966E-02
    -19.730  0.4855E-02  0.9659E-02
    -19.587  0.2842E-02  0.1006E-01
    -19.445  0.3399E-02  0.1055E-01
    -19.302  0.4284E-04  0.1056E-01
    -19.159  0.1219E-02  0.1073E-01
    -19.017  0.9666E-02  0.1211E-01
    -18.874  0.3408E-02  0.1260E-01
    -18.731  0.1352E-02  0.1279E-01
    -18.589  0.3722E-02  0.1332E-01
    -18.446  0.1321E-02  0.1351E-01
    -18.303  0.6290E-02  0.1441E-01
    -18.160  0.1014E-02  0.1455E-01
    -18.018  0.3643E-02  0.1507E-01
    -17.875  0.1456E-02  0.1528E-01
    -17.732  0.3066E-02  0.1572E-01
    -17.590  0.8118E-02  0.1687E-01
    -17.447  0.4668E-02  0.1754E-01
    -17.304  0.5358E-02  0.1830E-01
    -17.162  0.2026E-03  0.1833E-01
    -17.019  0.1562E-02  0.1856E-01
    -16.876  0.4256E-02  0.1916E-01
    -16.733  0.2167E-04  0.1917E-01
    -16.591  0.1219E-04  0.1917E-01
    -16.448  0.1918E-02  0.1944E-01
    -16.305  0.5976E-02  0.2030E-01
    -16.163  0.3783E-02  0.2083E-01
    -16.020  0.3537E-02  0.2134E-01
    -15.877  0.1762E-02  0.2159E-01
    -15.735  0.9688E-03  0.2173E-01
    -15.592  0.5386E-02  0.2250E-01
    -15.449  0.4358E-02  0.2312E-01
    -15.306  0.7306E-02  0.2416E-01
    -15.164  0.3703E-02  0.2469E-01
    -15.021  0.2218E-03  0.2472E-01
    -14.878  0.3260E-02  0.2519E-01
    -14.736  0.6452E-02  0.2611E-01
    -14.593  0.2000E-04  0.2611E-01
    -14.450  0.3333E-03  0.2616E-01
    -14.308  0.7358E-02  0.2721E-01
    -14.165  0.3906E-02  0.2777E-01
    -14.022  0.1019E-02  0.2791E-01
    -13.879  0.4173E-02  0.2851E-01
    -13.737  0.7315E-03  0.2861E-01
    -13.594  0.3802E-02  0.2915E-01
    -13.451  0.3980E-02  0.2972E-01
    -13.309  0.3089E-02  0.3016E-01
    -13.166  0.6742E-02  0.3112E-01
    -13.023  0.3941E-02  0.3169E-01
    -12.880  0.1794E-02  0.3194E-01
    -12.738  0.2236E-02  0.3226E-01
    -12.595  0.5355E-02  0.3303E-01
    -12.452  0.2137E-03  0.3306E-01
    -12.310  0.1850E-02  0.3332E-01
    -12.167  0.8720E-02  0.3457E-01
    -12.024  0.6761E-02  0.3553E-01
    -11.882  0.1102E-02  0.3569E-01
    -11.739  0.4151E-02  0.3628E-01
    -11.596  0.4647E-02  0.3694E-01
    -11.453  0.3146E-02  0.3739E-01
    -11.311  0.4548E-02  0.3804E-01
    -11.168  0.1345E-02  0.3823E-01
    -11.025  0.7496E-02  0.3930E-01
    -10.883  0.4722E-02  0.3998E-01
    -10.740  0.3206E-02  0.4043E-01
    -10.597  0.8553E-02  0.4165E-01
    -10.455  0.9362E-02  0.4299E-01
    -10.312  0.4390E-02  0.4362E-01
    -10.169  0.1141E-01  0.4524E-01
    -10.026  0.7780E-02  0.4636E-01
     -9.884  0.1011E-01  0.4780E-01
     -9.741  0.8422E-02  0.4900E-01
     -9.598  0.8194E-02  0.5017E-01
     -9.456  0.1016E-01  0.5162E-01
     -9.313  0.1288E-01  0.5346E-01
     -9.170  0.6397E-02  0.5437E-01
     -9.028  0.4043E-02  0.5495E-01
     -8.885  0.1248E-01  0.5673E-01
     -8.742  0.6782E-02  0.5770E-01
     -8.599  0.7833E-02  0.5881E-01
     -8.457  0.1117E-01  0.6041E-01
     -8.314  0.1406E-02  0.6061E-01
     -8.171  0.2019E-02  0.6090E-01
     -8.029  0.8374E-02  0.6209E-01
     -7.886  0.6815E-02  0.6307E-01
     -7.743  0.4944E-02  0.6377E-01
     -7.600  0.1156E-01  0.6542E-01
     -7.458  0.3271E-02  0.6589E-01
     -7.315  0.4058E-02  0.6647E-01
     -7.172  0.6708E-02  0.6742E-01
     -7.030  0.8185E-02  0.6859E-01
     -6.887  0.3636E-03  0.6864E-01
     -6.744  0.3377E-02  0.6913E-01
     -6.602  0.9014E-02  0.7041E-01
     -6.459  0.6987E-02  0.7141E-01
     -6.316  0.6157E-02  0.7229E-01
     -6.173  0.6566E-02  0.7322E-01
     -6.031  0.1199E-02  0.7340E-01
     -5.888  0.4198E-02  0.7399E-01
     -5.745  0.4514E-02  0.7464E-01
     -5.603  0.4496E-02  0.7528E-01
     -5.460  0.3669E-02  0.7580E-01
     -5.317  0.1524E-02  0.7602E-01
     -5.175  0.6622E-02  0.7697E-01
     -5.032  0.9570E-02  0.7833E-01
     -4.889  0.8276E-05  0.7833E-01
     -4.746  0.4479E-06  0.7833E-01
     -4.604  0.2483E-02  0.7869E-01
     -4.461  0.1538E-02  0.7891E-01
     -4.318  0.1807E-02  0.7917E-01
     -4.176  0.1124E-03  0.7918E-01
     -4.033  0.1830E-02  0.7944E-01
     -3.890  0.1615E-04  0.7944E-01
     -3.748  0.2624E-02  0.7982E-01
     -3.605  0.1269E-02  0.8000E-01
     -3.462  0.1402E-07  0.8000E-01
     -3.319  0.0000E+00  0.8000E-01
     -3.177  0.0000E+00  0.8000E-01
     -3.034  0.0000E+00  0.8000E-01
     -2.891  0.0000E+00  0.8000E-01
     -2.749  0.0000E+00  0.8000E-01
     -2.606  0.6714E-11  0.8000E-01
     -2.463  0.1190E-03  0.8002E-01
     -2.320  0.3715E-02  0.8055E-01
     -2.178  0.9802E-04  0.8056E-01
     -2.035  0.1861E-02  0.8083E-01
     -1.892  0.4650E-04  0.8083E-01
     -1.750  0.1517E-02  0.8105E-01
     -1.607  0.4315E-02  0.8167E-01
     -1.464  0.3183E-03  0.8171E-01
     -1.322  0.7021E-02  0.8271E-01
     -1.179  0.6434E-02  0.8363E-01
     -1.036  0.6088E-02  0.8450E-01
     -0.893  0.3522E-02  0.8500E-01
     -0.751  0.3958E-02  0.8557E-01
     -0.608  0.3800E-02  0.8611E-01
     -0.465  0.1196E-04  0.8611E-01
     -0.323  0.1204E-02  0.8628E-01
     -0.180  0.6564E-02  0.8722E-01
     -0.037  0.1834E-04  0.8722E-01
      0.105  0.1785E-02  0.8748E-01
      0.248  0.6857E-02  0.8846E-01
      0.391  0.3208E-02  0.8891E-01
      0.534  0.6947E-02  0.8990E-01
      0.676  0.5617E-02  0.9071E-01
      0.819  0.3471E-02  0.9120E-01
      0.962  0.4875E-02  0.9190E-01
      1.104  0.2731E-02  0.9229E-01
      1.247  0.1104E-01  0.9386E-01
      1.390  0.1253E-01  0.9565E-01
      1.532  0.8249E-02  0.9683E-01
      1.675  0.1312E-01  0.9870E-01
      1.818  0.7471E-02  0.9977E-01
      1.961  0.1505E-01  0.1019E+00
      2.103  0.9699E-02  0.1033E+00
      2.246  0.1531E-01  0.1055E+00
      2.389  0.1756E-01  0.1080E+00
      2.531  0.1637E-01  0.1103E+00
      2.674  0.1853E-01  0.1130E+00
      2.817  0.1222E-01  0.1147E+00
      2.960  0.1721E-01  0.1172E+00
      3.102  0.1626E-01  0.1195E+00
      3.245  0.1164E-01  0.1211E+00
      3.388  0.2433E-01  0.1246E+00
      3.530  0.1109E-01  0.1262E+00
      3.673  0.2120E-01  0.1292E+00
      3.816  0.2360E-01  0.1326E+00
      3.958  0.2157E-01  0.1357E+00
      4.101  0.1532E-01  0.1379E+00
      4.244  0.1975E-01  0.1407E+00
      4.387  0.2312E-01  0.1440E+00
      4.529  0.2193E-01  0.1471E+00
      4.672  0.2167E-01  0.1502E+00
      4.815  0.3168E-01  0.1547E+00
      4.957  0.2305E-01  0.1580E+00
      5.100  0.3239E-01  0.1626E+00
      5.243  0.2094E-01  0.1656E+00
      5.385  0.4058E-01  0.1714E+00
      5.528  0.3220E-01  0.1760E+00
      5.671  0.3845E-01  0.1815E+00
      5.814  0.2159E-01  0.1846E+00
      5.956  0.3433E-01  0.1895E+00
      6.099  0.3037E-01  0.1938E+00
      6.242  0.3816E-01  0.1993E+00
      6.384  0.3628E-01  0.2044E+00
      6.527  0.2880E-01  0.2085E+00
      6.670  0.2267E-01  0.2118E+00
      6.812  0.3601E-01  0.2169E+00
      6.955  0.2957E-01  0.2211E+00
      7.098  0.2211E-01  0.2243E+00
      7.241  0.3050E-01  0.2286E+00
      7.383  0.3215E-01  0.2332E+00
      7.526  0.3366E-01  0.2380E+00
      7.669  0.3960E-01  0.2437E+00
      7.811  0.4204E-01  0.2497E+00
      7.954  0.3510E-01  0.2547E+00
      8.097  0.2503E-01  0.2583E+00
      8.240  0.3291E-01  0.2630E+00
      8.382  0.3026E-01  0.2673E+00
      8.525  0.4205E-01  0.2733E+00
      8.668  0.3492E-01  0.2783E+00
      8.810  0.2991E-01  0.2825E+00
      8.953  0.2733E-01  0.2864E+00
      9.096  0.3029E-01  0.2908E+00
      9.238  0.3574E-01  0.2959E+00
      9.381  0.4734E-01  0.3026E+00
      9.524  0.3091E-01  0.3070E+00
      9.667  0.2696E-01  0.3109E+00
      9.809  0.4280E-01  0.3170E+00
      9.952  0.3513E-01  0.3220E+00
     10.095  0.4413E-01  0.3283E+00
     10.237  0.3477E-01  0.3332E+00
     10.380  0.4711E-01  0.3400E+00
     10.523  0.3687E-01  0.3452E+00
     10.665  0.3160E-01  0.3497E+00
     10.808  0.4012E-01  0.3555E+00
     10.951  0.2629E-01  0.3592E+00
     11.094  0.5498E-01  0.3671E+00
     11.236  0.4103E-01  0.3729E+00
     11.379  0.4069E-01  0.3787E+00
     11.522  0.3673E-01  0.3840E+00
     11.664  0.2790E-01  0.3879E+00
     11.807  0.5213E-01  0.3954E+00
     11.950  0.2348E-01  0.3987E+00
     12.092  0.3405E-01  0.4036E+00
     12.235  0.3603E-01  0.4087E+00
     12.378  0.4135E-01  0.4146E+00
     12.521  0.3428E-01  0.4195E+00
     12.663  0.3419E-01  0.4244E+00
     12.806  0.5602E-01  0.4324E+00
     12.949  0.2592E-01  0.4361E+00
     13.091  0.2748E-01  0.4400E+00
     13.234  0.2659E-01  0.4438E+00
     13.377  0.2280E-01  0.4471E+00
     13.520  0.2833E-01  0.4511E+00
     13.662  0.2703E-01  0.4550E+00
     13.805  0.2819E-01  0.4590E+00
     13.948  0.2548E-01  0.4626E+00
     14.090  0.2005E-01  0.4655E+00
     14.233  0.2529E-01  0.4691E+00
     14.376  0.1215E-01  0.4708E+00
     14.518  0.1755E-01  0.4733E+00
     14.661  0.1571E-01  0.4756E+00
     14.804  0.5676E-02  0.4764E+00
     14.947  0.3834E-02  0.4769E+00
     15.089  0.4338E-02  0.4776E+00
     15.232  0.5760E-02  0.4784E+00
     15.375  0.2249E-02  0.4787E+00
     15.517  0.3240E-02  0.4792E+00
     15.660  0.4177E-05  0.4792E+00
     15.803  0.4177E-03  0.4792E+00
     15.945  0.3465E-02  0.4797E+00
     16.088  0.1485E-03  0.4797E+00
     16.231  0.1798E-02  0.4800E+00
     16.374  0.9941E-05  0.4800E+00
     16.516  0.3875E-13  0.4800E+00
     16.659  0.0000E+00  0.4800E+00
     16.802  0.0000E+00  0.4800E+00
     16.944  0.0000E+00  0.4800E+00
     17.087  0.0000E+00  0.4800E+00
     17.230  0.0000E+00  0.4800E+00
     17.372  0.0000E+00  0.4800E+00
     17.515  0.0000E+00  0.4800E+00
     17.658  0.0000E+00  0.4800E+00
     17.801  0.0000E+00  0.4800E+00
     17.943  0.0000E+00  0.4800E+00
     18.086  0.0000E+00  0.4800E+00
