       N       E                     dE             d eps       ncg     rms          rms(c)
RMM:   1     0.103031177267E+03    0.10303E+03   -0.15276E+03  1008   0.229E+02
RMM:   2     0.500394163061E+02   -0.52992E+02   -0.29515E+02  1008   0.452E+01
RMM:   3     0.845356618039E+01   -0.41586E+02   -0.21083E+02  1008   0.370E+01
RMM:   4    -0.137911549487E+02   -0.22245E+02   -0.12831E+02  1008   0.345E+01
RMM:   5    -0.185132633513E+02   -0.47221E+01   -0.36826E+01  1008   0.212E+01
RMM:   6    -0.195203473851E+02   -0.10071E+01   -0.82733E+00  1008   0.108E+01
RMM:   7    -0.197495000749E+02   -0.22915E+00   -0.19078E+00  1008   0.543E+00
RMM:   8    -0.198096998529E+02   -0.60200E-01   -0.49454E-01  1008   0.279E+00
RMM:   9    -0.198321704965E+02   -0.22471E-01   -0.19619E-01  2027   0.149E+00
RMM:  10    -0.198359599088E+02   -0.37894E-02   -0.32514E-02  2064   0.507E-01
RMM:  11    -0.198361167783E+02   -0.15687E-03   -0.12136E-03  2029   0.996E-02
RMM:  12    -0.198361421411E+02   -0.25363E-04   -0.20428E-04  2057   0.380E-02    0.945E+00
RMM:  13    -0.188646310673E+02    0.97151E+00   -0.48023E-01  2016   0.196E+00    0.619E+00
RMM:  14    -0.185002873311E+02    0.36434E+00   -0.10140E+00  2016   0.277E+00    0.126E+00
RMM:  15    -0.184774084350E+02    0.22879E-01   -0.28175E-02  2024   0.599E-01    0.131E-01
RMM:  16    -0.184756489906E+02    0.17594E-02   -0.45646E-04  2026   0.811E-02    0.861E-02
RMM:  17    -0.184741366770E+02    0.15123E-02   -0.60289E-04  2017   0.617E-02    0.631E-02
RMM:  18    -0.184740352955E+02    0.10138E-03   -0.18478E-04  2016   0.496E-02    0.630E-02
RMM:  19    -0.184745169394E+02   -0.48164E-03   -0.15580E-04  2016   0.327E-02    0.172E-02
RMM:  20    -0.184747965658E+02   -0.27963E-03   -0.56792E-06  2023   0.666E-03    0.220E-02
RMM:  21    -0.184754017221E+02   -0.60516E-03   -0.51269E-05  2016   0.153E-02    0.680E-03
RMM:  22    -0.184754908872E+02   -0.89165E-04   -0.26161E-06  1973   0.330E-03    0.373E-03
RMM:  23    -0.184755208332E+02   -0.29946E-04   -0.88582E-07  2016   0.246E-03    0.929E-04
RMM:  24    -0.184755350052E+02   -0.14172E-04   -0.12631E-07  1890   0.699E-04    0.675E-04
RMM:  25    -0.184755373160E+02   -0.23107E-05   -0.90959E-09  1827   0.294E-04    0.160E-04
RMM:  26    -0.184755397831E+02   -0.24671E-05   -0.13216E-08  1830   0.255E-04    0.404E-04
RMM:  27    -0.184755405696E+02   -0.78648E-06   -0.29218E-09  1812   0.168E-04    0.309E-04
RMM:  28    -0.184755409433E+02   -0.37370E-06   -0.44101E-10  1674   0.676E-05    0.830E-05
RMM:  29    -0.184755410001E+02   -0.56757E-07   -0.73159E-11  1634   0.610E-05
   1 F= -.18584019E+02 E0= -.18584019E+02  d E =-.185840E+02
