<?xml version="1.0" encoding="ISO-8859-1"?>
<modeling>
 <generator>
  <i name="program" type="string">vasp </i>
  <i name="version" type="string">5.4.4.18Apr17-6-g9f103f2a35  </i>
  <i name="subversion" type="string">(build Jan 14 2019 14:48:31) complex            parallel </i>
  <i name="platform" type="string">LinuxIFC </i>
  <i name="date" type="string">2019 09 10 </i>
  <i name="time" type="string">15:53:06 </i>
 </generator>
 <incar>
  <i type="int" name="ISTART">     1</i>
  <i type="string" name="PREC">high</i>
  <i type="string" name="ALGO">very</i>
  <i type="int" name="NELM">    40</i>
  <i type="int" name="IBRION">     2</i>
  <i name="EDIFF">      0.00000010</i>
  <i name="EDIFFG">     -0.01000000</i>
  <i type="int" name="NSW">   100</i>
  <i type="logical" name="LREAL"> F  </i>
  <i type="int" name="ISMEAR">     0</i>
  <i name="SIGMA">      0.05000000</i>
  <i type="logical" name="LWAVE"> F  </i>
  <i type="logical" name="LCHARG"> F  </i>
  <v type="int" name="KPOINT_BSE">    -1     0     0     0</v>
  <i type="int" name="NELM">    40</i>
 </incar>
 <structure name="primitive_cell" >
  <crystal>
   <varray name="basis" >
    <v>       1.22186484      -2.11633731       0.00000000 </v>
    <v>       1.22186484       2.11633731       0.00000000 </v>
    <v>       0.00000000       0.00000000      30.28239374 </v>
   </varray>
   <i name="volume">    156.61316106 </i>
   <varray name="rec_basis" >
    <v>       0.40921056      -0.23625723       0.00000000 </v>
    <v>       0.40921056       0.23625723       0.00000000 </v>
    <v>       0.00000000       0.00000000       0.03302249 </v>
   </varray>
  </crystal>
  <varray name="positions" >
   <v>       0.00000262      -0.00000262      -0.50000000 </v>
   <v>      -0.33333262       0.33333262      -0.50000000 </v>
  </varray>
 </structure>
 <varray name="primitive_index" >
  <v type="int" >        1 </v>
  <v type="int" >        2 </v>
 </varray>
 <kpoints>
  <generation param="Monkhorst-Pack">
   <v type="int" name="divisions">      12       12        1 </v>
   <v name="usershift">      0.00000000       0.00000000       0.00000000 </v>
   <v name="genvec1">      0.08333333       0.00000000       0.00000000 </v>
   <v name="genvec2">      0.00000000       0.08333333       0.00000000 </v>
   <v name="genvec3">      0.00000000       0.00000000       1.00000000 </v>
   <v name="shift">      0.50000000       0.50000000       0.00000000 </v>
  </generation>
  <varray name="kpointlist" >
   <v>       0.04166667       0.04166667       0.00000000 </v>
   <v>       0.12500000       0.04166667       0.00000000 </v>
   <v>       0.20833333       0.04166667       0.00000000 </v>
   <v>       0.29166667       0.04166667       0.00000000 </v>
   <v>       0.37500000       0.04166667       0.00000000 </v>
   <v>       0.45833333       0.04166667       0.00000000 </v>
   <v>      -0.45833333       0.04166667       0.00000000 </v>
   <v>      -0.37500000       0.04166667       0.00000000 </v>
   <v>      -0.29166667       0.04166667       0.00000000 </v>
   <v>      -0.20833333       0.04166667       0.00000000 </v>
   <v>      -0.12500000       0.04166667       0.00000000 </v>
   <v>      -0.04166667       0.04166667       0.00000000 </v>
   <v>       0.12500000       0.12500000       0.00000000 </v>
   <v>       0.20833333       0.12500000       0.00000000 </v>
   <v>       0.29166667       0.12500000       0.00000000 </v>
   <v>       0.37500000       0.12500000       0.00000000 </v>
   <v>       0.45833333       0.12500000       0.00000000 </v>
   <v>      -0.45833333       0.12500000       0.00000000 </v>
   <v>      -0.37500000       0.12500000       0.00000000 </v>
   <v>      -0.29166667       0.12500000       0.00000000 </v>
   <v>      -0.20833333       0.12500000       0.00000000 </v>
   <v>      -0.12500000       0.12500000       0.00000000 </v>
   <v>       0.20833333       0.20833333       0.00000000 </v>
   <v>       0.29166667       0.20833333       0.00000000 </v>
   <v>       0.37500000       0.20833333       0.00000000 </v>
   <v>       0.45833333       0.20833333       0.00000000 </v>
   <v>      -0.45833333       0.20833333       0.00000000 </v>
   <v>      -0.37500000       0.20833333       0.00000000 </v>
   <v>      -0.29166667       0.20833333       0.00000000 </v>
   <v>      -0.20833333       0.20833333       0.00000000 </v>
   <v>       0.29166667       0.29166667       0.00000000 </v>
   <v>       0.37500000       0.29166667       0.00000000 </v>
   <v>       0.45833333       0.29166667       0.00000000 </v>
   <v>      -0.45833333       0.29166667       0.00000000 </v>
   <v>      -0.37500000       0.29166667       0.00000000 </v>
   <v>      -0.29166667       0.29166667       0.00000000 </v>
   <v>       0.37500000       0.37500000       0.00000000 </v>
   <v>       0.45833333       0.37500000       0.00000000 </v>
   <v>      -0.45833333       0.37500000       0.00000000 </v>
   <v>      -0.37500000       0.37500000       0.00000000 </v>
   <v>       0.45833333       0.45833333       0.00000000 </v>
   <v>      -0.45833333       0.45833333       0.00000000 </v>
  </varray>
  <varray name="weights" >
   <v>       0.01388889 </v>
   <v>       0.02777778 </v>
   <v>       0.02777778 </v>
   <v>       0.02777778 </v>
   <v>       0.02777778 </v>
   <v>       0.02777778 </v>
   <v>       0.02777778 </v>
   <v>       0.02777778 </v>
   <v>       0.02777778 </v>
   <v>       0.02777778 </v>
   <v>       0.02777778 </v>
   <v>       0.01388889 </v>
   <v>       0.01388889 </v>
   <v>       0.02777778 </v>
   <v>       0.02777778 </v>
   <v>       0.02777778 </v>
   <v>       0.02777778 </v>
   <v>       0.02777778 </v>
   <v>       0.02777778 </v>
   <v>       0.02777778 </v>
   <v>       0.02777778 </v>
   <v>       0.01388889 </v>
   <v>       0.01388889 </v>
   <v>       0.02777778 </v>
   <v>       0.02777778 </v>
   <v>       0.02777778 </v>
   <v>       0.02777778 </v>
   <v>       0.02777778 </v>
   <v>       0.02777778 </v>
   <v>       0.01388889 </v>
   <v>       0.01388889 </v>
   <v>       0.02777778 </v>
   <v>       0.02777778 </v>
   <v>       0.02777778 </v>
   <v>       0.02777778 </v>
   <v>       0.01388889 </v>
   <v>       0.01388889 </v>
   <v>       0.02777778 </v>
   <v>       0.02777778 </v>
   <v>       0.01388889 </v>
   <v>       0.01388889 </v>
   <v>       0.01388889 </v>
  </varray>
 </kpoints>
 <parameters>
  <separator name="general" >
   <i type="string" name="SYSTEM">unknown system</i>
   <i type="logical" name="LCOMPAT"> F  </i>
  </separator>
  <separator name="electronic" >
   <i type="string" name="PREC">high</i>
   <i name="ENMAX">    875.00000000</i>
   <i name="ENAUG">    946.76800000</i>
   <i name="EDIFF">      0.00000010</i>
   <i type="int" name="IALGO">    48</i>
   <i type="int" name="IWAVPR">    11</i>
   <i type="int" name="NBANDS">    24</i>
   <i name="NELECT">      8.00000000</i>
   <i type="int" name="TURBO">     0</i>
   <i type="int" name="IRESTART">     0</i>
   <i type="int" name="NREBOOT">     0</i>
   <i type="int" name="NMIN">     0</i>
   <i name="EREF">      0.00000000</i>
   <separator name="electronic smearing" >
    <i type="int" name="ISMEAR">     0</i>
    <i name="SIGMA">      0.05000000</i>
    <i name="KSPACING">      0.50000000</i>
    <i type="logical" name="KGAMMA"> T  </i>
   </separator>
   <separator name="electronic projectors" >
    <i type="logical" name="LREAL"> F  </i>
    <v name="ROPT">      0.00000000</v>
    <i type="int" name="LMAXPAW">  -100</i>
    <i type="int" name="LMAXMIX">     2</i>
    <i type="logical" name="NLSPLINE"> F  </i>
   </separator>
   <separator name="electronic startup" >
    <i type="int" name="ISTART">     0</i>
    <i type="int" name="ICHARG">     2</i>
    <i type="int" name="INIWAV">     1</i>
   </separator>
   <separator name="electronic spin" >
    <i type="int" name="ISPIN">     1</i>
    <i type="logical" name="LNONCOLLINEAR"> F  </i>
    <v name="MAGMOM">      1.00000000      1.00000000</v>
    <i name="NUPDOWN">     -1.00000000</i>
    <i type="logical" name="LSORBIT"> F  </i>
    <v name="SAXIS">      0.00000000      0.00000000      1.00000000</v>
    <i type="logical" name="LSPIRAL"> F  </i>
    <v name="QSPIRAL">      0.00000000      0.00000000      0.00000000</v>
    <i type="logical" name="LZEROZ"> F  </i>
   </separator>
   <separator name="electronic exchange-correlation" >
    <i type="logical" name="LASPH"> F  </i>
    <i type="logical" name="LMETAGGA"> F  </i>
   </separator>
   <separator name="electronic convergence" >
    <i type="int" name="NELM">    40</i>
    <i type="int" name="NELMDL">     0</i>
    <i type="int" name="NELMIN">     2</i>
    <i name="ENINI">    875.00000000</i>
    <separator name="electronic convergence detail" >
     <i type="logical" name="LDIAG"> T  </i>
     <i type="logical" name="LSUBROT"> F  </i>
     <i name="WEIMIN">      0.00100000</i>
     <i name="EBREAK">      0.00000000</i>
     <i name="DEPER">      0.30000000</i>
     <i type="int" name="NRMM">     4</i>
     <i name="TIME">      0.40000000</i>
    </separator>
   </separator>
   <separator name="electronic mixer" >
    <i name="AMIX">      0.40000000</i>
    <i name="BMIX">      1.00000000</i>
    <i name="AMIN">      0.10000000</i>
    <i name="AMIX_MAG">      1.60000000</i>
    <i name="BMIX_MAG">      1.00000000</i>
    <separator name="electronic mixer details" >
     <i type="int" name="IMIX">     4</i>
     <i type="logical" name="MIXFIRST"> F  </i>
     <i type="int" name="MAXMIX">   -45</i>
     <i name="WC">    100.00000000</i>
     <i type="int" name="INIMIX">     1</i>
     <i type="int" name="MIXPRE">     1</i>
     <i type="int" name="MREMOVE">     5</i>
    </separator>
   </separator>
   <separator name="electronic dipolcorrection" >
    <i type="logical" name="LDIPOL"> F  </i>
    <i type="logical" name="LMONO"> F  </i>
    <i type="int" name="IDIPOL">     0</i>
    <i name="EPSILON">      1.00000000</i>
    <v name="DIPOL">   -100.00000000   -100.00000000   -100.00000000</v>
    <i name="EFIELD">      0.00000000</i>
   </separator>
  </separator>
  <separator name="grids" >
   <i type="int" name="NGX">    24</i>
   <i type="int" name="NGY">    24</i>
   <i type="int" name="NGZ">   294</i>
   <i type="int" name="NGXF">    32</i>
   <i type="int" name="NGYF">    32</i>
   <i type="int" name="NGZF">   420</i>
   <i type="logical" name="ADDGRID"> F  </i>
  </separator>
  <separator name="ionic" >
   <i type="int" name="NSW">   100</i>
   <i type="int" name="IBRION">     2</i>
   <i type="int" name="MDALGO">     0</i>
   <i type="int" name="ISIF">     2</i>
   <i name="PSTRESS">      0.00000000</i>
   <i name="EDIFFG">     -0.01000000</i>
   <i type="int" name="NFREE">     1</i>
   <i name="POTIM">      0.50000000</i>
   <i name="SMASS">     -3.00000000</i>
   <i name="SCALEE">      1.00000000</i>
  </separator>
  <separator name="ionic md" >
   <i name="TEBEG">      0.00010000</i>
   <i name="TEEND">      0.00010000</i>
   <i type="int" name="NBLOCK">     1</i>
   <i type="int" name="KBLOCK">   100</i>
   <i type="int" name="NPACO">   256</i>
   <i name="APACO">     16.00000000</i>
  </separator>
  <separator name="symmetry" >
   <i type="int" name="ISYM">     2</i>
   <i name="SYMPREC">      0.00001000</i>
  </separator>
  <separator name="dos" >
   <i type="int" name="LORBIT">     0</i>
   <v name="RWIGS">     -1.00000000</v>
   <i type="int" name="NEDOS">   301</i>
   <i name="EMIN">     10.00000000</i>
   <i name="EMAX">    -10.00000000</i>
   <i name="EFERMI">      0.00000000</i>
  </separator>
  <separator name="writing" >
   <i type="int" name="NWRITE">     2</i>
   <i type="logical" name="LWAVE"> F  </i>
   <i type="logical" name="LDOWNSAMPLE"> F  </i>
   <i type="logical" name="LCHARG"> F  </i>
   <i type="logical" name="LPARD"> F  </i>
   <i type="logical" name="LVTOT"> F  </i>
   <i type="logical" name="LVHAR"> F  </i>
   <i type="logical" name="LELF"> F  </i>
   <i type="logical" name="LOPTICS"> F  </i>
   <v name="STM">      0.00000000      0.00000000      0.00000000      0.00000000      0.00000000      0.00000000      0.00000000</v>
  </separator>
  <separator name="performance" >
   <i type="int" name="NPAR">    24</i>
   <i type="int" name="NSIM">     4</i>
   <i type="int" name="NBLK">    -1</i>
   <i type="logical" name="LPLANE"> T  </i>
   <i type="logical" name="LSCALAPACK"> T  </i>
   <i type="logical" name="LSCAAWARE"> F  </i>
   <i type="logical" name="LSCALU"> F  </i>
   <i type="logical" name="LASYNC"> F  </i>
   <i type="logical" name="LORBITALREAL"> F  </i>
  </separator>
  <separator name="miscellaneous" >
   <i type="int" name="IDIOT">     3</i>
   <i type="int" name="ISPECIAL">     0</i>
   <i type="logical" name="LMUSIC"> F  </i>
   <v name="POMASS">     12.01100000</v>
   <v name="DARWINR">      0.00000000</v>
   <v name="DARWINV">      1.00000000</v>
   <i type="logical" name="LCORR"> T  </i>
  </separator>
  <i type="logical" name="GGA_COMPAT"> T  </i>
  <i type="logical" name="LBERRY"> F  </i>
  <i type="int" name="ICORELEVEL">     0</i>
  <i type="logical" name="LDAU"> F  </i>
  <i type="int" name="I_CONSTRAINED_M">     0</i>
  <separator name="electronic exchange-correlation" >
   <i type="string" name="GGA">--</i>
   <i type="int" name="VOSKOWN">     0</i>
   <i type="logical" name="LHFCALC"> F  </i>
   <i type="string" name="PRECFOCK"></i>
   <i type="logical" name="LSYMGRAD"> F  </i>
   <i type="logical" name="LHFONE"> F  </i>
   <i type="logical" name="LRHFCALC"> F  </i>
   <i type="logical" name="LTHOMAS"> F  </i>
   <i type="logical" name="LMODELHF"> F  </i>
   <i name="ENCUT4O">     -1.00000000</i>
   <i type="int" name="EXXOEP">     0</i>
   <i type="int" name="FOURORBIT">     0</i>
   <i name="AEXX">      0.00000000</i>
   <i name="HFALPHA">      0.00000000</i>
   <i name="MCALPHA">      0.00000000</i>
   <i name="ALDAX">      1.00000000</i>
   <i name="AGGAX">      1.00000000</i>
   <i name="ALDAC">      1.00000000</i>
   <i name="AGGAC">      1.00000000</i>
   <i type="int" name="NKREDX">     1</i>
   <i type="int" name="NKREDY">     1</i>
   <i type="int" name="NKREDZ">     1</i>
   <i type="logical" name="SHIFTRED"> F  </i>
   <i type="logical" name="ODDONLY"> F  </i>
   <i type="logical" name="EVENONLY"> F  </i>
   <i type="int" name="LMAXFOCK">     0</i>
   <i type="int" name="NMAXFOCKAE">     0</i>
   <i type="logical" name="LFOCKAEDFT"> F  </i>
   <i name="HFSCREEN">      0.00000000</i>
   <i name="HFSCREENC">      0.00000000</i>
   <i type="int" name="NBANDSGWLOW">     0</i>
  </separator>
  <separator name="vdW DFT" >
   <i type="logical" name="LUSE_VDW"> F  </i>
   <i name="Zab_VDW">     -0.84910000</i>
   <i name="PARAM1">      0.12340000</i>
   <i name="PARAM2">      1.00000000</i>
   <i name="PARAM3">      0.00000000</i>
  </separator>
  <separator name="model GW" >
   <i type="int" name="MODEL_GW">     0</i>
   <i name="MODEL_EPS0">     46.98394832</i>
   <i name="MODEL_ALPHA">      1.00000000</i>
  </separator>
  <separator name="linear response parameters" >
   <i type="logical" name="LEPSILON"> F  </i>
   <i type="logical" name="LRPA"> F  </i>
   <i type="logical" name="LNABLA"> F  </i>
   <i type="logical" name="LVEL"> F  </i>
   <i type="int" name="KINTER">     0</i>
   <i name="CSHIFT">      0.10000000</i>
   <i name="OMEGAMAX">     -1.00000000</i>
   <i name="DEG_THRESHOLD">      0.00200000</i>
   <i name="RTIME">     -0.10000000</i>
   <i name="WPLASMAI">      0.00000000</i>
   <v name="DFIELD">      0.00000000      0.00000000      0.00000000</v>
   <v name="WPLASMA">      0.00000000      0.00000000      0.00000000      0.00000000      0.00000000      0.00000000      0.00000000      0.00000000      0.00000000</v>
  </separator>
  <separator name="orbital magnetization" >
   <i type="logical" name="NUCIND"> F  </i>
   <v name="MAGPOS">      0.00000000      0.00000000      0.00000000</v>
   <i type="logical" name="LNICSALL"> T  </i>
   <i type="logical" name="ORBITALMAG"> F  </i>
   <i type="logical" name="LMAGBLOCH"> F  </i>
   <i type="logical" name="LCHIMAG"> F  </i>
   <i type="logical" name="LGAUGE"> T  </i>
   <i type="int" name="MAGATOM">     0</i>
   <v name="MAGDIPOL">      0.00000000      0.00000000      0.00000000</v>
   <v name="AVECCONST">      0.00000000      0.00000000      0.00000000</v>
  </separator>
  <separator name="response functions" >
   <i type="logical" name="LADDER"> F  </i>
   <i type="logical" name="LRPAFORCE"> F  </i>
   <i type="logical" name="LFXC"> F  </i>
   <i type="logical" name="LHARTREE"> T  </i>
   <i type="int" name="IBSE">     0</i>
   <v type="int" name="KPOINT">    -1     0     0     0</v>
   <i type="logical" name="LTCTE"> F  </i>
   <i type="logical" name="LTETE"> F  </i>
   <i type="logical" name="LTRIPLET"> F  </i>
   <i type="logical" name="LFXCEPS"> F  </i>
   <i type="logical" name="LFXHEG"> F  </i>
   <i type="int" name="NATURALO">     2</i>
   <i type="logical" name="L2ORDER"> F  </i>
   <i type="logical" name="LMP2LT"> F  </i>
   <i type="logical" name="LUSEW"> F  </i>
   <i name="ENCUTGW">     -2.00000000</i>
   <i name="ENCUTGWSOFT">     -2.00000000</i>
   <i name="ENCUTLF">     -1.00000000</i>
   <i type="int" name="LMAXMP2">    -1</i>
   <i name="SCISSOR">      0.00000000</i>
   <i type="int" name="NOMEGA">     0</i>
   <i type="int" name="NOMEGAR">     0</i>
   <i type="int" name="NBANDSGW">    -1</i>
   <i type="int" name="NBANDSO">    -1</i>
   <i type="int" name="NBANDSV">    -1</i>
   <i type="int" name="NELM">    40</i>
   <i type="int" name="NELMHF">     1</i>
   <i type="int" name="DIM">     3</i>
   <i type="int" name="ANTIRES">     0</i>
   <i name="OMEGAMAX">    -30.00000000</i>
   <i name="OMEGAMIN">    -30.00000000</i>
   <i name="OMEGATL">   -200.00000000</i>
   <i type="int" name="OMEGAGRID">   140</i>
   <i name="CSHIFT">     -0.10000000</i>
   <i type="logical" name="SELFENERGY"> F  </i>
   <i type="logical" name="LSPECTRAL"> F  </i>
   <i type="logical" name="LSPECTRALGW"> F  </i>
   <i type="logical" name="LSINGLES"> F  </i>
   <i type="logical" name="LFERMIGW"> F  </i>
   <i type="logical" name="ODDONLYGW"> F  </i>
   <i type="logical" name="EVENONLYGW"> F  </i>
   <i type="int" name="NKREDLFX">     1</i>
   <i type="int" name="NKREDLFY">     1</i>
   <i type="int" name="NKREDLFZ">     1</i>
   <i type="int" name="MAXMEM">  2800</i>
   <i type="int" name="TELESCOPE">     0</i>
   <i type="int" name="TAUPAR">     1</i>
   <i type="int" name="OMEGAPAR">    -1</i>
   <i name="LAMBDA">      1.00000000</i>
  </separator>
  <separator name="External order field" >
   <i name="OFIELD_KAPPA">      0.00000000</i>
   <v name="OFIELD_K">      0.00000000      0.00000000      0.00000000</v>
   <i name="OFIELD_Q6_NEAR">      0.00000000</i>
   <i name="OFIELD_Q6_FAR">      0.00000000</i>
   <i name="OFIELD_A">      0.00000000</i>
  </separator>
 </parameters>
 <atominfo>
  <atoms>       2 </atoms>
  <types>       1 </types>
  <array name="atoms" >
   <dimension dim="1">ion</dimension>
   <field type="string">element</field>
   <field type="int">atomtype</field>
   <set>
    <rc><c>C </c><c>   1</c></rc>
    <rc><c>C </c><c>   1</c></rc>
   </set>
  </array>
  <array name="atomtypes" >
   <dimension dim="1">type</dimension>
   <field type="int">atomspertype</field>
   <field type="string">element</field>
   <field>mass</field>
   <field>valence</field>
   <field type="string">pseudopotential</field>
   <set>
    <rc><c>   2</c><c>C </c><c>     12.01100000</c><c>      4.00000000</c><c>  PAW_PBE C_h 06Feb2004                 </c></rc>
   </set>
  </array>
 </atominfo>
 <structure name="initialpos" >
  <crystal>
   <varray name="basis" >
    <v>       1.22186484      -2.11633731       0.00000000 </v>
    <v>       1.22186484       2.11633731       0.00000000 </v>
    <v>       0.00000000       0.00000000      30.28239374 </v>
   </varray>
   <i name="volume">    156.61316106 </i>
   <varray name="rec_basis" >
    <v>       0.40921056      -0.23625723       0.00000000 </v>
    <v>       0.40921056       0.23625723       0.00000000 </v>
    <v>       0.00000000       0.00000000       0.03302249 </v>
   </varray>
  </crystal>
  <varray name="positions" >
   <v>       0.00000262       0.99999738       0.50000000 </v>
   <v>       0.66666738       0.33333262       0.50000000 </v>
  </varray>
 </structure>
 <calculation>
  <scstep>
   <time name="diag">    0.66    1.07</time>
   <time name="diis">    1.20    1.23</time>
   <time name="orth">    0.03    0.03</time>
   <time name="total">    1.98    2.57</time>
   <energy>
    <i name="alphaZ">      1.40015676 </i>
    <i name="ewald">   2282.79930969 </i>
    <i name="hartreedc">  -2487.19703772 </i>
    <i name="XCdc">     14.62109564 </i>
    <i name="pawpsdc">    228.69403340 </i>
    <i name="pawaedc">   -218.18290438 </i>
    <i name="eentropy">     -0.00090692 </i>
    <i name="bandstr">    -13.40576237 </i>
    <i name="atom">    294.30319316 </i>
    <i name="e_fr_energy">    103.03117727 </i>
    <i name="e_wo_entrp">    103.03208419 </i>
    <i name="e_0_energy">    103.03163073 </i>
   </energy>
  </scstep>
  <scstep>
   <time name="diag">    0.62    0.63</time>
   <time name="diis">    1.20    1.20</time>
   <time name="orth">    0.03    0.03</time>
   <time name="total">    1.85    1.87</time>
   <energy>
    <i name="e_fr_energy">     50.03941631 </i>
    <i name="e_wo_entrp">     50.04183296 </i>
    <i name="e_0_energy">     50.04062463 </i>
   </energy>
  </scstep>
  <scstep>
   <time name="diag">    0.62    0.63</time>
   <time name="diis">    1.19    1.19</time>
   <time name="orth">    0.03    0.03</time>
   <time name="total">    1.84    1.85</time>
   <energy>
    <i name="e_fr_energy">      8.45356618 </i>
    <i name="e_wo_entrp">      8.45565149 </i>
    <i name="e_0_energy">      8.45460884 </i>
   </energy>
  </scstep>
  <scstep>
   <time name="diag">    0.62    0.63</time>
   <time name="diis">    1.19    1.20</time>
   <time name="orth">    0.03    0.03</time>
   <time name="total">    1.84    1.86</time>
   <energy>
    <i name="e_fr_energy">    -13.79115495 </i>
    <i name="e_wo_entrp">    -13.79037135 </i>
    <i name="e_0_energy">    -13.79076315 </i>
   </energy>
  </scstep>
  <scstep>
   <time name="diag">    0.62    0.63</time>
   <time name="diis">    1.20    1.21</time>
   <time name="orth">    0.03    0.03</time>
   <time name="total">    1.85    1.87</time>
   <energy>
    <i name="e_fr_energy">    -18.51326335 </i>
    <i name="e_wo_entrp">    -18.51326335 </i>
    <i name="e_0_energy">    -18.51326335 </i>
   </energy>
  </scstep>
  <scstep>
   <time name="diag">    0.62    0.64</time>
   <time name="diis">    1.18    1.18</time>
   <time name="orth">    0.03    0.03</time>
   <time name="total">    1.83    1.85</time>
   <energy>
    <i name="e_fr_energy">    -19.52034739 </i>
    <i name="e_wo_entrp">    -19.52034739 </i>
    <i name="e_0_energy">    -19.52034739 </i>
   </energy>
  </scstep>
  <scstep>
   <time name="diag">    0.62    0.63</time>
   <time name="diis">    1.19    1.19</time>
   <time name="orth">    0.03    0.03</time>
   <time name="total">    1.84    1.86</time>
   <energy>
    <i name="e_fr_energy">    -19.74950007 </i>
    <i name="e_wo_entrp">    -19.74950007 </i>
    <i name="e_0_energy">    -19.74950007 </i>
   </energy>
  </scstep>
  <scstep>
   <time name="diag">    0.62    0.63</time>
   <time name="diis">    1.20    1.20</time>
   <time name="orth">    0.03    0.03</time>
   <time name="total">    1.85    1.86</time>
   <energy>
    <i name="e_fr_energy">    -19.80969985 </i>
    <i name="e_wo_entrp">    -19.80969985 </i>
    <i name="e_0_energy">    -19.80969985 </i>
   </energy>
  </scstep>
  <scstep>
   <time name="diag">    0.62    0.63</time>
   <time name="diis">    2.21    3.09</time>
   <time name="orth">    0.03    0.03</time>
   <time name="total">    2.86    3.75</time>
   <energy>
    <i name="e_fr_energy">    -19.83217050 </i>
    <i name="e_wo_entrp">    -19.83217050 </i>
    <i name="e_0_energy">    -19.83217050 </i>
   </energy>
  </scstep>
  <scstep>
   <time name="diag">    0.63    0.64</time>
   <time name="diis">    2.54    2.55</time>
   <time name="orth">    0.03    0.03</time>
   <time name="total">    3.20    3.22</time>
   <energy>
    <i name="e_fr_energy">    -19.83595991 </i>
    <i name="e_wo_entrp">    -19.83595991 </i>
    <i name="e_0_energy">    -19.83595991 </i>
   </energy>
  </scstep>
  <scstep>
   <time name="diag">    0.62    0.63</time>
   <time name="diis">    2.25    2.25</time>
   <time name="orth">    0.03    0.03</time>
   <time name="total">    2.90    2.91</time>
   <energy>
    <i name="e_fr_energy">    -19.83611678 </i>
    <i name="e_wo_entrp">    -19.83611678 </i>
    <i name="e_0_energy">    -19.83611678 </i>
   </energy>
  </scstep>
  <scstep>
   <time name="diag">    0.62    0.63</time>
   <time name="diis">    2.50    2.51</time>
   <time name="orth">    0.03    0.03</time>
   <time name="total">    3.32    4.05</time>
   <energy>
    <i name="e_fr_energy">    -19.83614214 </i>
    <i name="e_wo_entrp">    -19.83614214 </i>
    <i name="e_0_energy">    -19.83614214 </i>
   </energy>
  </scstep>
  <scstep>
   <time name="diag">    0.61    0.61</time>
   <time name="diis">    2.22    2.23</time>
   <time name="orth">    0.03    0.03</time>
   <time name="total">    3.05    3.32</time>
   <energy>
    <i name="e_fr_energy">    -18.86463107 </i>
    <i name="e_wo_entrp">    -18.86463107 </i>
    <i name="e_0_energy">    -18.86463107 </i>
   </energy>
  </scstep>
  <scstep>
   <time name="diag">    0.61    0.61</time>
   <time name="diis">    2.20    2.21</time>
   <time name="orth">    0.03    0.03</time>
   <time name="total">    3.03    3.09</time>
   <energy>
    <i name="e_fr_energy">    -18.50028733 </i>
    <i name="e_wo_entrp">    -18.50028733 </i>
    <i name="e_0_energy">    -18.50028733 </i>
   </energy>
  </scstep>
  <scstep>
   <time name="diag">    0.61    0.61</time>
   <time name="diis">    2.25    2.26</time>
   <time name="orth">    0.03    0.03</time>
   <time name="total">    3.08    3.20</time>
   <energy>
    <i name="e_fr_energy">    -18.47740844 </i>
    <i name="e_wo_entrp">    -18.47740844 </i>
    <i name="e_0_energy">    -18.47740844 </i>
   </energy>
  </scstep>
  <scstep>
   <time name="diag">    0.61    0.61</time>
   <time name="diis">    2.29    2.30</time>
   <time name="orth">    0.03    0.03</time>
   <time name="total">    3.12    3.13</time>
   <energy>
    <i name="e_fr_energy">    -18.47564899 </i>
    <i name="e_wo_entrp">    -18.47564899 </i>
    <i name="e_0_energy">    -18.47564899 </i>
   </energy>
  </scstep>
  <scstep>
   <time name="diag">    0.61    0.61</time>
   <time name="diis">    2.23    2.24</time>
   <time name="orth">    0.03    0.03</time>
   <time name="total">    3.06    3.08</time>
   <energy>
    <i name="e_fr_energy">    -18.47413668 </i>
    <i name="e_wo_entrp">    -18.47413668 </i>
    <i name="e_0_energy">    -18.47413668 </i>
   </energy>
  </scstep>
  <scstep>
   <time name="diag">    0.61    0.61</time>
   <time name="diis">    2.24    2.24</time>
   <time name="orth">    0.03    0.03</time>
   <time name="total">    3.07    3.10</time>
   <energy>
    <i name="e_fr_energy">    -18.47403530 </i>
    <i name="e_wo_entrp">    -18.47403530 </i>
    <i name="e_0_energy">    -18.47403530 </i>
   </energy>
  </scstep>
  <scstep>
   <time name="diag">    0.62    0.62</time>
   <time name="diis">    2.22    2.22</time>
   <time name="orth">    0.03    0.03</time>
   <time name="total">    3.05    3.06</time>
   <energy>
    <i name="e_fr_energy">    -18.47451694 </i>
    <i name="e_wo_entrp">    -18.47451694 </i>
    <i name="e_0_energy">    -18.47451694 </i>
   </energy>
  </scstep>
  <scstep>
   <time name="diag">    0.61    0.61</time>
   <time name="diis">    2.24    2.25</time>
   <time name="orth">    0.03    0.03</time>
   <time name="total">    3.07    3.09</time>
   <energy>
    <i name="e_fr_energy">    -18.47479657 </i>
    <i name="e_wo_entrp">    -18.47479657 </i>
    <i name="e_0_energy">    -18.47479657 </i>
   </energy>
  </scstep>
  <scstep>
   <time name="diag">    0.61    0.61</time>
   <time name="diis">    2.21    2.21</time>
   <time name="orth">    0.03    0.03</time>
   <time name="total">    3.03    3.05</time>
   <energy>
    <i name="e_fr_energy">    -18.47540172 </i>
    <i name="e_wo_entrp">    -18.47540172 </i>
    <i name="e_0_energy">    -18.47540172 </i>
   </energy>
  </scstep>
  <scstep>
   <time name="diag">    0.61    0.61</time>
   <time name="diis">    2.20    2.20</time>
   <time name="orth">    0.03    0.03</time>
   <time name="total">    3.04    3.04</time>
   <energy>
    <i name="e_fr_energy">    -18.47549089 </i>
    <i name="e_wo_entrp">    -18.47549089 </i>
    <i name="e_0_energy">    -18.47549089 </i>
   </energy>
  </scstep>
  <scstep>
   <time name="diag">    0.61    0.61</time>
   <time name="diis">    2.23    2.24</time>
   <time name="orth">    0.03    0.03</time>
   <time name="total">    3.06    3.09</time>
   <energy>
    <i name="e_fr_energy">    -18.47552083 </i>
    <i name="e_wo_entrp">    -18.47552083 </i>
    <i name="e_0_energy">    -18.47552083 </i>
   </energy>
  </scstep>
  <scstep>
   <time name="diag">    0.61    0.61</time>
   <time name="diis">    2.17    2.18</time>
   <time name="orth">    0.03    0.03</time>
   <time name="total">    3.00    3.02</time>
   <energy>
    <i name="e_fr_energy">    -18.47553501 </i>
    <i name="e_wo_entrp">    -18.47553501 </i>
    <i name="e_0_energy">    -18.47553501 </i>
   </energy>
  </scstep>
  <scstep>
   <time name="diag">    0.61    0.61</time>
   <time name="diis">    2.18    2.19</time>
   <time name="orth">    0.03    0.03</time>
   <time name="total">    3.02    3.03</time>
   <energy>
    <i name="e_fr_energy">    -18.47553732 </i>
    <i name="e_wo_entrp">    -18.47553732 </i>
    <i name="e_0_energy">    -18.47553732 </i>
   </energy>
  </scstep>
  <scstep>
   <time name="diag">    0.61    0.61</time>
   <time name="diis">    2.16    2.16</time>
   <time name="orth">    0.03    0.03</time>
   <time name="total">    2.98    3.00</time>
   <energy>
    <i name="e_fr_energy">    -18.47553978 </i>
    <i name="e_wo_entrp">    -18.47553978 </i>
    <i name="e_0_energy">    -18.47553978 </i>
   </energy>
  </scstep>
  <scstep>
   <time name="diag">    0.61    0.61</time>
   <time name="diis">    2.17    2.17</time>
   <time name="orth">    0.03    0.03</time>
   <time name="total">    2.99    3.01</time>
   <energy>
    <i name="e_fr_energy">    -18.47554057 </i>
    <i name="e_wo_entrp">    -18.47554057 </i>
    <i name="e_0_energy">    -18.47554057 </i>
   </energy>
  </scstep>
  <scstep>
   <time name="diag">    0.61    0.61</time>
   <time name="diis">    2.17    2.18</time>
   <time name="orth">    0.03    0.03</time>
   <time name="total">    3.00    3.02</time>
   <energy>
    <i name="e_fr_energy">    -18.47554094 </i>
    <i name="e_wo_entrp">    -18.47554094 </i>
    <i name="e_0_energy">    -18.47554094 </i>
   </energy>
  </scstep>
  <scstep>
   <time name="diag">    0.61    0.62</time>
   <time name="diis">    2.15    2.16</time>
   <time name="orth">    0.03    0.03</time>
   <time name="total">    2.82    2.84</time>
   <energy>
    <i name="alphaZ">      1.40015676 </i>
    <i name="ewald">   2282.79930969 </i>
    <i name="hartreedc">  -2524.45480012 </i>
    <i name="XCdc">     15.79852810 </i>
    <i name="pawpsdc">   4396.28897279 </i>
    <i name="pawaedc">  -4385.96576487 </i>
    <i name="eentropy">     -0.00000000 </i>
    <i name="bandstr">    -98.64513651 </i>
    <i name="atom">    294.30319316 </i>
    <i name="e_fr_energy">    -18.47554100 </i>
    <i name="e_wo_entrp">    -18.47554100 </i>
    <i name="e_0_energy">    -18.47554100 </i>
   </energy>
  </scstep>
  <structure>
   <crystal>
    <varray name="basis" >
     <v>       1.22186484      -2.11633731       0.00000000 </v>
     <v>       1.22186484       2.11633731       0.00000000 </v>
     <v>       0.00000000       0.00000000      30.28239374 </v>
    </varray>
    <i name="volume">    156.61316106 </i>
    <varray name="rec_basis" >
     <v>       0.40921056      -0.23625723       0.00000000 </v>
     <v>       0.40921056       0.23625723       0.00000000 </v>
     <v>       0.00000000       0.00000000       0.03302249 </v>
    </varray>
   </crystal>
   <varray name="positions" >
    <v>       0.00000262       0.99999738       0.50000000 </v>
    <v>       0.66666738       0.33333262       0.50000000 </v>
   </varray>
  </structure>
  <varray name="forces" >
   <v>       0.00000000      -0.00000000       0.00000000 </v>
   <v>      -0.00000000       0.00000000       0.00000000 </v>
  </varray>
  <varray name="stress" >
   <v>      12.47440108       0.00000000       0.00000000 </v>
   <v>      -0.00000000      12.47446386      -0.00000000 </v>
   <v>       0.00000000      -0.00000000      -0.48040204 </v>
  </varray>
  <energy>
   <i name="e_fr_energy">    -18.58401907 </i>
   <i name="e_wo_entrp">    -18.58401907 </i>
   <i name="e_0_energy">     -0.00000000 </i>
  </energy>
  <time name="totalsc">   80.12   84.27</time>
  <eigenvalues>
   <array>
    <dimension dim="1">band</dimension>
    <dimension dim="2">kpoint</dimension>
    <dimension dim="3">spin</dimension>
    <field>eigene</field>
    <field>occ</field>
    <set>
     <set comment="spin 1">
      <set comment="kpoint 1">
       <r>  -22.6956    1.0000 </r>
       <r>  -10.7270    1.0000 </r>
       <r>   -6.6128    1.0000 </r>
       <r>   -6.3980    1.0000 </r>
       <r>    0.2729    0.0000 </r>
       <r>    1.0444    0.0000 </r>
       <r>    1.2621    0.0000 </r>
       <r>    1.5758    0.0000 </r>
       <r>    1.7830    0.0000 </r>
       <r>    2.4266    0.0000 </r>
       <r>    2.7303    0.0000 </r>
       <r>    3.6791    0.0000 </r>
       <r>    4.0290    0.0000 </r>
       <r>    5.2744    0.0000 </r>
       <r>    5.4852    0.0000 </r>
       <r>    5.7074    0.0000 </r>
       <r>    5.9268    0.0000 </r>
       <r>    7.2142    0.0000 </r>
       <r>    7.7123    0.0000 </r>
       <r>    8.2492    0.0000 </r>
       <r>    9.4949    0.0000 </r>
       <r>   10.0788    0.0000 </r>
       <r>   10.2613    0.0000 </r>
       <r>   12.1108    0.0000 </r>
      </set>
      <set comment="kpoint 2">
       <r>  -22.2803    1.0000 </r>
       <r>  -10.2296    1.0000 </r>
       <r>   -8.0104    1.0000 </r>
       <r>   -7.1633    1.0000 </r>
       <r>    0.8396    0.0000 </r>
       <r>    1.6196    0.0000 </r>
       <r>    1.8447    0.0000 </r>
       <r>    2.1559    0.0000 </r>
       <r>    2.3637    0.0000 </r>
       <r>    3.0050    0.0000 </r>
       <r>    3.3083    0.0000 </r>
       <r>    4.2551    0.0000 </r>
       <r>    4.6012    0.0000 </r>
       <r>    5.6093    0.0000 </r>
       <r>    5.8465    0.0000 </r>
       <r>    6.2832    0.0000 </r>
       <r>    6.9147    0.0000 </r>
       <r>    7.4048    0.0000 </r>
       <r>    7.7831    0.0000 </r>
       <r>    8.2902    0.0000 </r>
       <r>   10.0555    0.0000 </r>
       <r>   10.6531    0.0000 </r>
       <r>   11.0814    0.0000 </r>
       <r>   12.6558    0.0000 </r>
      </set>
      <set comment="kpoint 3">
       <r>  -21.5377    1.0000 </r>
       <r>  -10.0197    1.0000 </r>
       <r>   -9.3497    1.0000 </r>
       <r>   -8.0919    1.0000 </r>
       <r>    1.8585    0.0000 </r>
       <r>    2.6492    0.0000 </r>
       <r>    2.8935    0.0000 </r>
       <r>    3.1978    0.0000 </r>
       <r>    3.4087    0.0000 </r>
       <r>    4.0399    0.0000 </r>
       <r>    4.3469    0.0000 </r>
       <r>    4.8815    0.0000 </r>
       <r>    5.3067    0.0000 </r>
       <r>    5.4109    0.0000 </r>
       <r>    5.6902    0.0000 </r>
       <r>    6.8793    0.0000 </r>
       <r>    7.3113    0.0000 </r>
       <r>    8.8007    0.0000 </r>
       <r>    9.3195    0.0000 </r>
       <r>    9.6909    0.0000 </r>
       <r>   11.0512    0.0000 </r>
       <r>   11.6806    0.0000 </r>
       <r>   12.4797    0.0000 </r>
       <r>   13.6024    0.0000 </r>
      </set>
      <set comment="kpoint 4">
       <r>  -20.4777    1.0000 </r>
       <r>  -12.2318    1.0000 </r>
       <r>   -8.9035    1.0000 </r>
       <r>   -8.1268    1.0000 </r>
       <r>    2.5078    0.0000 </r>
       <r>    3.3234    0.0000 </r>
       <r>    4.1652    0.0000 </r>
       <r>    4.4081    0.0000 </r>
       <r>    4.7118    0.0000 </r>
       <r>    4.9078    0.0000 </r>
       <r>    5.1524    0.0000 </r>
       <r>    5.5520    0.0000 </r>
       <r>    5.8657    0.0000 </r>
       <r>    6.7877    0.0000 </r>
       <r>    7.1502    0.0000 </r>
       <r>    8.3556    0.0000 </r>
       <r>    8.7997    0.0000 </r>
       <r>   10.2481    0.0000 </r>
       <r>   10.8041    0.0000 </r>
       <r>   12.1479    0.0000 </r>
       <r>   12.4189    0.0000 </r>
       <r>   13.1599    0.0000 </r>
       <r>   13.7538    0.0000 </r>
       <r>   14.5021    0.0000 </r>
      </set>
      <set comment="kpoint 5">
       <r>  -19.1223    1.0000 </r>
       <r>  -14.3994    1.0000 </r>
       <r>   -9.4636    1.0000 </r>
       <r>   -6.6780    1.0000 </r>
       <r>    0.2390    0.0000 </r>
       <r>    4.8415    0.0000 </r>
       <r>    5.2825    0.0000 </r>
       <r>    6.0913    0.0000 </r>
       <r>    6.3898    0.0000 </r>
       <r>    6.6776    0.0000 </r>
       <r>    6.8947    0.0000 </r>
       <r>    7.5069    0.0000 </r>
       <r>    7.8224    0.0000 </r>
       <r>    8.7230    0.0000 </r>
       <r>    9.1001    0.0000 </r>
       <r>   10.2456    0.0000 </r>
       <r>   10.7390    0.0000 </r>
       <r>   11.5534    0.0000 </r>
       <r>   11.9235    0.0000 </r>
       <r>   12.6572    0.0000 </r>
       <r>   12.7332    0.0000 </r>
       <r>   13.3778    0.0000 </r>
       <r>   13.5638    0.0000 </r>
       <r>   13.7909    0.0000 </r>
      </set>
      <set comment="kpoint 6">
       <r>  -17.6114    1.0000 </r>
       <r>  -16.2746    1.0000 </r>
       <r>   -9.7123    1.0000 </r>
       <r>   -5.5171    1.0000 </r>
       <r>   -1.3053    0.0000 </r>
       <r>    4.7543    0.0000 </r>
       <r>    7.5712    0.0000 </r>
       <r>    8.4315    0.0000 </r>
       <r>    8.8346    0.0000 </r>
       <r>    8.8782    0.0000 </r>
       <r>    9.0952    0.0000 </r>
       <r>    9.3284    0.0000 </r>
       <r>    9.7069    0.0000 </r>
       <r>    9.9432    0.0000 </r>
       <r>   10.2327    0.0000 </r>
       <r>   10.2395    0.0000 </r>
       <r>   10.4786    0.0000 </r>
       <r>   10.7149    0.0000 </r>
       <r>   11.0473    0.0000 </r>
       <r>   11.3021    0.0000 </r>
       <r>   11.4945    0.0000 </r>
       <r>   11.6107    0.0000 </r>
       <r>   12.4904    0.0000 </r>
       <r>   12.8670    0.0000 </r>
      </set>
      <set comment="kpoint 7">
       <r>  -18.3554    1.0000 </r>
       <r>  -15.4082    1.0000 </r>
       <r>   -9.6289    1.0000 </r>
       <r>   -5.9877    1.0000 </r>
       <r>   -0.7049    0.0000 </r>
       <r>    4.7917    0.0000 </r>
       <r>    6.3659    0.0000 </r>
       <r>    7.2166    0.0000 </r>
       <r>    7.5548    0.0000 </r>
       <r>    7.8322    0.0000 </r>
       <r>    8.0537    0.0000 </r>
       <r>    8.6499    0.0000 </r>
       <r>    8.9738    0.0000 </r>
       <r>    9.8376    0.0000 </r>
       <r>   10.2059    0.0000 </r>
       <r>   10.2690    0.0000 </r>
       <r>   10.9999    0.0000 </r>
       <r>   11.4641    0.0000 </r>
       <r>   11.7466    0.0000 </r>
       <r>   11.8752    0.0000 </r>
       <r>   11.9798    0.0000 </r>
       <r>   12.2096    0.0000 </r>
       <r>   12.6687    0.0000 </r>
       <r>   13.0804    0.0000 </r>
      </set>
      <set comment="kpoint 8">
       <r>  -19.8345    1.0000 </r>
       <r>  -13.3324    1.0000 </r>
       <r>   -9.2199    1.0000 </r>
       <r>   -7.4160    1.0000 </r>
       <r>    1.3425    0.0000 </r>
       <r>    4.2122    0.0000 </r>
       <r>    5.0132    0.0000 </r>
       <r>    5.0710    0.0000 </r>
       <r>    5.3421    0.0000 </r>
       <r>    5.6369    0.0000 </r>
       <r>    5.8523    0.0000 </r>
       <r>    6.4729    0.0000 </r>
       <r>    6.7849    0.0000 </r>
       <r>    7.7014    0.0000 </r>
       <r>    8.0683    0.0000 </r>
       <r>    9.2545    0.0000 </r>
       <r>    9.7141    0.0000 </r>
       <r>   11.1089    0.0000 </r>
       <r>   11.7118    0.0000 </r>
       <r>   12.4927    0.0000 </r>
       <r>   13.0595    0.0000 </r>
       <r>   14.0785    0.0000 </r>
       <r>   14.0890    0.0000 </r>
       <r>   14.3742    0.0000 </r>
      </set>
      <set comment="kpoint 9">
       <r>  -21.0465    1.0000 </r>
       <r>  -11.1189    1.0000 </r>
       <r>   -8.7769    1.0000 </r>
       <r>   -8.5231    1.0000 </r>
       <r>    2.5360    0.0000 </r>
       <r>    3.2914    0.0000 </r>
       <r>    3.5926    0.0000 </r>
       <r>    3.7306    0.0000 </r>
       <r>    3.9321    0.0000 </r>
       <r>    4.1047    0.0000 </r>
       <r>    4.7485    0.0000 </r>
       <r>    5.0234    0.0000 </r>
       <r>    5.3196    0.0000 </r>
       <r>    5.9860    0.0000 </r>
       <r>    6.3490    0.0000 </r>
       <r>    7.5623    0.0000 </r>
       <r>    7.9984    0.0000 </r>
       <r>    9.4732    0.0000 </r>
       <r>   10.0061    0.0000 </r>
       <r>   10.9711    0.0000 </r>
       <r>   11.6990    0.0000 </r>
       <r>   12.3637    0.0000 </r>
       <r>   13.2059    0.0000 </r>
       <r>   14.1726    0.0000 </r>
      </set>
      <set comment="kpoint 10">
       <r>  -21.9495    1.0000 </r>
       <r>   -9.8358    1.0000 </r>
       <r>   -8.9682    1.0000 </r>
       <r>   -7.6292    1.0000 </r>
       <r>    1.2928    0.0000 </r>
       <r>    2.0786    0.0000 </r>
       <r>    2.3109    0.0000 </r>
       <r>    2.6195    0.0000 </r>
       <r>    2.8282    0.0000 </r>
       <r>    3.4670    0.0000 </r>
       <r>    3.7705    0.0000 </r>
       <r>    4.7139    0.0000 </r>
       <r>    5.0522    0.0000 </r>
       <r>    5.5775    0.0000 </r>
       <r>    5.9584    0.0000 </r>
       <r>    6.3135    0.0000 </r>
       <r>    6.7395    0.0000 </r>
       <r>    8.2364    0.0000 </r>
       <r>    8.4733    0.0000 </r>
       <r>    8.7510    0.0000 </r>
       <r>   10.5006    0.0000 </r>
       <r>   11.1103    0.0000 </r>
       <r>   11.7372    0.0000 </r>
       <r>   13.0836    0.0000 </r>
      </set>
      <set comment="kpoint 11">
       <r>  -22.5293    1.0000 </r>
       <r>  -10.5274    1.0000 </r>
       <r>   -7.2036    1.0000 </r>
       <r>   -6.7350    1.0000 </r>
       <r>    0.4996    0.0000 </r>
       <r>    1.2746    0.0000 </r>
       <r>    1.4951    0.0000 </r>
       <r>    1.8079    0.0000 </r>
       <r>    2.0153    0.0000 </r>
       <r>    2.6581    0.0000 </r>
       <r>    2.9615    0.0000 </r>
       <r>    3.9097    0.0000 </r>
       <r>    4.2582    0.0000 </r>
       <r>    5.5037    0.0000 </r>
       <r>    5.5696    0.0000 </r>
       <r>    5.9410    0.0000 </r>
       <r>    6.5394    0.0000 </r>
       <r>    7.4413    0.0000 </r>
       <r>    7.6928    0.0000 </r>
       <r>    7.9441    0.0000 </r>
       <r>    9.7197    0.0000 </r>
       <r>   10.3092    0.0000 </r>
       <r>   10.5798    0.0000 </r>
       <r>   12.3289    0.0000 </r>
      </set>
      <set comment="kpoint 12">
       <r>  -22.7788    1.0000 </r>
       <r>  -10.8271    1.0000 </r>
       <r>   -6.2936    1.0000 </r>
       <r>   -6.2150    1.0000 </r>
       <r>    0.1596    0.0000 </r>
       <r>    0.9292    0.0000 </r>
       <r>    1.1455    0.0000 </r>
       <r>    1.4598    0.0000 </r>
       <r>    1.6668    0.0000 </r>
       <r>    2.3109    0.0000 </r>
       <r>    2.6147    0.0000 </r>
       <r>    3.5638    0.0000 </r>
       <r>    3.9145    0.0000 </r>
       <r>    5.1597    0.0000 </r>
       <r>    5.4307    0.0000 </r>
       <r>    5.5845    0.0000 </r>
       <r>    5.5969    0.0000 </r>
       <r>    7.1003    0.0000 </r>
       <r>    7.5961    0.0000 </r>
       <r>    8.5413    0.0000 </r>
       <r>    9.3823    0.0000 </r>
       <r>    9.9633    0.0000 </r>
       <r>   10.1137    0.0000 </r>
       <r>   12.0028    0.0000 </r>
      </set>
      <set comment="kpoint 13">
       <r>  -21.7023    1.0000 </r>
       <r>   -9.5426    1.0000 </r>
       <r>   -9.3368    1.0000 </r>
       <r>   -8.2836    1.0000 </r>
       <r>    1.6332    0.0000 </r>
       <r>    2.4228    0.0000 </r>
       <r>    2.6605    0.0000 </r>
       <r>    2.9674    0.0000 </r>
       <r>    3.1769    0.0000 </r>
       <r>    3.8137    0.0000 </r>
       <r>    4.1182    0.0000 </r>
       <r>    5.0597    0.0000 </r>
       <r>    5.3581    0.0000 </r>
       <r>    5.4048    0.0000 </r>
       <r>    6.3277    0.0000 </r>
       <r>    6.6451    0.0000 </r>
       <r>    7.0941    0.0000 </r>
       <r>    8.1030    0.0000 </r>
       <r>    8.5696    0.0000 </r>
       <r>    9.0956    0.0000 </r>
       <r>   10.8233    0.0000 </r>
       <r>   11.4556    0.0000 </r>
       <r>   12.6023    0.0000 </r>
       <r>   13.3855    0.0000 </r>
      </set>
      <set comment="kpoint 14">
       <r>  -20.8026    1.0000 </r>
       <r>  -11.1427    1.0000 </r>
       <r>   -9.3978    1.0000 </r>
       <r>   -8.4906    1.0000 </r>
       <r>    2.8771    0.0000 </r>
       <r>    3.3285    0.0000 </r>
       <r>    3.6963    0.0000 </r>
       <r>    3.9424    0.0000 </r>
       <r>    4.2431    0.0000 </r>
       <r>    4.4542    0.0000 </r>
       <r>    5.0829    0.0000 </r>
       <r>    5.3886    0.0000 </r>
       <r>    6.3191    0.0000 </r>
       <r>    6.5125    0.0000 </r>
       <r>    6.7461    0.0000 </r>
       <r>    7.8876    0.0000 </r>
       <r>    8.3442    0.0000 </r>
       <r>    9.5643    0.0000 </r>
       <r>    9.7799    0.0000 </r>
       <r>   10.3562    0.0000 </r>
       <r>   11.9448    0.0000 </r>
       <r>   12.7072    0.0000 </r>
       <r>   14.0528    0.0000 </r>
       <r>   14.5784    0.0000 </r>
      </set>
      <set comment="kpoint 15">
       <r>  -19.5969    1.0000 </r>
       <r>  -13.2080    1.0000 </r>
       <r>  -10.1751    1.0000 </r>
       <r>   -7.1358    1.0000 </r>
       <r>    1.1590    0.0000 </r>
       <r>    4.5618    0.0000 </r>
       <r>    5.3846    0.0000 </r>
       <r>    5.6899    0.0000 </r>
       <r>    5.9760    0.0000 </r>
       <r>    6.1833    0.0000 </r>
       <r>    6.3689    0.0000 </r>
       <r>    6.8035    0.0000 </r>
       <r>    7.1344    0.0000 </r>
       <r>    8.0161    0.0000 </r>
       <r>    8.4127    0.0000 </r>
       <r>    9.5294    0.0000 </r>
       <r>   10.0533    0.0000 </r>
       <r>   11.2360    0.0000 </r>
       <r>   11.3665    0.0000 </r>
       <r>   12.0646    0.0000 </r>
       <r>   12.6501    0.0000 </r>
       <r>   14.1764    0.0000 </r>
       <r>   14.4466    0.0000 </r>
       <r>   14.8656    0.0000 </r>
      </set>
      <set comment="kpoint 16">
       <r>  -18.1295    1.0000 </r>
       <r>  -15.2196    1.0000 </r>
       <r>  -10.6086    1.0000 </r>
       <r>   -5.6991    1.0000 </r>
       <r>   -0.8013    0.0000 </r>
       <r>    6.1442    0.0000 </r>
       <r>    6.7025    0.0000 </r>
       <r>    7.4739    0.0000 </r>
       <r>    7.9042    0.0000 </r>
       <r>    8.1582    0.0000 </r>
       <r>    8.4004    0.0000 </r>
       <r>    8.9382    0.0000 </r>
       <r>    9.3162    0.0000 </r>
       <r>    9.9911    0.0000 </r>
       <r>   10.4150    0.0000 </r>
       <r>   10.5923    0.0000 </r>
       <r>   10.8511    0.0000 </r>
       <r>   11.8058    0.0000 </r>
       <r>   12.0924    0.0000 </r>
       <r>   12.2037    0.0000 </r>
       <r>   12.2811    0.0000 </r>
       <r>   12.5294    0.0000 </r>
       <r>   12.7585    0.0000 </r>
       <r>   13.3328    0.0000 </r>
      </set>
      <set comment="kpoint 17">
       <r>  -17.3952    1.0000 </r>
       <r>  -16.0676    1.0000 </r>
       <r>  -10.6957    1.0000 </r>
       <r>   -5.2144    1.0000 </r>
       <r>   -1.3966    0.0000 </r>
       <r>    6.1172    0.0000 </r>
       <r>    7.8835    0.0000 </r>
       <r>    8.5570    0.0000 </r>
       <r>    9.1574    0.0000 </r>
       <r>    9.1882    0.0000 </r>
       <r>    9.3770    0.0000 </r>
       <r>    9.6733    0.0000 </r>
       <r>    9.7881    0.0000 </r>
       <r>   10.2888    0.0000 </r>
       <r>   10.5746    0.0000 </r>
       <r>   10.5840    0.0000 </r>
       <r>   10.7756    0.0000 </r>
       <r>   11.0548    0.0000 </r>
       <r>   11.2081    0.0000 </r>
       <r>   11.6327    0.0000 </r>
       <r>   11.8193    0.0000 </r>
       <r>   11.9360    0.0000 </r>
       <r>   12.2690    0.0000 </r>
       <r>   13.0655    0.0000 </r>
      </set>
      <set comment="kpoint 18">
       <r>  -18.8897    1.0000 </r>
       <r>  -14.2368    1.0000 </r>
       <r>  -10.4349    1.0000 </r>
       <r>   -6.3971    1.0000 </r>
       <r>    0.1120    0.0000 </r>
       <r>    5.5567    0.0000 </r>
       <r>    6.2599    0.0000 </r>
       <r>    6.3884    0.0000 </r>
       <r>    6.7396    0.0000 </r>
       <r>    7.0126    0.0000 </r>
       <r>    7.2431    0.0000 </r>
       <r>    7.8261    0.0000 </r>
       <r>    8.1678    0.0000 </r>
       <r>    9.0060    0.0000 </r>
       <r>    9.4414    0.0000 </r>
       <r>   10.4037    0.0000 </r>
       <r>   11.0668    0.0000 </r>
       <r>   11.4114    0.0000 </r>
       <r>   11.6305    0.0000 </r>
       <r>   12.8503    0.0000 </r>
       <r>   13.0628    0.0000 </r>
       <r>   13.7493    0.0000 </r>
       <r>   13.8519    0.0000 </r>
       <r>   14.1542    0.0000 </r>
      </set>
      <set comment="kpoint 19">
       <r>  -20.2365    1.0000 </r>
       <r>  -12.1652    1.0000 </r>
       <r>   -9.8298    1.0000 </r>
       <r>   -7.8440    1.0000 </r>
       <r>    2.2517    0.0000 </r>
       <r>    3.6654    0.0000 </r>
       <r>    4.4816    0.0000 </r>
       <r>    4.7580    0.0000 </r>
       <r>    5.0521    0.0000 </r>
       <r>    5.2662    0.0000 </r>
       <r>    5.8875    0.0000 </r>
       <r>    6.1832    0.0000 </r>
       <r>    6.4939    0.0000 </r>
       <r>    7.1152    0.0000 </r>
       <r>    7.4992    0.0000 </r>
       <r>    8.6659    0.0000 </r>
       <r>    9.1421    0.0000 </r>
       <r>   10.5120    0.0000 </r>
       <r>   10.5445    0.0000 </r>
       <r>   11.1574    0.0000 </r>
       <r>   12.4734    0.0000 </r>
       <r>   13.4990    0.0000 </r>
       <r>   13.9463    0.0000 </r>
       <r>   15.4088    0.0000 </r>
      </set>
      <set comment="kpoint 20">
       <r>  -21.2920    1.0000 </r>
       <r>  -10.1840    1.0000 </r>
       <r>   -9.0598    1.0000 </r>
       <r>   -8.8786    1.0000 </r>
       <r>    2.1993    0.0000 </r>
       <r>    2.9939    0.0000 </r>
       <r>    3.2432    0.0000 </r>
       <r>    3.5461    0.0000 </r>
       <r>    3.7576    0.0000 </r>
       <r>    4.3686    0.0000 </r>
       <r>    4.4156    0.0000 </r>
       <r>    4.6962    0.0000 </r>
       <r>    5.6332    0.0000 </r>
       <r>    5.9735    0.0000 </r>
       <r>    6.5699    0.0000 </r>
       <r>    7.2119    0.0000 </r>
       <r>    7.6626    0.0000 </r>
       <r>    8.6944    0.0000 </r>
       <r>    9.1251    0.0000 </r>
       <r>    9.6688    0.0000 </r>
       <r>   11.3530    0.0000 </r>
       <r>   12.0256    0.0000 </r>
       <r>   13.6687    0.0000 </r>
       <r>   13.8999    0.0000 </r>
      </set>
      <set comment="kpoint 21">
       <r>  -22.0321    1.0000 </r>
       <r>   -9.9337    1.0000 </r>
       <r>   -8.6172    1.0000 </r>
       <r>   -7.6750    1.0000 </r>
       <r>    1.1798    0.0000 </r>
       <r>    1.9641    0.0000 </r>
       <r>    2.1943    0.0000 </r>
       <r>    2.5038    0.0000 </r>
       <r>    2.7122    0.0000 </r>
       <r>    3.3518    0.0000 </r>
       <r>    3.6554    0.0000 </r>
       <r>    4.6002    0.0000 </r>
       <r>    4.9456    0.0000 </r>
       <r>    5.9344    0.0000 </r>
       <r>    6.1779    0.0000 </r>
       <r>    6.2234    0.0000 </r>
       <r>    6.6319    0.0000 </r>
       <r>    7.7531    0.0000 </r>
       <r>    8.1211    0.0000 </r>
       <r>    8.6361    0.0000 </r>
       <r>   10.3873    0.0000 </r>
       <r>   10.9979    0.0000 </r>
       <r>   11.7222    0.0000 </r>
       <r>   12.9736    0.0000 </r>
      </set>
      <set comment="kpoint 22">
       <r>  -22.4462    1.0000 </r>
       <r>  -10.4279    1.0000 </r>
       <r>   -7.5186    1.0000 </r>
       <r>   -6.8448    1.0000 </r>
       <r>    0.6129    0.0000 </r>
       <r>    1.3896    0.0000 </r>
       <r>    1.6117    0.0000 </r>
       <r>    1.9239    0.0000 </r>
       <r>    2.1314    0.0000 </r>
       <r>    2.7737    0.0000 </r>
       <r>    3.0771    0.0000 </r>
       <r>    4.0249    0.0000 </r>
       <r>    4.3723    0.0000 </r>
       <r>    5.4949    0.0000 </r>
       <r>    5.6180    0.0000 </r>
       <r>    6.0522    0.0000 </r>
       <r>    6.9531    0.0000 </r>
       <r>    7.4192    0.0000 </r>
       <r>    7.5598    0.0000 </r>
       <r>    8.0593    0.0000 </r>
       <r>    9.8321    0.0000 </r>
       <r>   10.4232    0.0000 </r>
       <r>   10.7221    0.0000 </r>
       <r>   12.4389    0.0000 </r>
      </set>
      <set comment="kpoint 23">
       <r>  -19.7569    1.0000 </r>
       <r>  -12.3610    1.0000 </r>
       <r>  -10.9204    1.0000 </r>
       <r>   -7.2947    1.0000 </r>
       <r>    1.5776    0.0000 </r>
       <r>    4.3407    0.0000 </r>
       <r>    5.1363    0.0000 </r>
       <r>    5.4572    0.0000 </r>
       <r>    5.7389    0.0000 </r>
       <r>    5.9635    0.0000 </r>
       <r>    6.5635    0.0000 </r>
       <r>    6.8909    0.0000 </r>
       <r>    7.7707    0.0000 </r>
       <r>    8.0793    0.0000 </r>
       <r>    8.3092    0.0000 </r>
       <r>    9.2694    0.0000 </r>
       <r>    9.4264    0.0000 </r>
       <r>    9.8368    0.0000 </r>
       <r>   10.9272    0.0000 </r>
       <r>   11.8315    0.0000 </r>
       <r>   12.3406    0.0000 </r>
       <r>   14.0322    0.0000 </r>
       <r>   14.1696    0.0000 </r>
       <r>   16.1401    0.0000 </r>
      </set>
      <set comment="kpoint 24">
       <r>  -18.4282    1.0000 </r>
       <r>  -13.9972    1.0000 </r>
       <r>  -11.8562    1.0000 </r>
       <r>   -5.8573    1.0000 </r>
       <r>   -0.2731    0.0000 </r>
       <r>    6.2301    0.0000 </r>
       <r>    6.9287    0.0000 </r>
       <r>    7.4376    0.0000 </r>
       <r>    7.6748    0.0000 </r>
       <r>    7.9311    0.0000 </r>
       <r>    8.4102    0.0000 </r>
       <r>    8.4236    0.0000 </r>
       <r>    8.8645    0.0000 </r>
       <r>    9.4113    0.0000 </r>
       <r>   10.1176    0.0000 </r>
       <r>   10.4199    0.0000 </r>
       <r>   10.6915    0.0000 </r>
       <r>   11.7252    0.0000 </r>
       <r>   11.7618    0.0000 </r>
       <r>   13.4637    0.0000 </r>
       <r>   13.7048    0.0000 </r>
       <r>   13.9568    0.0000 </r>
       <r>   14.3537    0.0000 </r>
       <r>   14.4701    0.0000 </r>
      </set>
      <set comment="kpoint 25">
       <r>  -16.9659    1.0000 </r>
       <r>  -15.6897    1.0000 </r>
       <r>  -12.1920    1.0000 </r>
       <r>   -4.6162    1.0000 </r>
       <r>   -1.7090    0.0000 </r>
       <r>    8.1974    0.0000 </r>
       <r>    8.2516    0.0000 </r>
       <r>    8.5165    0.0000 </r>
       <r>    9.6802    0.0000 </r>
       <r>    9.8703    0.0000 </r>
       <r>    9.8840    0.0000 </r>
       <r>   10.2693    0.0000 </r>
       <r>   10.3612    0.0000 </r>
       <r>   10.9820    0.0000 </r>
       <r>   11.2430    0.0000 </r>
       <r>   11.2794    0.0000 </r>
       <r>   11.3633    0.0000 </r>
       <r>   11.7158    0.0000 </r>
       <r>   11.7226    0.0000 </r>
       <r>   12.3131    0.0000 </r>
       <r>   12.4342    0.0000 </r>
       <r>   12.5619    0.0000 </r>
       <r>   12.6835    0.0000 </r>
       <r>   13.6166    0.0000 </r>
      </set>
      <set comment="kpoint 26">
       <r>  -17.6825    1.0000 </r>
       <r>  -14.8906    1.0000 </r>
       <r>  -12.0838    1.0000 </r>
       <r>   -5.1418    1.0000 </r>
       <r>   -1.1171    0.0000 </r>
       <r>    7.3161    0.0000 </r>
       <r>    7.7609    0.0000 </r>
       <r>    8.3393    0.0000 </r>
       <r>    8.6034    0.0000 </r>
       <r>    8.7735    0.0000 </r>
       <r>    9.0938    0.0000 </r>
       <r>    9.3367    0.0000 </r>
       <r>    9.9967    0.0000 </r>
       <r>   10.0778    0.0000 </r>
       <r>   10.6090    0.0000 </r>
       <r>   11.1754    0.0000 </r>
       <r>   11.2608    0.0000 </r>
       <r>   12.4935    0.0000 </r>
       <r>   12.7603    0.0000 </r>
       <r>   12.8456    0.0000 </r>
       <r>   12.8927    0.0000 </r>
       <r>   13.0728    0.0000 </r>
       <r>   13.2452    0.0000 </r>
       <r>   13.6991    0.0000 </r>
      </set>
      <set comment="kpoint 27">
       <r>  -19.1250    1.0000 </r>
       <r>  -13.1283    1.0000 </r>
       <r>  -11.4816    1.0000 </r>
       <r>   -6.5949    1.0000 </r>
       <r>    0.6479    0.0000 </r>
       <r>    5.2343    0.0000 </r>
       <r>    6.0069    0.0000 </r>
       <r>    6.3893    0.0000 </r>
       <r>    6.6550    0.0000 </r>
       <r>    6.8910    0.0000 </r>
       <r>    7.4592    0.0000 </r>
       <r>    7.8092    0.0000 </r>
       <r>    8.4619    0.0000 </r>
       <r>    8.6166    0.0000 </r>
       <r>    9.1101    0.0000 </r>
       <r>    9.9511    0.0000 </r>
       <r>   10.0042    0.0000 </r>
       <r>   10.7480    0.0000 </r>
       <r>   11.1966    0.0000 </r>
       <r>   12.6824    0.0000 </r>
       <r>   12.7319    0.0000 </r>
       <r>   14.7372    0.0000 </r>
       <r>   15.0346    0.0000 </r>
       <r>   15.2239    0.0000 </r>
      </set>
      <set comment="kpoint 28">
       <r>  -20.3174    1.0000 </r>
       <r>  -11.7177    1.0000 </r>
       <r>  -10.1898    1.0000 </r>
       <r>   -7.9311    1.0000 </r>
       <r>    2.4830    0.0000 </r>
       <r>    3.5540    0.0000 </r>
       <r>    4.3572    0.0000 </r>
       <r>    4.6415    0.0000 </r>
       <r>    4.9336    0.0000 </r>
       <r>    5.1510    0.0000 </r>
       <r>    5.7683    0.0000 </r>
       <r>    6.0827    0.0000 </r>
       <r>    6.9950    0.0000 </r>
       <r>    7.2905    0.0000 </r>
       <r>    7.5108    0.0000 </r>
       <r>    8.5436    0.0000 </r>
       <r>    9.0304    0.0000 </r>
       <r>    9.4047    0.0000 </r>
       <r>   10.3826    0.0000 </r>
       <r>   11.0379    0.0000 </r>
       <r>   12.3148    0.0000 </r>
       <r>   13.3932    0.0000 </r>
       <r>   13.7992    0.0000 </r>
       <r>   15.8466    0.0000 </r>
      </set>
      <set comment="kpoint 29">
       <r>  -21.2100    1.0000 </r>
       <r>  -10.5817    1.0000 </r>
       <r>   -8.9652    1.0000 </r>
       <r>   -8.6665    1.0000 </r>
       <r>    2.3115    0.0000 </r>
       <r>    3.1018    0.0000 </r>
       <r>    3.3597    0.0000 </r>
       <r>    3.6570    0.0000 </r>
       <r>    3.8734    0.0000 </r>
       <r>    4.1567    0.0000 </r>
       <r>    4.5190    0.0000 </r>
       <r>    4.8096    0.0000 </r>
       <r>    5.7524    0.0000 </r>
       <r>    5.8431    0.0000 </r>
       <r>    6.1475    0.0000 </r>
       <r>    7.3299    0.0000 </r>
       <r>    7.7705    0.0000 </r>
       <r>    9.2425    0.0000 </r>
       <r>    9.6903    0.0000 </r>
       <r>    9.8078    0.0000 </r>
       <r>   11.4707    0.0000 </r>
       <r>   12.1388    0.0000 </r>
       <r>   13.4564    0.0000 </r>
       <r>   13.9312    0.0000 </r>
      </set>
      <set comment="kpoint 30">
       <r>  -21.7845    1.0000 </r>
       <r>   -9.6407    1.0000 </r>
       <r>   -9.4684    1.0000 </r>
       <r>   -7.7416    1.0000 </r>
       <r>    1.5189    0.0000 </r>
       <r>    2.3071    0.0000 </r>
       <r>    2.5439    0.0000 </r>
       <r>    2.8510    0.0000 </r>
       <r>    3.0604    0.0000 </r>
       <r>    3.6970    0.0000 </r>
       <r>    4.0008    0.0000 </r>
       <r>    4.9373    0.0000 </r>
       <r>    5.2233    0.0000 </r>
       <r>    5.4260    0.0000 </r>
       <r>    5.5138    0.0000 </r>
       <r>    6.5398    0.0000 </r>
       <r>    6.9672    0.0000 </r>
       <r>    8.4639    0.0000 </r>
       <r>    8.9780    0.0000 </r>
       <r>    9.2586    0.0000 </r>
       <r>   10.7239    0.0000 </r>
       <r>   11.3362    0.0000 </r>
       <r>   11.9066    0.0000 </r>
       <r>   13.2965    0.0000 </r>
      </set>
      <set comment="kpoint 31">
       <r>  -17.0342    1.0000 </r>
       <r>  -14.8202    1.0000 </r>
       <r>  -13.2595    1.0000 </r>
       <r>   -4.4078    1.0000 </r>
       <r>   -1.7522    0.0000 </r>
       <r>    7.7196    0.0000 </r>
       <r>    8.2588    0.0000 </r>
       <r>    9.6492    0.0000 </r>
       <r>    9.6662    0.0000 </r>
       <r>   10.0931    0.0000 </r>
       <r>   10.1059    0.0000 </r>
       <r>   10.2050    0.0000 </r>
       <r>   10.3745    0.0000 </r>
       <r>   10.9160    0.0000 </r>
       <r>   11.0367    0.0000 </r>
       <r>   12.1208    0.0000 </r>
       <r>   12.2469    0.0000 </r>
       <r>   13.4045    0.0000 </r>
       <r>   13.4462    0.0000 </r>
       <r>   13.4882    0.0000 </r>
       <r>   13.5525    0.0000 </r>
       <r>   13.8680    0.0000 </r>
       <r>   13.9281    0.0000 </r>
       <r>   13.9971    0.0000 </r>
      </set>
      <set comment="kpoint 32">
       <r>  -16.3409    1.0000 </r>
       <r>  -15.3851    1.0000 </r>
       <r>  -13.5627    1.0000 </r>
       <r>   -3.7635    1.0000 </r>
       <r>   -2.3970    0.0000 </r>
       <r>    7.6616    0.0000 </r>
       <r>    9.3040    0.0000 </r>
       <r>   10.0564    0.0000 </r>
       <r>   10.3984    0.0000 </r>
       <r>   10.8069    0.0000 </r>
       <r>   10.9300    0.0000 </r>
       <r>   11.2713    0.0000 </r>
       <r>   11.3824    0.0000 </r>
       <r>   12.0209    0.0000 </r>
       <r>   12.1962    0.0000 </r>
       <r>   12.2815    0.0000 </r>
       <r>   12.3145    0.0000 </r>
       <r>   12.6248    0.0000 </r>
       <r>   12.6693    0.0000 </r>
       <r>   13.1473    0.0000 </r>
       <r>   13.2766    0.0000 </r>
       <r>   13.2990    0.0000 </r>
       <r>   13.4758    0.0000 </r>
       <r>   13.6290    0.0000 </r>
      </set>
      <set comment="kpoint 33">
       <r>  -17.7517    1.0000 </r>
       <r>  -14.3685    1.0000 </r>
       <r>  -12.6524    1.0000 </r>
       <r>   -5.1409    1.0000 </r>
       <r>   -1.0126    0.0000 </r>
       <r>    7.2090    0.0000 </r>
       <r>    7.5593    0.0000 </r>
       <r>    8.4857    0.0000 </r>
       <r>    8.6450    0.0000 </r>
       <r>    8.9708    0.0000 </r>
       <r>    9.1910    0.0000 </r>
       <r>    9.4910    0.0000 </r>
       <r>    9.8916    0.0000 </r>
       <r>    9.9524    0.0000 </r>
       <r>   10.4385    0.0000 </r>
       <r>   11.0877    0.0000 </r>
       <r>   11.1554    0.0000 </r>
       <r>   12.5857    0.0000 </r>
       <r>   12.7505    0.0000 </r>
       <r>   13.6588    0.0000 </r>
       <r>   13.8854    0.0000 </r>
       <r>   14.1109    0.0000 </r>
       <r>   14.3596    0.0000 </r>
       <r>   14.6250    0.0000 </r>
      </set>
      <set comment="kpoint 34">
       <r>  -19.0462    1.0000 </r>
       <r>  -13.6224    1.0000 </r>
       <r>  -11.0013    1.0000 </r>
       <r>   -6.5277    1.0000 </r>
       <r>    0.4516    0.0000 </r>
       <r>    5.3445    0.0000 </r>
       <r>    6.1374    0.0000 </r>
       <r>    6.5056    0.0000 </r>
       <r>    6.7749    0.0000 </r>
       <r>    7.0020    0.0000 </r>
       <r>    7.3263    0.0000 </r>
       <r>    7.5831    0.0000 </r>
       <r>    7.9422    0.0000 </r>
       <r>    8.7502    0.0000 </r>
       <r>    9.2130    0.0000 </r>
       <r>   10.1120    0.0000 </r>
       <r>   10.8163    0.0000 </r>
       <r>   11.0382    0.0000 </r>
       <r>   11.3626    0.0000 </r>
       <r>   12.7751    0.0000 </r>
       <r>   12.8443    0.0000 </r>
       <r>   14.2615    0.0000 </r>
       <r>   14.6398    0.0000 </r>
       <r>   15.1229    0.0000 </r>
      </set>
      <set comment="kpoint 35">
       <r>  -20.0752    1.0000 </r>
       <r>  -12.7435    1.0000 </r>
       <r>   -9.4522    1.0000 </r>
       <r>   -7.6714    1.0000 </r>
       <r>    1.8478    0.0000 </r>
       <r>    3.8869    0.0000 </r>
       <r>    4.7213    0.0000 </r>
       <r>    4.9906    0.0000 </r>
       <r>    5.2871    0.0000 </r>
       <r>    5.4793    0.0000 </r>
       <r>    5.6242    0.0000 </r>
       <r>    6.1232    0.0000 </r>
       <r>    6.4418    0.0000 </r>
       <r>    7.3519    0.0000 </r>
       <r>    7.7245    0.0000 </r>
       <r>    8.9052    0.0000 </r>
       <r>    9.3709    0.0000 </r>
       <r>   10.7593    0.0000 </r>
       <r>   11.3628    0.0000 </r>
       <r>   11.7855    0.0000 </r>
       <r>   12.7491    0.0000 </r>
       <r>   13.7246    0.0000 </r>
       <r>   14.1404    0.0000 </r>
       <r>   14.5928    0.0000 </r>
      </set>
      <set comment="kpoint 36">
       <r>  -20.8020    1.0000 </r>
       <r>  -11.6831    1.0000 </r>
       <r>   -8.5877    1.0000 </r>
       <r>   -8.4966    1.0000 </r>
       <r>    2.8731    0.0000 </r>
       <r>    3.1028    0.0000 </r>
       <r>    3.7387    0.0000 </r>
       <r>    3.9421    0.0000 </r>
       <r>    4.2528    0.0000 </r>
       <r>    4.4504    0.0000 </r>
       <r>    5.0259    0.0000 </r>
       <r>    5.0932    0.0000 </r>
       <r>    5.4119    0.0000 </r>
       <r>    6.3314    0.0000 </r>
       <r>    6.6910    0.0000 </r>
       <r>    7.9054    0.0000 </r>
       <r>    8.3418    0.0000 </r>
       <r>    9.8114    0.0000 </r>
       <r>   10.3493    0.0000 </r>
       <r>   12.0250    0.0000 </r>
       <r>   12.0767    0.0000 </r>
       <r>   12.6930    0.0000 </r>
       <r>   13.0520    0.0000 </r>
       <r>   14.4188    0.0000 </r>
      </set>
      <set comment="kpoint 37">
       <r>  -16.5025    1.0000 </r>
       <r>  -15.6627    1.0000 </r>
       <r>  -12.9728    1.0000 </r>
       <r>   -4.1181    1.0000 </r>
       <r>   -2.1051    0.0000 </r>
       <r>    7.8869    0.0000 </r>
       <r>    9.3049    0.0000 </r>
       <r>    9.3244    0.0000 </r>
       <r>    9.6678    0.0000 </r>
       <r>   10.6938    0.0000 </r>
       <r>   11.0340    0.0000 </r>
       <r>   11.0517    0.0000 </r>
       <r>   11.1108    0.0000 </r>
       <r>   11.3231    0.0000 </r>
       <r>   11.4664    0.0000 </r>
       <r>   11.5189    0.0000 </r>
       <r>   11.5753    0.0000 </r>
       <r>   12.1538    0.0000 </r>
       <r>   12.2532    0.0000 </r>
       <r>   12.3777    0.0000 </r>
       <r>   12.4369    0.0000 </r>
       <r>   13.2711    0.0000 </r>
       <r>   13.3835    0.0000 </r>
       <r>   13.5533    0.0000 </r>
      </set>
      <set comment="kpoint 38">
       <r>  -17.5525    1.0000 </r>
       <r>  -15.5099    1.0000 </r>
       <r>  -11.3790    1.0000 </r>
       <r>   -5.1582    1.0000 </r>
       <r>   -1.2716    0.0000 </r>
       <r>    7.1450    0.0000 </r>
       <r>    7.5697    0.0000 </r>
       <r>    8.1133    0.0000 </r>
       <r>    8.8356    0.0000 </r>
       <r>    9.0238    0.0000 </r>
       <r>    9.3235    0.0000 </r>
       <r>    9.6025    0.0000 </r>
       <r>    9.9917    0.0000 </r>
       <r>   10.2375    0.0000 </r>
       <r>   10.2656    0.0000 </r>
       <r>   11.2174    0.0000 </r>
       <r>   11.4796    0.0000 </r>
       <r>   11.6277    0.0000 </r>
       <r>   11.7422    0.0000 </r>
       <r>   12.0685    0.0000 </r>
       <r>   12.1153    0.0000 </r>
       <r>   12.7587    0.0000 </r>
       <r>   12.8718    0.0000 </r>
       <r>   13.1345    0.0000 </r>
      </set>
      <set comment="kpoint 39">
       <r>  -18.6578    1.0000 </r>
       <r>  -14.8454    1.0000 </r>
       <r>   -9.9476    1.0000 </r>
       <r>   -6.2123    1.0000 </r>
       <r>   -0.2964    0.0000 </r>
       <r>    5.3508    0.0000 </r>
       <r>    5.9350    0.0000 </r>
       <r>    6.7500    0.0000 </r>
       <r>    7.0887    0.0000 </r>
       <r>    7.3656    0.0000 </r>
       <r>    7.5900    0.0000 </r>
       <r>    8.1829    0.0000 </r>
       <r>    8.5131    0.0000 </r>
       <r>    9.3716    0.0000 </r>
       <r>    9.7849    0.0000 </r>
       <r>   10.7817    0.0000 </r>
       <r>   10.9475    0.0000 </r>
       <r>   11.4231    0.0000 </r>
       <r>   11.7162    0.0000 </r>
       <r>   12.6752    0.0000 </r>
       <r>   12.6906    0.0000 </r>
       <r>   12.9637    0.0000 </r>
       <r>   13.1047    0.0000 </r>
       <r>   13.5370    0.0000 </r>
      </set>
      <set comment="kpoint 40">
       <r>  -19.5160    1.0000 </r>
       <r>  -13.8908    1.0000 </r>
       <r>   -9.2139    1.0000 </r>
       <r>   -7.0826    1.0000 </r>
       <r>    0.7934    0.0000 </r>
       <r>    4.5801    0.0000 </r>
       <r>    4.8490    0.0000 </r>
       <r>    5.5286    0.0000 </r>
       <r>    5.8073    0.0000 </r>
       <r>    6.1006    0.0000 </r>
       <r>    6.3150    0.0000 </r>
       <r>    6.9348    0.0000 </r>
       <r>    7.2459    0.0000 </r>
       <r>    8.1602    0.0000 </r>
       <r>    8.5272    0.0000 </r>
       <r>    9.7067    0.0000 </r>
       <r>   10.1707    0.0000 </r>
       <r>   11.5380    0.0000 </r>
       <r>   12.1323    0.0000 </r>
       <r>   12.2095    0.0000 </r>
       <r>   13.0858    0.0000 </r>
       <r>   13.9213    0.0000 </r>
       <r>   14.2221    0.0000 </r>
       <r>   14.4928    0.0000 </r>
      </set>
      <set comment="kpoint 41">
       <r>  -17.3509    1.0000 </r>
       <r>  -16.3903    1.0000 </r>
       <r>  -10.1163    1.0000 </r>
       <r>   -5.3332    1.0000 </r>
       <r>   -1.4198    0.0000 </r>
       <r>    5.2881    0.0000 </r>
       <r>    8.2479    0.0000 </r>
       <r>    8.4088    0.0000 </r>
       <r>    8.9588    0.0000 </r>
       <r>    9.3123    0.0000 </r>
       <r>    9.6414    0.0000 </r>
       <r>    9.6594    0.0000 </r>
       <r>    9.8713    0.0000 </r>
       <r>    9.9281    0.0000 </r>
       <r>   10.1222    0.0000 </r>
       <r>   10.1506    0.0000 </r>
       <r>   10.5846    0.0000 </r>
       <r>   10.7621    0.0000 </r>
       <r>   11.0161    0.0000 </r>
       <r>   11.0563    0.0000 </r>
       <r>   11.6097    0.0000 </r>
       <r>   11.9962    0.0000 </r>
       <r>   12.2547    0.0000 </r>
       <r>   12.3055    0.0000 </r>
      </set>
      <set comment="kpoint 42">
       <r>  -17.9943    1.0000 </r>
       <r>  -15.8987    1.0000 </r>
       <r>   -9.5423    1.0000 </r>
       <r>   -5.7462    1.0000 </r>
       <r>   -1.0563    0.0000 </r>
       <r>    4.5808    0.0000 </r>
       <r>    6.9165    0.0000 </r>
       <r>    7.7825    0.0000 </r>
       <r>    8.1371    0.0000 </r>
       <r>    8.4106    0.0000 </r>
       <r>    8.6326    0.0000 </r>
       <r>    9.2219    0.0000 </r>
       <r>    9.5021    0.0000 </r>
       <r>    9.5639    0.0000 </r>
       <r>   10.2932    0.0000 </r>
       <r>   10.5322    0.0000 </r>
       <r>   10.8150    0.0000 </r>
       <r>   10.9325    0.0000 </r>
       <r>   11.1736    0.0000 </r>
       <r>   11.4073    0.0000 </r>
       <r>   11.8192    0.0000 </r>
       <r>   12.0589    0.0000 </r>
       <r>   12.2936    0.0000 </r>
       <r>   12.4683    0.0000 </r>
      </set>
     </set>
    </set>
   </array>
  </eigenvalues>
  <separator name="orbital magnetization" >
   <v name="MAGDIPOLOUT">      0.00000000      0.00000000      0.00000000</v>
  </separator>
  <dos>
   <i name="efermi">     -3.44426341 </i>
   <total>
    <array>
     <dimension dim="1">gridpoints</dimension>
     <dimension dim="2">spin</dimension>
     <field>energy</field>
     <field>total</field>
     <field>integrated</field>
     <set>
      <set comment="spin 1">
       <r>   -24.7248     0.0000     0.0000 </r>
       <r>   -24.5821     0.0000     0.0000 </r>
       <r>   -24.4394     0.0000     0.0000 </r>
       <r>   -24.2967     0.0000     0.0000 </r>
       <r>   -24.1540     0.0000     0.0000 </r>
       <r>   -24.0113     0.0000     0.0000 </r>
       <r>   -23.8686     0.0000     0.0000 </r>
       <r>   -23.7259     0.0000     0.0000 </r>
       <r>   -23.5832     0.0000     0.0000 </r>
       <r>   -23.4405     0.0000     0.0000 </r>
       <r>   -23.2978     0.0000     0.0000 </r>
       <r>   -23.1551     0.0000     0.0000 </r>
       <r>   -23.0124     0.0000     0.0000 </r>
       <r>   -22.8697     0.0010     0.0001 </r>
       <r>   -22.7270     0.2163     0.0310 </r>
       <r>   -22.5843     0.1952     0.0589 </r>
       <r>   -22.4416     0.4711     0.1261 </r>
       <r>   -22.2989     0.2065     0.1556 </r>
       <r>   -22.1561     0.2725     0.1944 </r>
       <r>   -22.0134     0.2866     0.2353 </r>
       <r>   -21.8707     0.4884     0.3050 </r>
       <r>   -21.7280     0.2329     0.3383 </r>
       <r>   -21.5853     0.1946     0.3660 </r>
       <r>   -21.4426     0.3534     0.4165 </r>
       <r>   -21.2999     0.1634     0.4398 </r>
       <r>   -21.1572     0.5905     0.5241 </r>
       <r>   -21.0145     0.3440     0.5732 </r>
       <r>   -20.8718     0.0858     0.5854 </r>
       <r>   -20.7291     0.5583     0.6651 </r>
       <r>   -20.5864     0.0115     0.6667 </r>
       <r>   -20.4437     0.3235     0.7129 </r>
       <r>   -20.3010     0.3430     0.7618 </r>
       <r>   -20.1583     0.4995     0.8331 </r>
       <r>   -20.0156     0.3731     0.8863 </r>
       <r>   -19.8729     0.0719     0.8966 </r>
       <r>   -19.7302     0.4855     0.9659 </r>
       <r>   -19.5875     0.2842     1.0064 </r>
       <r>   -19.4448     0.3399     1.0549 </r>
       <r>   -19.3021     0.0043     1.0556 </r>
       <r>   -19.1594     0.1219     1.0730 </r>
       <r>   -19.0167     0.9666     1.2109 </r>
       <r>   -18.8740     0.3408     1.2595 </r>
       <r>   -18.7313     0.1352     1.2788 </r>
       <r>   -18.5886     0.3722     1.3319 </r>
       <r>   -18.4459     0.1321     1.3508 </r>
       <r>   -18.3032     0.6290     1.4405 </r>
       <r>   -18.1605     0.1014     1.4550 </r>
       <r>   -18.0178     0.3643     1.5070 </r>
       <r>   -17.8751     0.1456     1.5278 </r>
       <r>   -17.7324     0.3066     1.5715 </r>
       <r>   -17.5897     0.8118     1.6874 </r>
       <r>   -17.4470     0.4668     1.7540 </r>
       <r>   -17.3043     0.5358     1.8304 </r>
       <r>   -17.1616     0.0203     1.8333 </r>
       <r>   -17.0189     0.1562     1.8556 </r>
       <r>   -16.8761     0.4256     1.9164 </r>
       <r>   -16.7334     0.0022     1.9167 </r>
       <r>   -16.5907     0.0012     1.9168 </r>
       <r>   -16.4480     0.1918     1.9442 </r>
       <r>   -16.3053     0.5976     2.0295 </r>
       <r>   -16.1626     0.3783     2.0835 </r>
       <r>   -16.0199     0.3537     2.1340 </r>
       <r>   -15.8772     0.1762     2.1591 </r>
       <r>   -15.7345     0.0969     2.1729 </r>
       <r>   -15.5918     0.5386     2.2498 </r>
       <r>   -15.4491     0.4358     2.3120 </r>
       <r>   -15.3064     0.7306     2.4162 </r>
       <r>   -15.1637     0.3703     2.4691 </r>
       <r>   -15.0210     0.0222     2.4722 </r>
       <r>   -14.8783     0.3260     2.5187 </r>
       <r>   -14.7356     0.6452     2.6108 </r>
       <r>   -14.5929     0.0020     2.6111 </r>
       <r>   -14.4502     0.0333     2.6159 </r>
       <r>   -14.3075     0.7358     2.7209 </r>
       <r>   -14.1648     0.3906     2.7766 </r>
       <r>   -14.0221     0.1019     2.7912 </r>
       <r>   -13.8794     0.4173     2.8507 </r>
       <r>   -13.7367     0.0731     2.8611 </r>
       <r>   -13.5940     0.3802     2.9154 </r>
       <r>   -13.4513     0.3980     2.9722 </r>
       <r>   -13.3086     0.3089     3.0163 </r>
       <r>   -13.1659     0.6742     3.1125 </r>
       <r>   -13.0232     0.3941     3.1687 </r>
       <r>   -12.8805     0.1794     3.1943 </r>
       <r>   -12.7378     0.2236     3.2262 </r>
       <r>   -12.5951     0.5355     3.3026 </r>
       <r>   -12.4524     0.0214     3.3057 </r>
       <r>   -12.3097     0.1850     3.3321 </r>
       <r>   -12.1670     0.8720     3.4565 </r>
       <r>   -12.0243     0.6761     3.5530 </r>
       <r>   -11.8816     0.1102     3.5687 </r>
       <r>   -11.7389     0.4151     3.6280 </r>
       <r>   -11.5962     0.4647     3.6943 </r>
       <r>   -11.4534     0.3146     3.7392 </r>
       <r>   -11.3107     0.4548     3.8041 </r>
       <r>   -11.1680     0.1345     3.8233 </r>
       <r>   -11.0253     0.7496     3.9302 </r>
       <r>   -10.8826     0.4722     3.9976 </r>
       <r>   -10.7399     0.3206     4.0434 </r>
       <r>   -10.5972     0.8553     4.1654 </r>
       <r>   -10.4545     0.9362     4.2990 </r>
       <r>   -10.3118     0.4390     4.3617 </r>
       <r>   -10.1691     1.1410     4.5245 </r>
       <r>   -10.0264     0.7780     4.6355 </r>
       <r>    -9.8837     1.0114     4.7798 </r>
       <r>    -9.7410     0.8422     4.9000 </r>
       <r>    -9.5983     0.8194     5.0169 </r>
       <r>    -9.4556     1.0164     5.1620 </r>
       <r>    -9.3129     1.2878     5.3458 </r>
       <r>    -9.1702     0.6397     5.4370 </r>
       <r>    -9.0275     0.4043     5.4947 </r>
       <r>    -8.8848     1.2484     5.6729 </r>
       <r>    -8.7421     0.6782     5.7697 </r>
       <r>    -8.5994     0.7833     5.8815 </r>
       <r>    -8.4567     1.1173     6.0409 </r>
       <r>    -8.3140     0.1406     6.0610 </r>
       <r>    -8.1713     0.2019     6.0898 </r>
       <r>    -8.0286     0.8374     6.2093 </r>
       <r>    -7.8859     0.6815     6.3065 </r>
       <r>    -7.7432     0.4944     6.3771 </r>
       <r>    -7.6005     1.1561     6.5421 </r>
       <r>    -7.4578     0.3271     6.5887 </r>
       <r>    -7.3151     0.4058     6.6466 </r>
       <r>    -7.1724     0.6708     6.7424 </r>
       <r>    -7.0297     0.8185     6.8592 </r>
       <r>    -6.8870     0.0364     6.8644 </r>
       <r>    -6.7443     0.3377     6.9125 </r>
       <r>    -6.6016     0.9014     7.0412 </r>
       <r>    -6.4589     0.6987     7.1409 </r>
       <r>    -6.3162     0.6157     7.2288 </r>
       <r>    -6.1735     0.6566     7.3224 </r>
       <r>    -6.0307     0.1199     7.3395 </r>
       <r>    -5.8880     0.4198     7.3995 </r>
       <r>    -5.7453     0.4514     7.4639 </r>
       <r>    -5.6026     0.4496     7.5280 </r>
       <r>    -5.4599     0.3669     7.5804 </r>
       <r>    -5.3172     0.1524     7.6021 </r>
       <r>    -5.1745     0.6622     7.6967 </r>
       <r>    -5.0318     0.9570     7.8332 </r>
       <r>    -4.8891     0.0008     7.8333 </r>
       <r>    -4.7464     0.0000     7.8333 </r>
       <r>    -4.6037     0.2483     7.8688 </r>
       <r>    -4.4610     0.1538     7.8907 </r>
       <r>    -4.3183     0.1807     7.9165 </r>
       <r>    -4.1756     0.0112     7.9181 </r>
       <r>    -4.0329     0.1830     7.9442 </r>
       <r>    -3.8902     0.0016     7.9445 </r>
       <r>    -3.7475     0.2624     7.9819 </r>
       <r>    -3.6048     0.1269     8.0000 </r>
       <r>    -3.4621     0.0000     8.0000 </r>
       <r>    -3.3194     0.0000     8.0000 </r>
       <r>    -3.1767     0.0000     8.0000 </r>
       <r>    -3.0340     0.0000     8.0000 </r>
       <r>    -2.8913     0.0000     8.0000 </r>
       <r>    -2.7486     0.0000     8.0000 </r>
       <r>    -2.6059     0.0000     8.0000 </r>
       <r>    -2.4632     0.0119     8.0017 </r>
       <r>    -2.3205     0.3715     8.0547 </r>
       <r>    -2.1778     0.0098     8.0561 </r>
       <r>    -2.0351     0.1861     8.0827 </r>
       <r>    -1.8924     0.0046     8.0833 </r>
       <r>    -1.7497     0.1517     8.1050 </r>
       <r>    -1.6070     0.4315     8.1666 </r>
       <r>    -1.4643     0.0318     8.1711 </r>
       <r>    -1.3216     0.7021     8.2713 </r>
       <r>    -1.1789     0.6434     8.3631 </r>
       <r>    -1.0362     0.6088     8.4500 </r>
       <r>    -0.8935     0.3522     8.5002 </r>
       <r>    -0.7508     0.3958     8.5567 </r>
       <r>    -0.6080     0.3800     8.6109 </r>
       <r>    -0.4653     0.0012     8.6111 </r>
       <r>    -0.3226     0.1204     8.6283 </r>
       <r>    -0.1799     0.6564     8.7220 </r>
       <r>    -0.0372     0.0018     8.7222 </r>
       <r>     0.1055     0.1785     8.7477 </r>
       <r>     0.2482     0.6857     8.8456 </r>
       <r>     0.3909     0.3208     8.8913 </r>
       <r>     0.5336     0.6947     8.9905 </r>
       <r>     0.6763     0.5617     9.0706 </r>
       <r>     0.8190     0.3471     9.1201 </r>
       <r>     0.9617     0.4875     9.1897 </r>
       <r>     1.1044     0.2731     9.2287 </r>
       <r>     1.2471     1.1039     9.3862 </r>
       <r>     1.3898     1.2530     9.5650 </r>
       <r>     1.5325     0.8249     9.6827 </r>
       <r>     1.6752     1.3122     9.8700 </r>
       <r>     1.8179     0.7471     9.9766 </r>
       <r>     1.9606     1.5046    10.1913 </r>
       <r>     2.1033     0.9699    10.3297 </r>
       <r>     2.2460     1.5312    10.5482 </r>
       <r>     2.3887     1.7562    10.7988 </r>
       <r>     2.5314     1.6371    11.0325 </r>
       <r>     2.6741     1.8535    11.2970 </r>
       <r>     2.8168     1.2216    11.4713 </r>
       <r>     2.9595     1.7212    11.7169 </r>
       <r>     3.1022     1.6262    11.9490 </r>
       <r>     3.2449     1.1635    12.1150 </r>
       <r>     3.3876     2.4334    12.4622 </r>
       <r>     3.5303     1.1086    12.6204 </r>
       <r>     3.6730     2.1196    12.9229 </r>
       <r>     3.8157     2.3600    13.2597 </r>
       <r>     3.9584     2.1567    13.5675 </r>
       <r>     4.1011     1.5325    13.7862 </r>
       <r>     4.2438     1.9753    14.0680 </r>
       <r>     4.3865     2.3125    14.3980 </r>
       <r>     4.5292     2.1927    14.7109 </r>
       <r>     4.6719     2.1672    15.0202 </r>
       <r>     4.8147     3.1683    15.4723 </r>
       <r>     4.9574     2.3049    15.8012 </r>
       <r>     5.1001     3.2387    16.2634 </r>
       <r>     5.2428     2.0942    16.5623 </r>
       <r>     5.3855     4.0575    17.1413 </r>
       <r>     5.5282     3.2199    17.6008 </r>
       <r>     5.6709     3.8450    18.1495 </r>
       <r>     5.8136     2.1594    18.4576 </r>
       <r>     5.9563     3.4331    18.9475 </r>
       <r>     6.0990     3.0366    19.3809 </r>
       <r>     6.2417     3.8163    19.9255 </r>
       <r>     6.3844     3.6284    20.4433 </r>
       <r>     6.5271     2.8804    20.8543 </r>
       <r>     6.6698     2.2672    21.1778 </r>
       <r>     6.8125     3.6009    21.6917 </r>
       <r>     6.9552     2.9568    22.1136 </r>
       <r>     7.0979     2.2106    22.4291 </r>
       <r>     7.2406     3.0499    22.8643 </r>
       <r>     7.3833     3.2146    23.3231 </r>
       <r>     7.5260     3.3658    23.8034 </r>
       <r>     7.6687     3.9596    24.3684 </r>
       <r>     7.8114     4.2043    24.9684 </r>
       <r>     7.9541     3.5096    25.4692 </r>
       <r>     8.0968     2.5028    25.8264 </r>
       <r>     8.2395     3.2914    26.2961 </r>
       <r>     8.3822     3.0255    26.7278 </r>
       <r>     8.5249     4.2055    27.3280 </r>
       <r>     8.6676     3.4925    27.8264 </r>
       <r>     8.8103     2.9907    28.2531 </r>
       <r>     8.9530     2.7334    28.6432 </r>
       <r>     9.0957     3.0290    29.0754 </r>
       <r>     9.2384     3.5739    29.5854 </r>
       <r>     9.3811     4.7343    30.2610 </r>
       <r>     9.5238     3.0909    30.7021 </r>
       <r>     9.6665     2.6961    31.0869 </r>
       <r>     9.8092     4.2796    31.6976 </r>
       <r>     9.9519     3.5133    32.1989 </r>
       <r>    10.0946     4.4133    32.8287 </r>
       <r>    10.2374     3.4766    33.3248 </r>
       <r>    10.3801     4.7110    33.9971 </r>
       <r>    10.5228     3.6873    34.5233 </r>
       <r>    10.6655     3.1604    34.9743 </r>
       <r>    10.8082     4.0117    35.5468 </r>
       <r>    10.9509     2.6287    35.9219 </r>
       <r>    11.0936     5.4978    36.7065 </r>
       <r>    11.2363     4.1030    37.2920 </r>
       <r>    11.3790     4.0694    37.8727 </r>
       <r>    11.5217     3.6731    38.3969 </r>
       <r>    11.6644     2.7899    38.7950 </r>
       <r>    11.8071     5.2131    39.5389 </r>
       <r>    11.9498     2.3483    39.8740 </r>
       <r>    12.0925     3.4050    40.3599 </r>
       <r>    12.2352     3.6033    40.8741 </r>
       <r>    12.3779     4.1351    41.4642 </r>
       <r>    12.5206     3.4279    41.9534 </r>
       <r>    12.6633     3.4193    42.4413 </r>
       <r>    12.8060     5.6019    43.2407 </r>
       <r>    12.9487     2.5924    43.6107 </r>
       <r>    13.0914     2.7476    44.0028 </r>
       <r>    13.2341     2.6593    44.3823 </r>
       <r>    13.3768     2.2803    44.7077 </r>
       <r>    13.5195     2.8328    45.1119 </r>
       <r>    13.6622     2.7028    45.4976 </r>
       <r>    13.8049     2.8186    45.8998 </r>
       <r>    13.9476     2.5478    46.2634 </r>
       <r>    14.0903     2.0052    46.5496 </r>
       <r>    14.2330     2.5286    46.9104 </r>
       <r>    14.3757     1.2153    47.0838 </r>
       <r>    14.5184     1.7549    47.3343 </r>
       <r>    14.6611     1.5712    47.5585 </r>
       <r>    14.8038     0.5676    47.6395 </r>
       <r>    14.9465     0.3834    47.6942 </r>
       <r>    15.0892     0.4338    47.7561 </r>
       <r>    15.2319     0.5760    47.8383 </r>
       <r>    15.3746     0.2249    47.8704 </r>
       <r>    15.5174     0.3240    47.9166 </r>
       <r>    15.6601     0.0004    47.9167 </r>
       <r>    15.8028     0.0418    47.9226 </r>
       <r>    15.9455     0.3465    47.9721 </r>
       <r>    16.0882     0.0148    47.9742 </r>
       <r>    16.2309     0.1798    47.9999 </r>
       <r>    16.3736     0.0010    48.0000 </r>
       <r>    16.5163     0.0000    48.0000 </r>
       <r>    16.6590     0.0000    48.0000 </r>
       <r>    16.8017     0.0000    48.0000 </r>
       <r>    16.9444     0.0000    48.0000 </r>
       <r>    17.0871     0.0000    48.0000 </r>
       <r>    17.2298     0.0000    48.0000 </r>
       <r>    17.3725     0.0000    48.0000 </r>
       <r>    17.5152     0.0000    48.0000 </r>
       <r>    17.6579     0.0000    48.0000 </r>
       <r>    17.8006     0.0000    48.0000 </r>
       <r>    17.9433     0.0000    48.0000 </r>
       <r>    18.0860     0.0000    48.0000 </r>
      </set>
     </set>
    </array>
   </total>
  </dos>
 </calculation>
 <structure name="finalpos" >
  <crystal>
   <varray name="basis" >
    <v>       1.22186484      -2.11633731       0.00000000 </v>
    <v>       1.22186484       2.11633731       0.00000000 </v>
    <v>       0.00000000       0.00000000      30.28239374 </v>
   </varray>
   <i name="volume">    156.61316106 </i>
   <varray name="rec_basis" >
    <v>       0.40921056      -0.23625723       0.00000000 </v>
    <v>       0.40921056       0.23625723       0.00000000 </v>
    <v>       0.00000000       0.00000000       0.03302249 </v>
   </varray>
  </crystal>
  <varray name="positions" >
   <v>       0.00000262       0.99999738       0.50000000 </v>
   <v>       0.66666738       0.33333262       0.50000000 </v>
  </varray>
 </structure>
</modeling>
