   4   4   0   0
  0.1722662E+02  0.4204350E-09  0.4204350E-09  0.4204350E-09  0.2000000E-15
  1.000000000000000E-004
  CAR 
 unknown system                          
     20.37745637     -1.45535571  301      9.07325168      1.00000000
     -1.455  0.0000E+00  0.0000E+00
     -1.383  0.0000E+00  0.0000E+00
     -1.310  0.0000E+00  0.0000E+00
     -1.237  0.0000E+00  0.0000E+00
     -1.164  0.0000E+00  0.0000E+00
     -1.091  0.0000E+00  0.0000E+00
     -1.019  0.6780E-19  0.4934E-20
     -0.946  0.1652E-15  0.1203E-16
     -0.873  0.1463E-12  0.1066E-13
     -0.800  0.4735E-10  0.3457E-11
     -0.728  0.5809E-08  0.4262E-09
     -0.655  0.2866E-06  0.2129E-07
     -0.582  0.6115E-05  0.4663E-06
     -0.509  0.5975E-04  0.4815E-05
     -0.436  0.2784E-03  0.2507E-04
     -0.364  0.6761E-03  0.7427E-04
     -0.291  0.1080E-02  0.1528E-03
     -0.218  0.1478E-02  0.2604E-03
     -0.145  0.1779E-02  0.3899E-03
     -0.073  0.1839E-02  0.5237E-03
      0.000  0.2101E-02  0.6766E-03
      0.073  0.2742E-02  0.8761E-03
      0.146  0.2761E-02  0.1077E-02
      0.218  0.2400E-02  0.1252E-02
      0.291  0.2858E-02  0.1460E-02
      0.364  0.3655E-02  0.1726E-02
      0.437  0.3793E-02  0.2002E-02
      0.510  0.3621E-02  0.2265E-02
      0.582  0.3728E-02  0.2537E-02
      0.655  0.3808E-02  0.2814E-02
      0.728  0.4186E-02  0.3118E-02
      0.801  0.5100E-02  0.3490E-02
      0.873  0.5533E-02  0.3892E-02
      0.946  0.5222E-02  0.4272E-02
      1.019  0.5194E-02  0.4650E-02
      1.092  0.5374E-02  0.5041E-02
      1.165  0.5691E-02  0.5456E-02
      1.237  0.6781E-02  0.5949E-02
      1.310  0.7988E-02  0.6530E-02
      1.383  0.8444E-02  0.7145E-02
      1.456  0.8177E-02  0.7740E-02
      1.528  0.8153E-02  0.8333E-02
      1.601  0.8982E-02  0.8987E-02
      1.674  0.1024E-01  0.9732E-02
      1.747  0.1305E-01  0.1068E-01
      1.820  0.1694E-01  0.1191E-01
      1.892  0.1868E-01  0.1327E-01
      1.965  0.1805E-01  0.1459E-01
      2.038  0.1889E-01  0.1596E-01
      2.111  0.2127E-01  0.1751E-01
      2.183  0.2365E-01  0.1923E-01
      2.256  0.2869E-01  0.2132E-01
      2.329  0.3716E-01  0.2402E-01
      2.402  0.4740E-01  0.2747E-01
      2.475  0.5776E-01  0.3168E-01
      2.547  0.6827E-01  0.3665E-01
      2.620  0.7812E-01  0.4233E-01
      2.693  0.8019E-01  0.4817E-01
      2.766  0.7760E-01  0.5381E-01
      2.838  0.7638E-01  0.5937E-01
      2.911  0.7980E-01  0.6518E-01
      2.984  0.9102E-01  0.7180E-01
      3.057  0.1008E+00  0.7914E-01
      3.130  0.1024E+00  0.8659E-01
      3.202  0.1020E+00  0.9401E-01
      3.275  0.1028E+00  0.1015E+00
      3.348  0.1021E+00  0.1089E+00
      3.421  0.9977E-01  0.1162E+00
      3.493  0.1023E+00  0.1236E+00
      3.566  0.1052E+00  0.1313E+00
      3.639  0.9971E-01  0.1385E+00
      3.712  0.8547E-01  0.1448E+00
      3.785  0.7080E-01  0.1499E+00
      3.857  0.6158E-01  0.1544E+00
      3.930  0.5350E-01  0.1583E+00
      4.003  0.4676E-01  0.1617E+00
      4.076  0.4702E-01  0.1651E+00
      4.148  0.5174E-01  0.1689E+00
      4.221  0.5755E-01  0.1731E+00
      4.294  0.5808E-01  0.1773E+00
      4.367  0.5353E-01  0.1812E+00
      4.440  0.5344E-01  0.1851E+00
      4.512  0.5987E-01  0.1894E+00
      4.585  0.6291E-01  0.1940E+00
      4.658  0.6153E-01  0.1985E+00
      4.731  0.5971E-01  0.2028E+00
      4.803  0.5583E-01  0.2069E+00
      4.876  0.5062E-01  0.2106E+00
      4.949  0.4553E-01  0.2139E+00
      5.022  0.4429E-01  0.2171E+00
      5.094  0.4867E-01  0.2207E+00
      5.167  0.5067E-01  0.2243E+00
      5.240  0.4748E-01  0.2278E+00
      5.313  0.4874E-01  0.2314E+00
      5.386  0.5598E-01  0.2354E+00
      5.458  0.6271E-01  0.2400E+00
      5.531  0.6669E-01  0.2448E+00
      5.604  0.6876E-01  0.2498E+00
      5.677  0.6753E-01  0.2548E+00
      5.749  0.6707E-01  0.2596E+00
      5.822  0.6963E-01  0.2647E+00
      5.895  0.7148E-01  0.2699E+00
      5.968  0.7482E-01  0.2754E+00
      6.041  0.8132E-01  0.2813E+00
      6.113  0.8570E-01  0.2875E+00
      6.186  0.8829E-01  0.2939E+00
      6.259  0.9352E-01  0.3007E+00
      6.332  0.1018E+00  0.3081E+00
      6.404  0.1134E+00  0.3164E+00
      6.477  0.1304E+00  0.3259E+00
      6.550  0.1450E+00  0.3364E+00
      6.623  0.1461E+00  0.3471E+00
      6.696  0.1409E+00  0.3573E+00
      6.768  0.1425E+00  0.3677E+00
      6.841  0.1459E+00  0.3783E+00
      6.914  0.1276E+00  0.3876E+00
      6.987  0.8599E-01  0.3939E+00
      7.059  0.5110E-01  0.3976E+00
      7.132  0.3660E-01  0.4002E+00
      7.205  0.3291E-01  0.4026E+00
      7.278  0.3335E-01  0.4051E+00
      7.351  0.3212E-01  0.4074E+00
      7.423  0.2645E-01  0.4093E+00
      7.496  0.2415E-01  0.4111E+00
      7.569  0.2520E-01  0.4129E+00
      7.642  0.2416E-01  0.4147E+00
      7.714  0.2387E-01  0.4164E+00
      7.787  0.2414E-01  0.4182E+00
      7.860  0.2317E-01  0.4199E+00
      7.933  0.2143E-01  0.4214E+00
      8.006  0.2057E-01  0.4229E+00
      8.078  0.2095E-01  0.4244E+00
      8.151  0.2255E-01  0.4261E+00
      8.224  0.2446E-01  0.4279E+00
      8.297  0.2391E-01  0.4296E+00
      8.369  0.2202E-01  0.4312E+00
      8.442  0.2028E-01  0.4327E+00
      8.515  0.1870E-01  0.4340E+00
      8.588  0.1569E-01  0.4352E+00
      8.661  0.1151E-01  0.4360E+00
      8.733  0.8619E-02  0.4366E+00
      8.806  0.9124E-02  0.4373E+00
      8.879  0.1027E-01  0.4381E+00
      8.952  0.9829E-02  0.4388E+00
      9.024  0.9838E-02  0.4395E+00
      9.097  0.1049E-01  0.4403E+00
      9.170  0.1039E-01  0.4410E+00
      9.243  0.9516E-02  0.4417E+00
      9.315  0.9524E-02  0.4424E+00
      9.388  0.1094E-01  0.4432E+00
      9.461  0.1074E-01  0.4440E+00
      9.534  0.9047E-02  0.4446E+00
      9.607  0.8410E-02  0.4452E+00
      9.679  0.8957E-02  0.4459E+00
      9.752  0.9326E-02  0.4466E+00
      9.825  0.1012E-01  0.4473E+00
      9.898  0.1038E-01  0.4481E+00
      9.970  0.9651E-02  0.4488E+00
     10.043  0.9006E-02  0.4494E+00
     10.116  0.9202E-02  0.4501E+00
     10.189  0.9908E-02  0.4508E+00
     10.262  0.1019E-01  0.4516E+00
     10.334  0.9380E-02  0.4522E+00
     10.407  0.9196E-02  0.4529E+00
     10.480  0.9186E-02  0.4536E+00
     10.553  0.8642E-02  0.4542E+00
     10.625  0.8144E-02  0.4548E+00
     10.698  0.8612E-02  0.4554E+00
     10.771  0.9210E-02  0.4561E+00
     10.844  0.1005E-01  0.4568E+00
     10.917  0.1144E-01  0.4577E+00
     10.989  0.1165E-01  0.4585E+00
     11.062  0.9810E-02  0.4592E+00
     11.135  0.8169E-02  0.4598E+00
     11.208  0.8100E-02  0.4604E+00
     11.280  0.8368E-02  0.4610E+00
     11.353  0.8527E-02  0.4616E+00
     11.426  0.8460E-02  0.4622E+00
     11.499  0.8310E-02  0.4629E+00
     11.572  0.8376E-02  0.4635E+00
     11.644  0.9153E-02  0.4641E+00
     11.717  0.1004E-01  0.4649E+00
     11.790  0.1078E-01  0.4656E+00
     11.863  0.1201E-01  0.4665E+00
     11.935  0.1422E-01  0.4676E+00
     12.008  0.1562E-01  0.4687E+00
     12.081  0.1574E-01  0.4698E+00
     12.154  0.1572E-01  0.4710E+00
     12.227  0.1519E-01  0.4721E+00
     12.299  0.1479E-01  0.4732E+00
     12.372  0.1564E-01  0.4743E+00
     12.445  0.1557E-01  0.4754E+00
     12.518  0.1382E-01  0.4764E+00
     12.590  0.1255E-01  0.4774E+00
     12.663  0.1235E-01  0.4783E+00
     12.736  0.1329E-01  0.4792E+00
     12.809  0.1338E-01  0.4802E+00
     12.882  0.1196E-01  0.4811E+00
     12.954  0.1159E-01  0.4819E+00
     13.027  0.1234E-01  0.4828E+00
     13.100  0.1247E-01  0.4837E+00
     13.173  0.1252E-01  0.4846E+00
     13.245  0.1295E-01  0.4856E+00
     13.318  0.1305E-01  0.4865E+00
     13.391  0.1252E-01  0.4874E+00
     13.464  0.1195E-01  0.4883E+00
     13.537  0.1157E-01  0.4891E+00
     13.609  0.1182E-01  0.4900E+00
     13.682  0.1177E-01  0.4909E+00
     13.755  0.1131E-01  0.4917E+00
     13.828  0.1210E-01  0.4926E+00
     13.900  0.1259E-01  0.4935E+00
     13.973  0.1158E-01  0.4943E+00
     14.046  0.1023E-01  0.4951E+00
     14.119  0.1012E-01  0.4958E+00
     14.191  0.1137E-01  0.4966E+00
     14.264  0.1295E-01  0.4976E+00
     14.337  0.1337E-01  0.4985E+00
     14.410  0.1189E-01  0.4994E+00
     14.483  0.1132E-01  0.5002E+00
     14.555  0.1127E-01  0.5011E+00
     14.628  0.1147E-01  0.5019E+00
     14.701  0.1223E-01  0.5028E+00
     14.774  0.1129E-01  0.5036E+00
     14.846  0.9747E-02  0.5043E+00
     14.919  0.9887E-02  0.5050E+00
     14.992  0.1027E-01  0.5058E+00
     15.065  0.1073E-01  0.5066E+00
     15.138  0.1046E-01  0.5073E+00
     15.210  0.1055E-01  0.5081E+00
     15.283  0.1179E-01  0.5089E+00
     15.356  0.1214E-01  0.5098E+00
     15.429  0.1199E-01  0.5107E+00
     15.501  0.1153E-01  0.5115E+00
     15.574  0.1042E-01  0.5123E+00
     15.647  0.9761E-02  0.5130E+00
     15.720  0.1028E-01  0.5138E+00
     15.793  0.1111E-01  0.5146E+00
     15.865  0.1193E-01  0.5154E+00
     15.938  0.1265E-01  0.5164E+00
     16.011  0.1255E-01  0.5173E+00
     16.084  0.1298E-01  0.5182E+00
     16.156  0.1300E-01  0.5192E+00
     16.229  0.1124E-01  0.5200E+00
     16.302  0.9363E-02  0.5207E+00
     16.375  0.9438E-02  0.5213E+00
     16.448  0.1007E-01  0.5221E+00
     16.520  0.1003E-01  0.5228E+00
     16.593  0.9353E-02  0.5235E+00
     16.666  0.9183E-02  0.5242E+00
     16.739  0.1016E-01  0.5249E+00
     16.811  0.1154E-01  0.5257E+00
     16.884  0.1213E-01  0.5266E+00
     16.957  0.1056E-01  0.5274E+00
     17.030  0.7839E-02  0.5280E+00
     17.103  0.5579E-02  0.5284E+00
     17.175  0.5417E-02  0.5288E+00
     17.248  0.7318E-02  0.5293E+00
     17.321  0.7834E-02  0.5299E+00
     17.394  0.6847E-02  0.5304E+00
     17.466  0.7217E-02  0.5309E+00
     17.539  0.9061E-02  0.5315E+00
     17.612  0.1029E-01  0.5323E+00
     17.685  0.1039E-01  0.5330E+00
     17.758  0.9300E-02  0.5337E+00
     17.830  0.7528E-02  0.5343E+00
     17.903  0.6141E-02  0.5347E+00
     17.976  0.4736E-02  0.5351E+00
     18.049  0.4116E-02  0.5354E+00
     18.121  0.4802E-02  0.5357E+00
     18.194  0.5653E-02  0.5361E+00
     18.267  0.6057E-02  0.5366E+00
     18.340  0.5525E-02  0.5370E+00
     18.413  0.4949E-02  0.5373E+00
     18.485  0.5346E-02  0.5377E+00
     18.558  0.6225E-02  0.5382E+00
     18.631  0.5975E-02  0.5386E+00
     18.704  0.4519E-02  0.5389E+00
     18.776  0.2850E-02  0.5391E+00
     18.849  0.2015E-02  0.5393E+00
     18.922  0.2032E-02  0.5394E+00
     18.995  0.1834E-02  0.5396E+00
     19.067  0.1264E-02  0.5397E+00
     19.140  0.9707E-03  0.5397E+00
     19.213  0.8636E-03  0.5398E+00
     19.286  0.9647E-03  0.5399E+00
     19.359  0.1034E-02  0.5399E+00
     19.431  0.6338E-03  0.5400E+00
     19.504  0.1898E-03  0.5400E+00
     19.577  0.2578E-04  0.5400E+00
     19.650  0.1475E-05  0.5400E+00
     19.722  0.3336E-07  0.5400E+00
     19.795  0.2849E-09  0.5400E+00
     19.868  0.8935E-12  0.5400E+00
     19.941  0.1010E-14  0.5400E+00
     20.014  0.4339E-18  0.5400E+00
     20.086  0.0000E+00  0.5400E+00
     20.159  0.0000E+00  0.5400E+00
     20.232  0.0000E+00  0.5400E+00
     20.305  0.0000E+00  0.5400E+00
     20.377  0.0000E+00  0.5400E+00
