<?xml version="1.0" encoding="ISO-8859-1"?>
<modeling>
 <generator>
  <i name="program" type="string">vasp </i>
  <i name="version" type="string">5.4.4.18Apr17-6-g9f103f2a35  </i>
  <i name="subversion" type="string">(build Jan 14 2019 14:48:31) complex            parallel </i>
  <i name="platform" type="string">LinuxIFC </i>
  <i name="date" type="string">2019 09 29 </i>
  <i name="time" type="string">20:39:35 </i>
 </generator>
 <incar>
  <i type="int" name="ISTART">     0</i>
  <i type="string" name="PREC">accurate</i>
  <i type="string" name="ALGO"> Fast</i>
  <i type="int" name="ICHARG">     2</i>
  <i type="int" name="NELMIN">     4</i>
  <i type="int" name="IBRION">     2</i>
  <i name="EDIFF">      0.00000100</i>
  <i name="EDIFFG">     -0.02000000</i>
  <i type="int" name="NSW">   100</i>
  <i type="int" name="ISIF">     2</i>
  <i type="int" name="ISYM">     0</i>
  <i name="ENCUT">    500.00000000</i>
  <i name="POTIM">      0.20000000</i>
  <i type="int" name="ISMEAR">     0</i>
  <i name="SIGMA">      0.10000000</i>
  <i type="logical" name="LWAVE"> F  </i>
  <i type="logical" name="LCHARG"> F  </i>
  <v type="int" name="KPOINT_BSE">    -1     0     0     0</v>
 </incar>
 <structure name="primitive_cell" >
  <crystal>
   <varray name="basis" >
    <v>       4.15438262      -0.45698211      -0.45698215 </v>
    <v>      -0.45698209       4.15438220      -0.45698190 </v>
    <v>      -0.45698213      -0.45698191       4.15438227 </v>
   </varray>
   <i name="volume">     68.90646315 </i>
   <varray name="rec_basis" >
    <v>       0.24743774       0.03058219       0.03058220 </v>
    <v>       0.03058220       0.24743776       0.03058219 </v>
    <v>       0.03058220       0.03058219       0.24743776 </v>
   </varray>
  </crystal>
  <varray name="positions" >
   <v>      -0.00000000       0.00000000       0.00000000 </v>
   <v>      -0.50000000      -0.00000000       0.50000000 </v>
   <v>       0.50000000      -0.50000000      -0.00000000 </v>
   <v>       0.00000000       0.50000000      -0.50000000 </v>
  </varray>
 </structure>
 <varray name="primitive_index" >
  <v type="int" >        1 </v>
  <v type="int" >        3 </v>
  <v type="int" >        4 </v>
  <v type="int" >        2 </v>
 </varray>
 <kpoints>
  <generation param="Gamma">
   <v type="int" name="divisions">      15       15       15 </v>
   <v name="usershift">      0.00000000       0.00000000       0.00000000 </v>
   <v name="genvec1">      0.06666667      -0.00000000       0.00000000 </v>
   <v name="genvec2">      0.00000000       0.06666667       0.00000000 </v>
   <v name="genvec3">      0.00000000       0.00000000       0.06666667 </v>
   <v name="shift">      0.00000000       0.00000000       0.00000000 </v>
  </generation>
  <varray name="kpointlist" >
   <v>       0.00000000       0.00000000       0.00000000 </v>
   <v>       0.06666667      -0.00000000       0.00000000 </v>
   <v>       0.13333333       0.00000000       0.00000000 </v>
   <v>       0.20000000      -0.00000000      -0.00000000 </v>
   <v>       0.26666667      -0.00000000       0.00000000 </v>
   <v>       0.33333333       0.00000000       0.00000000 </v>
   <v>       0.40000000      -0.00000000      -0.00000000 </v>
   <v>       0.46666667      -0.00000000       0.00000000 </v>
   <v>      -0.00000000       0.06666667       0.00000000 </v>
   <v>       0.06666667       0.06666667       0.00000000 </v>
   <v>       0.13333333       0.06666667       0.00000000 </v>
   <v>       0.20000000       0.06666667       0.00000000 </v>
   <v>       0.26666667       0.06666667       0.00000000 </v>
   <v>       0.33333333       0.06666667       0.00000000 </v>
   <v>       0.40000000       0.06666667      -0.00000000 </v>
   <v>       0.46666667       0.06666667       0.00000000 </v>
   <v>      -0.46666667       0.06666667       0.00000000 </v>
   <v>      -0.40000000       0.06666667       0.00000000 </v>
   <v>      -0.33333333       0.06666667      -0.00000000 </v>
   <v>      -0.26666667       0.06666667      -0.00000000 </v>
   <v>      -0.20000000       0.06666667       0.00000000 </v>
   <v>      -0.13333333       0.06666667       0.00000000 </v>
   <v>      -0.06666667       0.06666667       0.00000000 </v>
   <v>      -0.00000000       0.13333333       0.00000000 </v>
   <v>       0.06666667       0.13333333       0.00000000 </v>
   <v>       0.13333333       0.13333333       0.00000000 </v>
   <v>       0.20000000       0.13333333       0.00000000 </v>
   <v>       0.26666667       0.13333333       0.00000000 </v>
   <v>       0.33333333       0.13333333       0.00000000 </v>
   <v>       0.40000000       0.13333333       0.00000000 </v>
   <v>       0.46666667       0.13333333       0.00000000 </v>
   <v>      -0.46666667       0.13333333       0.00000000 </v>
   <v>      -0.40000000       0.13333333       0.00000000 </v>
   <v>      -0.33333333       0.13333333      -0.00000000 </v>
   <v>      -0.26666667       0.13333333       0.00000000 </v>
   <v>      -0.20000000       0.13333333       0.00000000 </v>
   <v>      -0.13333333       0.13333333       0.00000000 </v>
   <v>      -0.06666667       0.13333333       0.00000000 </v>
   <v>      -0.00000000       0.20000000       0.00000000 </v>
   <v>       0.06666667       0.20000000       0.00000000 </v>
   <v>       0.13333333       0.20000000       0.00000000 </v>
   <v>       0.20000000       0.20000000       0.00000000 </v>
   <v>       0.26666667       0.20000000       0.00000000 </v>
   <v>       0.33333333       0.20000000       0.00000000 </v>
   <v>       0.40000000       0.20000000      -0.00000000 </v>
   <v>       0.46666667       0.20000000       0.00000000 </v>
   <v>      -0.46666667       0.20000000       0.00000000 </v>
   <v>      -0.40000000       0.20000000       0.00000000 </v>
   <v>      -0.33333333       0.20000000      -0.00000000 </v>
   <v>      -0.26666667       0.20000000       0.00000000 </v>
   <v>      -0.20000000       0.20000000       0.00000000 </v>
   <v>      -0.13333333       0.20000000       0.00000000 </v>
   <v>      -0.06666667       0.20000000       0.00000000 </v>
   <v>      -0.00000000       0.26666667       0.00000000 </v>
   <v>       0.06666667       0.26666667       0.00000000 </v>
   <v>       0.13333333       0.26666667       0.00000000 </v>
   <v>       0.20000000       0.26666667       0.00000000 </v>
   <v>       0.26666667       0.26666667       0.00000000 </v>
   <v>       0.33333333       0.26666667       0.00000000 </v>
   <v>       0.40000000       0.26666667       0.00000000 </v>
   <v>       0.46666667       0.26666667       0.00000000 </v>
   <v>      -0.46666667       0.26666667       0.00000000 </v>
   <v>      -0.40000000       0.26666667       0.00000000 </v>
   <v>      -0.33333333       0.26666667       0.00000000 </v>
   <v>      -0.26666667       0.26666667       0.00000000 </v>
   <v>      -0.20000000       0.26666667       0.00000000 </v>
   <v>      -0.13333333       0.26666667       0.00000000 </v>
   <v>      -0.06666667       0.26666667       0.00000000 </v>
   <v>      -0.00000000       0.33333333       0.00000000 </v>
   <v>       0.06666667       0.33333333       0.00000000 </v>
   <v>       0.13333333       0.33333333       0.00000000 </v>
   <v>       0.20000000       0.33333333       0.00000000 </v>
   <v>       0.26666667       0.33333333       0.00000000 </v>
   <v>       0.33333333       0.33333333       0.00000000 </v>
   <v>       0.40000000       0.33333333       0.00000000 </v>
   <v>       0.46666667       0.33333333       0.00000000 </v>
   <v>      -0.46666667       0.33333333       0.00000000 </v>
   <v>      -0.40000000       0.33333333       0.00000000 </v>
   <v>      -0.33333333       0.33333333       0.00000000 </v>
   <v>      -0.26666667       0.33333333       0.00000000 </v>
   <v>      -0.20000000       0.33333333       0.00000000 </v>
   <v>      -0.13333333       0.33333333       0.00000000 </v>
   <v>      -0.06666667       0.33333333       0.00000000 </v>
   <v>      -0.00000000       0.40000000       0.00000000 </v>
   <v>       0.06666667       0.40000000       0.00000000 </v>
   <v>       0.13333333       0.40000000       0.00000000 </v>
   <v>       0.20000000       0.40000000       0.00000000 </v>
   <v>       0.26666667       0.40000000       0.00000000 </v>
   <v>       0.33333333       0.40000000       0.00000000 </v>
   <v>       0.40000000       0.40000000       0.00000000 </v>
   <v>       0.46666667       0.40000000       0.00000000 </v>
   <v>      -0.46666667       0.40000000       0.00000000 </v>
   <v>      -0.40000000       0.40000000       0.00000000 </v>
   <v>      -0.33333333       0.40000000       0.00000000 </v>
   <v>      -0.26666667       0.40000000       0.00000000 </v>
   <v>      -0.20000000       0.40000000       0.00000000 </v>
   <v>      -0.13333333       0.40000000       0.00000000 </v>
   <v>      -0.06666667       0.40000000       0.00000000 </v>
   <v>      -0.00000000       0.46666667       0.00000000 </v>
   <v>       0.06666667       0.46666667       0.00000000 </v>
   <v>       0.13333333       0.46666667       0.00000000 </v>
   <v>       0.20000000       0.46666667       0.00000000 </v>
   <v>       0.26666667       0.46666667       0.00000000 </v>
   <v>       0.33333333       0.46666667       0.00000000 </v>
   <v>       0.40000000       0.46666667       0.00000000 </v>
   <v>       0.46666667       0.46666667       0.00000000 </v>
   <v>      -0.46666667       0.46666667       0.00000000 </v>
   <v>      -0.40000000       0.46666667       0.00000000 </v>
   <v>      -0.33333333       0.46666667       0.00000000 </v>
   <v>      -0.26666667       0.46666667       0.00000000 </v>
   <v>      -0.20000000       0.46666667       0.00000000 </v>
   <v>      -0.13333333       0.46666667       0.00000000 </v>
   <v>      -0.06666667       0.46666667       0.00000000 </v>
   <v>      -0.00000000      -0.00000000       0.06666667 </v>
   <v>       0.06666667      -0.00000000       0.06666667 </v>
   <v>       0.13333333      -0.00000000       0.06666667 </v>
   <v>       0.20000000      -0.00000000       0.06666667 </v>
   <v>       0.26666667      -0.00000000       0.06666667 </v>
   <v>       0.33333333       0.00000000       0.06666667 </v>
   <v>       0.40000000      -0.00000000       0.06666667 </v>
   <v>       0.46666667       0.00000000       0.06666667 </v>
   <v>      -0.46666667       0.00000000       0.06666667 </v>
   <v>      -0.40000000       0.00000000       0.06666667 </v>
   <v>      -0.33333333       0.00000000       0.06666667 </v>
   <v>      -0.26666667       0.00000000       0.06666667 </v>
   <v>      -0.20000000       0.00000000       0.06666667 </v>
   <v>      -0.13333333       0.00000000       0.06666667 </v>
   <v>      -0.06666667       0.00000000       0.06666667 </v>
   <v>      -0.00000000       0.06666667       0.06666667 </v>
   <v>       0.06666667       0.06666667       0.06666667 </v>
   <v>       0.13333333       0.06666667       0.06666667 </v>
   <v>       0.20000000       0.06666667       0.06666667 </v>
   <v>       0.26666667       0.06666667       0.06666667 </v>
   <v>       0.33333333       0.06666667       0.06666667 </v>
   <v>       0.40000000       0.06666667       0.06666667 </v>
   <v>       0.46666667       0.06666667       0.06666667 </v>
   <v>      -0.46666667       0.06666667       0.06666667 </v>
   <v>      -0.40000000       0.06666667       0.06666667 </v>
   <v>      -0.33333333       0.06666667       0.06666667 </v>
   <v>      -0.26666667       0.06666667       0.06666667 </v>
   <v>      -0.20000000       0.06666667       0.06666667 </v>
   <v>      -0.13333333       0.06666667       0.06666667 </v>
   <v>      -0.06666667       0.06666667       0.06666667 </v>
   <v>      -0.00000000       0.13333333       0.06666667 </v>
   <v>       0.06666667       0.13333333       0.06666667 </v>
   <v>       0.13333333       0.13333333       0.06666667 </v>
   <v>       0.20000000       0.13333333       0.06666667 </v>
   <v>       0.26666667       0.13333333       0.06666667 </v>
   <v>       0.33333333       0.13333333       0.06666667 </v>
   <v>       0.40000000       0.13333333       0.06666667 </v>
   <v>       0.46666667       0.13333333       0.06666667 </v>
   <v>      -0.46666667       0.13333333       0.06666667 </v>
   <v>      -0.40000000       0.13333333       0.06666667 </v>
   <v>      -0.33333333       0.13333333       0.06666667 </v>
   <v>      -0.26666667       0.13333333       0.06666667 </v>
   <v>      -0.20000000       0.13333333       0.06666667 </v>
   <v>      -0.13333333       0.13333333       0.06666667 </v>
   <v>      -0.06666667       0.13333333       0.06666667 </v>
   <v>      -0.00000000       0.20000000       0.06666667 </v>
   <v>       0.06666667       0.20000000       0.06666667 </v>
   <v>       0.13333333       0.20000000       0.06666667 </v>
   <v>       0.20000000       0.20000000       0.06666667 </v>
   <v>       0.26666667       0.20000000       0.06666667 </v>
   <v>       0.33333333       0.20000000       0.06666667 </v>
   <v>       0.40000000       0.20000000       0.06666667 </v>
   <v>       0.46666667       0.20000000       0.06666667 </v>
   <v>      -0.46666667       0.20000000       0.06666667 </v>
   <v>      -0.40000000       0.20000000       0.06666667 </v>
   <v>      -0.33333333       0.20000000       0.06666667 </v>
   <v>      -0.26666667       0.20000000       0.06666667 </v>
   <v>      -0.20000000       0.20000000       0.06666667 </v>
   <v>      -0.13333333       0.20000000       0.06666667 </v>
   <v>      -0.06666667       0.20000000       0.06666667 </v>
   <v>       0.00000000       0.26666667       0.06666667 </v>
   <v>       0.06666667       0.26666667       0.06666667 </v>
   <v>       0.13333333       0.26666667       0.06666667 </v>
   <v>       0.20000000       0.26666667       0.06666667 </v>
   <v>       0.26666667       0.26666667       0.06666667 </v>
   <v>       0.33333333       0.26666667       0.06666667 </v>
   <v>       0.40000000       0.26666667       0.06666667 </v>
   <v>       0.46666667       0.26666667       0.06666667 </v>
   <v>      -0.46666667       0.26666667       0.06666667 </v>
   <v>      -0.40000000       0.26666667       0.06666667 </v>
   <v>      -0.33333333       0.26666667       0.06666667 </v>
   <v>      -0.26666667       0.26666667       0.06666667 </v>
   <v>      -0.20000000       0.26666667       0.06666667 </v>
   <v>      -0.13333333       0.26666667       0.06666667 </v>
   <v>      -0.06666667       0.26666667       0.06666667 </v>
   <v>      -0.00000000       0.33333333       0.06666667 </v>
   <v>       0.06666667       0.33333333       0.06666667 </v>
   <v>       0.13333333       0.33333333       0.06666667 </v>
   <v>       0.20000000       0.33333333       0.06666667 </v>
   <v>       0.26666667       0.33333333       0.06666667 </v>
   <v>       0.33333333       0.33333333       0.06666667 </v>
   <v>       0.40000000       0.33333333       0.06666667 </v>
   <v>       0.46666667       0.33333333       0.06666667 </v>
   <v>      -0.46666667       0.33333333       0.06666667 </v>
   <v>      -0.40000000       0.33333333       0.06666667 </v>
   <v>      -0.33333333       0.33333333       0.06666667 </v>
   <v>      -0.26666667       0.33333333       0.06666667 </v>
   <v>      -0.20000000       0.33333333       0.06666667 </v>
   <v>      -0.13333333       0.33333333       0.06666667 </v>
   <v>      -0.06666667       0.33333333       0.06666667 </v>
   <v>       0.00000000       0.40000000       0.06666667 </v>
   <v>       0.06666667       0.40000000       0.06666667 </v>
   <v>       0.13333333       0.40000000       0.06666667 </v>
   <v>       0.20000000       0.40000000       0.06666667 </v>
   <v>       0.26666667       0.40000000       0.06666667 </v>
   <v>       0.33333333       0.40000000       0.06666667 </v>
   <v>       0.40000000       0.40000000       0.06666667 </v>
   <v>       0.46666667       0.40000000       0.06666667 </v>
   <v>      -0.46666667       0.40000000       0.06666667 </v>
   <v>      -0.40000000       0.40000000       0.06666667 </v>
   <v>      -0.33333333       0.40000000       0.06666667 </v>
   <v>      -0.26666667       0.40000000       0.06666667 </v>
   <v>      -0.20000000       0.40000000       0.06666667 </v>
   <v>      -0.13333333       0.40000000       0.06666667 </v>
   <v>      -0.06666667       0.40000000       0.06666667 </v>
   <v>      -0.00000000       0.46666667       0.06666667 </v>
   <v>       0.06666667       0.46666667       0.06666667 </v>
   <v>       0.13333333       0.46666667       0.06666667 </v>
   <v>       0.20000000       0.46666667       0.06666667 </v>
   <v>       0.26666667       0.46666667       0.06666667 </v>
   <v>       0.33333333       0.46666667       0.06666667 </v>
   <v>       0.40000000       0.46666667       0.06666667 </v>
   <v>       0.46666667       0.46666667       0.06666667 </v>
   <v>      -0.46666667       0.46666667       0.06666667 </v>
   <v>      -0.40000000       0.46666667       0.06666667 </v>
   <v>      -0.33333333       0.46666667       0.06666667 </v>
   <v>      -0.26666667       0.46666667       0.06666667 </v>
   <v>      -0.20000000       0.46666667       0.06666667 </v>
   <v>      -0.13333333       0.46666667       0.06666667 </v>
   <v>      -0.06666667       0.46666667       0.06666667 </v>
   <v>       0.00000000      -0.46666667       0.06666667 </v>
   <v>       0.06666667      -0.46666667       0.06666667 </v>
   <v>       0.13333333      -0.46666667       0.06666667 </v>
   <v>       0.20000000      -0.46666667       0.06666667 </v>
   <v>       0.26666667      -0.46666667       0.06666667 </v>
   <v>       0.33333333      -0.46666667       0.06666667 </v>
   <v>       0.40000000      -0.46666667       0.06666667 </v>
   <v>       0.46666667      -0.46666667       0.06666667 </v>
   <v>      -0.46666667      -0.46666667       0.06666667 </v>
   <v>      -0.40000000      -0.46666667       0.06666667 </v>
   <v>      -0.33333333      -0.46666667       0.06666667 </v>
   <v>      -0.26666667      -0.46666667       0.06666667 </v>
   <v>      -0.20000000      -0.46666667       0.06666667 </v>
   <v>      -0.13333333      -0.46666667       0.06666667 </v>
   <v>      -0.06666667      -0.46666667       0.06666667 </v>
   <v>       0.00000000      -0.40000000       0.06666667 </v>
   <v>       0.06666667      -0.40000000       0.06666667 </v>
   <v>       0.13333333      -0.40000000       0.06666667 </v>
   <v>       0.20000000      -0.40000000       0.06666667 </v>
   <v>       0.26666667      -0.40000000       0.06666667 </v>
   <v>       0.33333333      -0.40000000       0.06666667 </v>
   <v>       0.40000000      -0.40000000       0.06666667 </v>
   <v>       0.46666667      -0.40000000       0.06666667 </v>
   <v>      -0.46666667      -0.40000000       0.06666667 </v>
   <v>      -0.40000000      -0.40000000       0.06666667 </v>
   <v>      -0.33333333      -0.40000000       0.06666667 </v>
   <v>      -0.26666667      -0.40000000       0.06666667 </v>
   <v>      -0.20000000      -0.40000000       0.06666667 </v>
   <v>      -0.13333333      -0.40000000       0.06666667 </v>
   <v>      -0.06666667      -0.40000000       0.06666667 </v>
   <v>       0.00000000      -0.33333333       0.06666667 </v>
   <v>       0.06666667      -0.33333333       0.06666667 </v>
   <v>       0.13333333      -0.33333333       0.06666667 </v>
   <v>       0.20000000      -0.33333333       0.06666667 </v>
   <v>       0.26666667      -0.33333333       0.06666667 </v>
   <v>       0.33333333      -0.33333333       0.06666667 </v>
   <v>       0.40000000      -0.33333333       0.06666667 </v>
   <v>       0.46666667      -0.33333333       0.06666667 </v>
   <v>      -0.46666667      -0.33333333       0.06666667 </v>
   <v>      -0.40000000      -0.33333333       0.06666667 </v>
   <v>      -0.33333333      -0.33333333       0.06666667 </v>
   <v>      -0.26666667      -0.33333333       0.06666667 </v>
   <v>      -0.20000000      -0.33333333       0.06666667 </v>
   <v>      -0.13333333      -0.33333333       0.06666667 </v>
   <v>      -0.06666667      -0.33333333       0.06666667 </v>
   <v>       0.00000000      -0.26666667       0.06666667 </v>
   <v>       0.06666667      -0.26666667       0.06666667 </v>
   <v>       0.13333333      -0.26666667       0.06666667 </v>
   <v>       0.20000000      -0.26666667       0.06666667 </v>
   <v>       0.26666667      -0.26666667       0.06666667 </v>
   <v>       0.33333333      -0.26666667       0.06666667 </v>
   <v>       0.40000000      -0.26666667       0.06666667 </v>
   <v>       0.46666667      -0.26666667       0.06666667 </v>
   <v>      -0.46666667      -0.26666667       0.06666667 </v>
   <v>      -0.40000000      -0.26666667       0.06666667 </v>
   <v>      -0.33333333      -0.26666667       0.06666667 </v>
   <v>      -0.26666667      -0.26666667       0.06666667 </v>
   <v>      -0.20000000      -0.26666667       0.06666667 </v>
   <v>      -0.13333333      -0.26666667       0.06666667 </v>
   <v>      -0.06666667      -0.26666667       0.06666667 </v>
   <v>      -0.00000000      -0.20000000       0.06666667 </v>
   <v>       0.06666667      -0.20000000       0.06666667 </v>
   <v>       0.13333333      -0.20000000       0.06666667 </v>
   <v>       0.20000000      -0.20000000       0.06666667 </v>
   <v>       0.26666667      -0.20000000       0.06666667 </v>
   <v>       0.33333333      -0.20000000       0.06666667 </v>
   <v>       0.40000000      -0.20000000       0.06666667 </v>
   <v>       0.46666667      -0.20000000       0.06666667 </v>
   <v>      -0.46666667      -0.20000000       0.06666667 </v>
   <v>      -0.40000000      -0.20000000       0.06666667 </v>
   <v>      -0.33333333      -0.20000000       0.06666667 </v>
   <v>      -0.26666667      -0.20000000       0.06666667 </v>
   <v>      -0.20000000      -0.20000000       0.06666667 </v>
   <v>      -0.13333333      -0.20000000       0.06666667 </v>
   <v>      -0.06666667      -0.20000000       0.06666667 </v>
   <v>       0.00000000      -0.13333333       0.06666667 </v>
   <v>       0.06666667      -0.13333333       0.06666667 </v>
   <v>       0.13333333      -0.13333333       0.06666667 </v>
   <v>       0.20000000      -0.13333333       0.06666667 </v>
   <v>       0.26666667      -0.13333333       0.06666667 </v>
   <v>       0.33333333      -0.13333333       0.06666667 </v>
   <v>       0.40000000      -0.13333333       0.06666667 </v>
   <v>       0.46666667      -0.13333333       0.06666667 </v>
   <v>      -0.46666667      -0.13333333       0.06666667 </v>
   <v>      -0.40000000      -0.13333333       0.06666667 </v>
   <v>      -0.33333333      -0.13333333       0.06666667 </v>
   <v>      -0.26666667      -0.13333333       0.06666667 </v>
   <v>      -0.20000000      -0.13333333       0.06666667 </v>
   <v>      -0.13333333      -0.13333333       0.06666667 </v>
   <v>      -0.06666667      -0.13333333       0.06666667 </v>
   <v>       0.00000000      -0.06666667       0.06666667 </v>
   <v>       0.06666667      -0.06666667       0.06666667 </v>
   <v>       0.13333333      -0.06666667       0.06666667 </v>
   <v>       0.20000000      -0.06666667       0.06666667 </v>
   <v>       0.26666667      -0.06666667       0.06666667 </v>
   <v>       0.33333333      -0.06666667       0.06666667 </v>
   <v>       0.40000000      -0.06666667       0.06666667 </v>
   <v>       0.46666667      -0.06666667       0.06666667 </v>
   <v>      -0.46666667      -0.06666667       0.06666667 </v>
   <v>      -0.40000000      -0.06666667       0.06666667 </v>
   <v>      -0.33333333      -0.06666667       0.06666667 </v>
   <v>      -0.26666667      -0.06666667       0.06666667 </v>
   <v>      -0.20000000      -0.06666667       0.06666667 </v>
   <v>      -0.13333333      -0.06666667       0.06666667 </v>
   <v>      -0.06666667      -0.06666667       0.06666667 </v>
   <v>      -0.00000000       0.00000000       0.13333333 </v>
   <v>       0.06666667       0.00000000       0.13333333 </v>
   <v>       0.13333333      -0.00000000       0.13333333 </v>
   <v>       0.20000000      -0.00000000       0.13333333 </v>
   <v>       0.26666667      -0.00000000       0.13333333 </v>
   <v>       0.33333333      -0.00000000       0.13333333 </v>
   <v>       0.40000000      -0.00000000       0.13333333 </v>
   <v>       0.46666667      -0.00000000       0.13333333 </v>
   <v>      -0.46666667       0.00000000       0.13333333 </v>
   <v>      -0.40000000      -0.00000000       0.13333333 </v>
   <v>      -0.33333333       0.00000000       0.13333333 </v>
   <v>      -0.26666667       0.00000000       0.13333333 </v>
   <v>      -0.20000000       0.00000000       0.13333333 </v>
   <v>      -0.13333333       0.00000000       0.13333333 </v>
   <v>      -0.06666667       0.00000000       0.13333333 </v>
   <v>      -0.00000000       0.06666667       0.13333333 </v>
   <v>       0.06666667       0.06666667       0.13333333 </v>
   <v>       0.13333333       0.06666667       0.13333333 </v>
   <v>       0.20000000       0.06666667       0.13333333 </v>
   <v>       0.26666667       0.06666667       0.13333333 </v>
   <v>       0.33333333       0.06666667       0.13333333 </v>
   <v>       0.40000000       0.06666667       0.13333333 </v>
   <v>       0.46666667       0.06666667       0.13333333 </v>
   <v>      -0.46666667       0.06666667       0.13333333 </v>
   <v>      -0.40000000       0.06666667       0.13333333 </v>
   <v>      -0.33333333       0.06666667       0.13333333 </v>
   <v>      -0.26666667       0.06666667       0.13333333 </v>
   <v>      -0.20000000       0.06666667       0.13333333 </v>
   <v>      -0.13333333       0.06666667       0.13333333 </v>
   <v>      -0.06666667       0.06666667       0.13333333 </v>
   <v>      -0.00000000       0.13333333       0.13333333 </v>
   <v>       0.06666667       0.13333333       0.13333333 </v>
   <v>       0.13333333       0.13333333       0.13333333 </v>
   <v>       0.20000000       0.13333333       0.13333333 </v>
   <v>       0.26666667       0.13333333       0.13333333 </v>
   <v>       0.33333333       0.13333333       0.13333333 </v>
   <v>       0.40000000       0.13333333       0.13333333 </v>
   <v>       0.46666667       0.13333333       0.13333333 </v>
   <v>      -0.46666667       0.13333333       0.13333333 </v>
   <v>      -0.40000000       0.13333333       0.13333333 </v>
   <v>      -0.33333333       0.13333333       0.13333333 </v>
   <v>      -0.26666667       0.13333333       0.13333333 </v>
   <v>      -0.20000000       0.13333333       0.13333333 </v>
   <v>      -0.13333333       0.13333333       0.13333333 </v>
   <v>      -0.06666667       0.13333333       0.13333333 </v>
   <v>      -0.00000000       0.20000000       0.13333333 </v>
   <v>       0.06666667       0.20000000       0.13333333 </v>
   <v>       0.13333333       0.20000000       0.13333333 </v>
   <v>       0.20000000       0.20000000       0.13333333 </v>
   <v>       0.26666667       0.20000000       0.13333333 </v>
   <v>       0.33333333       0.20000000       0.13333333 </v>
   <v>       0.40000000       0.20000000       0.13333333 </v>
   <v>       0.46666667       0.20000000       0.13333333 </v>
   <v>      -0.46666667       0.20000000       0.13333333 </v>
   <v>      -0.40000000       0.20000000       0.13333333 </v>
   <v>      -0.33333333       0.20000000       0.13333333 </v>
   <v>      -0.26666667       0.20000000       0.13333333 </v>
   <v>      -0.20000000       0.20000000       0.13333333 </v>
   <v>      -0.13333333       0.20000000       0.13333333 </v>
   <v>      -0.06666667       0.20000000       0.13333333 </v>
   <v>      -0.00000000       0.26666667       0.13333333 </v>
   <v>       0.06666667       0.26666667       0.13333333 </v>
   <v>       0.13333333       0.26666667       0.13333333 </v>
   <v>       0.20000000       0.26666667       0.13333333 </v>
   <v>       0.26666667       0.26666667       0.13333333 </v>
   <v>       0.33333333       0.26666667       0.13333333 </v>
   <v>       0.40000000       0.26666667       0.13333333 </v>
   <v>       0.46666667       0.26666667       0.13333333 </v>
   <v>      -0.46666667       0.26666667       0.13333333 </v>
   <v>      -0.40000000       0.26666667       0.13333333 </v>
   <v>      -0.33333333       0.26666667       0.13333333 </v>
   <v>      -0.26666667       0.26666667       0.13333333 </v>
   <v>      -0.20000000       0.26666667       0.13333333 </v>
   <v>      -0.13333333       0.26666667       0.13333333 </v>
   <v>      -0.06666667       0.26666667       0.13333333 </v>
   <v>      -0.00000000       0.33333333       0.13333333 </v>
   <v>       0.06666667       0.33333333       0.13333333 </v>
   <v>       0.13333333       0.33333333       0.13333333 </v>
   <v>       0.20000000       0.33333333       0.13333333 </v>
   <v>       0.26666667       0.33333333       0.13333333 </v>
   <v>       0.33333333       0.33333333       0.13333333 </v>
   <v>       0.40000000       0.33333333       0.13333333 </v>
   <v>       0.46666667       0.33333333       0.13333333 </v>
   <v>      -0.46666667       0.33333333       0.13333333 </v>
   <v>      -0.40000000       0.33333333       0.13333333 </v>
   <v>      -0.33333333       0.33333333       0.13333333 </v>
   <v>      -0.26666667       0.33333333       0.13333333 </v>
   <v>      -0.20000000       0.33333333       0.13333333 </v>
   <v>      -0.13333333       0.33333333       0.13333333 </v>
   <v>      -0.06666667       0.33333333       0.13333333 </v>
   <v>      -0.00000000       0.40000000       0.13333333 </v>
   <v>       0.06666667       0.40000000       0.13333333 </v>
   <v>       0.13333333       0.40000000       0.13333333 </v>
   <v>       0.20000000       0.40000000       0.13333333 </v>
   <v>       0.26666667       0.40000000       0.13333333 </v>
   <v>       0.33333333       0.40000000       0.13333333 </v>
   <v>       0.40000000       0.40000000       0.13333333 </v>
   <v>       0.46666667       0.40000000       0.13333333 </v>
   <v>      -0.46666667       0.40000000       0.13333333 </v>
   <v>      -0.40000000       0.40000000       0.13333333 </v>
   <v>      -0.33333333       0.40000000       0.13333333 </v>
   <v>      -0.26666667       0.40000000       0.13333333 </v>
   <v>      -0.20000000       0.40000000       0.13333333 </v>
   <v>      -0.13333333       0.40000000       0.13333333 </v>
   <v>      -0.06666667       0.40000000       0.13333333 </v>
   <v>      -0.00000000       0.46666667       0.13333333 </v>
   <v>       0.06666667       0.46666667       0.13333333 </v>
   <v>       0.13333333       0.46666667       0.13333333 </v>
   <v>       0.20000000       0.46666667       0.13333333 </v>
   <v>       0.26666667       0.46666667       0.13333333 </v>
   <v>       0.33333333       0.46666667       0.13333333 </v>
   <v>       0.40000000       0.46666667       0.13333333 </v>
   <v>       0.46666667       0.46666667       0.13333333 </v>
   <v>      -0.46666667       0.46666667       0.13333333 </v>
   <v>      -0.40000000       0.46666667       0.13333333 </v>
   <v>      -0.33333333       0.46666667       0.13333333 </v>
   <v>      -0.26666667       0.46666667       0.13333333 </v>
   <v>      -0.20000000       0.46666667       0.13333333 </v>
   <v>      -0.13333333       0.46666667       0.13333333 </v>
   <v>      -0.06666667       0.46666667       0.13333333 </v>
   <v>       0.00000000      -0.46666667       0.13333333 </v>
   <v>       0.06666667      -0.46666667       0.13333333 </v>
   <v>       0.13333333      -0.46666667       0.13333333 </v>
   <v>       0.20000000      -0.46666667       0.13333333 </v>
   <v>       0.26666667      -0.46666667       0.13333333 </v>
   <v>       0.33333333      -0.46666667       0.13333333 </v>
   <v>       0.40000000      -0.46666667       0.13333333 </v>
   <v>       0.46666667      -0.46666667       0.13333333 </v>
   <v>      -0.46666667      -0.46666667       0.13333333 </v>
   <v>      -0.40000000      -0.46666667       0.13333333 </v>
   <v>      -0.33333333      -0.46666667       0.13333333 </v>
   <v>      -0.26666667      -0.46666667       0.13333333 </v>
   <v>      -0.20000000      -0.46666667       0.13333333 </v>
   <v>      -0.13333333      -0.46666667       0.13333333 </v>
   <v>      -0.06666667      -0.46666667       0.13333333 </v>
   <v>       0.00000000      -0.40000000       0.13333333 </v>
   <v>       0.06666667      -0.40000000       0.13333333 </v>
   <v>       0.13333333      -0.40000000       0.13333333 </v>
   <v>       0.20000000      -0.40000000       0.13333333 </v>
   <v>       0.26666667      -0.40000000       0.13333333 </v>
   <v>       0.33333333      -0.40000000       0.13333333 </v>
   <v>       0.40000000      -0.40000000       0.13333333 </v>
   <v>       0.46666667      -0.40000000       0.13333333 </v>
   <v>      -0.46666667      -0.40000000       0.13333333 </v>
   <v>      -0.40000000      -0.40000000       0.13333333 </v>
   <v>      -0.33333333      -0.40000000       0.13333333 </v>
   <v>      -0.26666667      -0.40000000       0.13333333 </v>
   <v>      -0.20000000      -0.40000000       0.13333333 </v>
   <v>      -0.13333333      -0.40000000       0.13333333 </v>
   <v>      -0.06666667      -0.40000000       0.13333333 </v>
   <v>       0.00000000      -0.33333333       0.13333333 </v>
   <v>       0.06666667      -0.33333333       0.13333333 </v>
   <v>       0.13333333      -0.33333333       0.13333333 </v>
   <v>       0.20000000      -0.33333333       0.13333333 </v>
   <v>       0.26666667      -0.33333333       0.13333333 </v>
   <v>       0.33333333      -0.33333333       0.13333333 </v>
   <v>       0.40000000      -0.33333333       0.13333333 </v>
   <v>       0.46666667      -0.33333333       0.13333333 </v>
   <v>      -0.46666667      -0.33333333       0.13333333 </v>
   <v>      -0.40000000      -0.33333333       0.13333333 </v>
   <v>      -0.33333333      -0.33333333       0.13333333 </v>
   <v>      -0.26666667      -0.33333333       0.13333333 </v>
   <v>      -0.20000000      -0.33333333       0.13333333 </v>
   <v>      -0.13333333      -0.33333333       0.13333333 </v>
   <v>      -0.06666667      -0.33333333       0.13333333 </v>
   <v>       0.00000000      -0.26666667       0.13333333 </v>
   <v>       0.06666667      -0.26666667       0.13333333 </v>
   <v>       0.13333333      -0.26666667       0.13333333 </v>
   <v>       0.20000000      -0.26666667       0.13333333 </v>
   <v>       0.26666667      -0.26666667       0.13333333 </v>
   <v>       0.33333333      -0.26666667       0.13333333 </v>
   <v>       0.40000000      -0.26666667       0.13333333 </v>
   <v>       0.46666667      -0.26666667       0.13333333 </v>
   <v>      -0.46666667      -0.26666667       0.13333333 </v>
   <v>      -0.40000000      -0.26666667       0.13333333 </v>
   <v>      -0.33333333      -0.26666667       0.13333333 </v>
   <v>      -0.26666667      -0.26666667       0.13333333 </v>
   <v>      -0.20000000      -0.26666667       0.13333333 </v>
   <v>      -0.13333333      -0.26666667       0.13333333 </v>
   <v>      -0.06666667      -0.26666667       0.13333333 </v>
   <v>       0.00000000      -0.20000000       0.13333333 </v>
   <v>       0.06666667      -0.20000000       0.13333333 </v>
   <v>       0.13333333      -0.20000000       0.13333333 </v>
   <v>       0.20000000      -0.20000000       0.13333333 </v>
   <v>       0.26666667      -0.20000000       0.13333333 </v>
   <v>       0.33333333      -0.20000000       0.13333333 </v>
   <v>       0.40000000      -0.20000000       0.13333333 </v>
   <v>       0.46666667      -0.20000000       0.13333333 </v>
   <v>      -0.46666667      -0.20000000       0.13333333 </v>
   <v>      -0.40000000      -0.20000000       0.13333333 </v>
   <v>      -0.33333333      -0.20000000       0.13333333 </v>
   <v>      -0.26666667      -0.20000000       0.13333333 </v>
   <v>      -0.20000000      -0.20000000       0.13333333 </v>
   <v>      -0.13333333      -0.20000000       0.13333333 </v>
   <v>      -0.06666667      -0.20000000       0.13333333 </v>
   <v>       0.00000000      -0.13333333       0.13333333 </v>
   <v>       0.06666667      -0.13333333       0.13333333 </v>
   <v>       0.13333333      -0.13333333       0.13333333 </v>
   <v>       0.20000000      -0.13333333       0.13333333 </v>
   <v>       0.26666667      -0.13333333       0.13333333 </v>
   <v>       0.33333333      -0.13333333       0.13333333 </v>
   <v>       0.40000000      -0.13333333       0.13333333 </v>
   <v>       0.46666667      -0.13333333       0.13333333 </v>
   <v>      -0.46666667      -0.13333333       0.13333333 </v>
   <v>      -0.40000000      -0.13333333       0.13333333 </v>
   <v>      -0.33333333      -0.13333333       0.13333333 </v>
   <v>      -0.26666667      -0.13333333       0.13333333 </v>
   <v>      -0.20000000      -0.13333333       0.13333333 </v>
   <v>      -0.13333333      -0.13333333       0.13333333 </v>
   <v>      -0.06666667      -0.13333333       0.13333333 </v>
   <v>      -0.00000000      -0.06666667       0.13333333 </v>
   <v>       0.06666667      -0.06666667       0.13333333 </v>
   <v>       0.13333333      -0.06666667       0.13333333 </v>
   <v>       0.20000000      -0.06666667       0.13333333 </v>
   <v>       0.26666667      -0.06666667       0.13333333 </v>
   <v>       0.33333333      -0.06666667       0.13333333 </v>
   <v>       0.40000000      -0.06666667       0.13333333 </v>
   <v>       0.46666667      -0.06666667       0.13333333 </v>
   <v>      -0.46666667      -0.06666667       0.13333333 </v>
   <v>      -0.40000000      -0.06666667       0.13333333 </v>
   <v>      -0.33333333      -0.06666667       0.13333333 </v>
   <v>      -0.26666667      -0.06666667       0.13333333 </v>
   <v>      -0.20000000      -0.06666667       0.13333333 </v>
   <v>      -0.13333333      -0.06666667       0.13333333 </v>
   <v>      -0.06666667      -0.06666667       0.13333333 </v>
   <v>       0.00000000       0.00000000       0.20000000 </v>
   <v>       0.06666667       0.00000000       0.20000000 </v>
   <v>       0.13333333      -0.00000000       0.20000000 </v>
   <v>       0.20000000      -0.00000000       0.20000000 </v>
   <v>       0.26666667      -0.00000000       0.20000000 </v>
   <v>       0.33333333      -0.00000000       0.20000000 </v>
   <v>       0.40000000       0.00000000       0.20000000 </v>
   <v>       0.46666667      -0.00000000       0.20000000 </v>
   <v>      -0.46666667       0.00000000       0.20000000 </v>
   <v>      -0.40000000       0.00000000       0.20000000 </v>
   <v>      -0.33333333      -0.00000000       0.20000000 </v>
   <v>      -0.26666667       0.00000000       0.20000000 </v>
   <v>      -0.20000000      -0.00000000       0.20000000 </v>
   <v>      -0.13333333       0.00000000       0.20000000 </v>
   <v>      -0.06666667      -0.00000000       0.20000000 </v>
   <v>       0.00000000       0.06666667       0.20000000 </v>
   <v>       0.06666667       0.06666667       0.20000000 </v>
   <v>       0.13333333       0.06666667       0.20000000 </v>
   <v>       0.20000000       0.06666667       0.20000000 </v>
   <v>       0.26666667       0.06666667       0.20000000 </v>
   <v>       0.33333333       0.06666667       0.20000000 </v>
   <v>       0.40000000       0.06666667       0.20000000 </v>
   <v>       0.46666667       0.06666667       0.20000000 </v>
   <v>      -0.46666667       0.06666667       0.20000000 </v>
   <v>      -0.40000000       0.06666667       0.20000000 </v>
   <v>      -0.33333333       0.06666667       0.20000000 </v>
   <v>      -0.26666667       0.06666667       0.20000000 </v>
   <v>      -0.20000000       0.06666667       0.20000000 </v>
   <v>      -0.13333333       0.06666667       0.20000000 </v>
   <v>      -0.06666667       0.06666667       0.20000000 </v>
   <v>      -0.00000000       0.13333333       0.20000000 </v>
   <v>       0.06666667       0.13333333       0.20000000 </v>
   <v>       0.13333333       0.13333333       0.20000000 </v>
   <v>       0.20000000       0.13333333       0.20000000 </v>
   <v>       0.26666667       0.13333333       0.20000000 </v>
   <v>       0.33333333       0.13333333       0.20000000 </v>
   <v>       0.40000000       0.13333333       0.20000000 </v>
   <v>       0.46666667       0.13333333       0.20000000 </v>
   <v>      -0.46666667       0.13333333       0.20000000 </v>
   <v>      -0.40000000       0.13333333       0.20000000 </v>
   <v>      -0.33333333       0.13333333       0.20000000 </v>
   <v>      -0.26666667       0.13333333       0.20000000 </v>
   <v>      -0.20000000       0.13333333       0.20000000 </v>
   <v>      -0.13333333       0.13333333       0.20000000 </v>
   <v>      -0.06666667       0.13333333       0.20000000 </v>
   <v>      -0.00000000       0.20000000       0.20000000 </v>
   <v>       0.06666667       0.20000000       0.20000000 </v>
   <v>       0.13333333       0.20000000       0.20000000 </v>
   <v>       0.20000000       0.20000000       0.20000000 </v>
   <v>       0.26666667       0.20000000       0.20000000 </v>
   <v>       0.33333333       0.20000000       0.20000000 </v>
   <v>       0.40000000       0.20000000       0.20000000 </v>
   <v>       0.46666667       0.20000000       0.20000000 </v>
   <v>      -0.46666667       0.20000000       0.20000000 </v>
   <v>      -0.40000000       0.20000000       0.20000000 </v>
   <v>      -0.33333333       0.20000000       0.20000000 </v>
   <v>      -0.26666667       0.20000000       0.20000000 </v>
   <v>      -0.20000000       0.20000000       0.20000000 </v>
   <v>      -0.13333333       0.20000000       0.20000000 </v>
   <v>      -0.06666667       0.20000000       0.20000000 </v>
   <v>       0.00000000       0.26666667       0.20000000 </v>
   <v>       0.06666667       0.26666667       0.20000000 </v>
   <v>       0.13333333       0.26666667       0.20000000 </v>
   <v>       0.20000000       0.26666667       0.20000000 </v>
   <v>       0.26666667       0.26666667       0.20000000 </v>
   <v>       0.33333333       0.26666667       0.20000000 </v>
   <v>       0.40000000       0.26666667       0.20000000 </v>
   <v>       0.46666667       0.26666667       0.20000000 </v>
   <v>      -0.46666667       0.26666667       0.20000000 </v>
   <v>      -0.40000000       0.26666667       0.20000000 </v>
   <v>      -0.33333333       0.26666667       0.20000000 </v>
   <v>      -0.26666667       0.26666667       0.20000000 </v>
   <v>      -0.20000000       0.26666667       0.20000000 </v>
   <v>      -0.13333333       0.26666667       0.20000000 </v>
   <v>      -0.06666667       0.26666667       0.20000000 </v>
   <v>       0.00000000       0.33333333       0.20000000 </v>
   <v>       0.06666667       0.33333333       0.20000000 </v>
   <v>       0.13333333       0.33333333       0.20000000 </v>
   <v>       0.20000000       0.33333333       0.20000000 </v>
   <v>       0.26666667       0.33333333       0.20000000 </v>
   <v>       0.33333333       0.33333333       0.20000000 </v>
   <v>       0.40000000       0.33333333       0.20000000 </v>
   <v>       0.46666667       0.33333333       0.20000000 </v>
   <v>      -0.46666667       0.33333333       0.20000000 </v>
   <v>      -0.40000000       0.33333333       0.20000000 </v>
   <v>      -0.33333333       0.33333333       0.20000000 </v>
   <v>      -0.26666667       0.33333333       0.20000000 </v>
   <v>      -0.20000000       0.33333333       0.20000000 </v>
   <v>      -0.13333333       0.33333333       0.20000000 </v>
   <v>      -0.06666667       0.33333333       0.20000000 </v>
   <v>      -0.00000000       0.40000000       0.20000000 </v>
   <v>       0.06666667       0.40000000       0.20000000 </v>
   <v>       0.13333333       0.40000000       0.20000000 </v>
   <v>       0.20000000       0.40000000       0.20000000 </v>
   <v>       0.26666667       0.40000000       0.20000000 </v>
   <v>       0.33333333       0.40000000       0.20000000 </v>
   <v>       0.40000000       0.40000000       0.20000000 </v>
   <v>       0.46666667       0.40000000       0.20000000 </v>
   <v>      -0.46666667       0.40000000       0.20000000 </v>
   <v>      -0.40000000       0.40000000       0.20000000 </v>
   <v>      -0.33333333       0.40000000       0.20000000 </v>
   <v>      -0.26666667       0.40000000       0.20000000 </v>
   <v>      -0.20000000       0.40000000       0.20000000 </v>
   <v>      -0.13333333       0.40000000       0.20000000 </v>
   <v>      -0.06666667       0.40000000       0.20000000 </v>
   <v>      -0.00000000       0.46666667       0.20000000 </v>
   <v>       0.06666667       0.46666667       0.20000000 </v>
   <v>       0.13333333       0.46666667       0.20000000 </v>
   <v>       0.20000000       0.46666667       0.20000000 </v>
   <v>       0.26666667       0.46666667       0.20000000 </v>
   <v>       0.33333333       0.46666667       0.20000000 </v>
   <v>       0.40000000       0.46666667       0.20000000 </v>
   <v>       0.46666667       0.46666667       0.20000000 </v>
   <v>      -0.46666667       0.46666667       0.20000000 </v>
   <v>      -0.40000000       0.46666667       0.20000000 </v>
   <v>      -0.33333333       0.46666667       0.20000000 </v>
   <v>      -0.26666667       0.46666667       0.20000000 </v>
   <v>      -0.20000000       0.46666667       0.20000000 </v>
   <v>      -0.13333333       0.46666667       0.20000000 </v>
   <v>      -0.06666667       0.46666667       0.20000000 </v>
   <v>       0.00000000      -0.46666667       0.20000000 </v>
   <v>       0.06666667      -0.46666667       0.20000000 </v>
   <v>       0.13333333      -0.46666667       0.20000000 </v>
   <v>       0.20000000      -0.46666667       0.20000000 </v>
   <v>       0.26666667      -0.46666667       0.20000000 </v>
   <v>       0.33333333      -0.46666667       0.20000000 </v>
   <v>       0.40000000      -0.46666667       0.20000000 </v>
   <v>       0.46666667      -0.46666667       0.20000000 </v>
   <v>      -0.46666667      -0.46666667       0.20000000 </v>
   <v>      -0.40000000      -0.46666667       0.20000000 </v>
   <v>      -0.33333333      -0.46666667       0.20000000 </v>
   <v>      -0.26666667      -0.46666667       0.20000000 </v>
   <v>      -0.20000000      -0.46666667       0.20000000 </v>
   <v>      -0.13333333      -0.46666667       0.20000000 </v>
   <v>      -0.06666667      -0.46666667       0.20000000 </v>
   <v>       0.00000000      -0.40000000       0.20000000 </v>
   <v>       0.06666667      -0.40000000       0.20000000 </v>
   <v>       0.13333333      -0.40000000       0.20000000 </v>
   <v>       0.20000000      -0.40000000       0.20000000 </v>
   <v>       0.26666667      -0.40000000       0.20000000 </v>
   <v>       0.33333333      -0.40000000       0.20000000 </v>
   <v>       0.40000000      -0.40000000       0.20000000 </v>
   <v>       0.46666667      -0.40000000       0.20000000 </v>
   <v>      -0.46666667      -0.40000000       0.20000000 </v>
   <v>      -0.40000000      -0.40000000       0.20000000 </v>
   <v>      -0.33333333      -0.40000000       0.20000000 </v>
   <v>      -0.26666667      -0.40000000       0.20000000 </v>
   <v>      -0.20000000      -0.40000000       0.20000000 </v>
   <v>      -0.13333333      -0.40000000       0.20000000 </v>
   <v>      -0.06666667      -0.40000000       0.20000000 </v>
   <v>       0.00000000      -0.33333333       0.20000000 </v>
   <v>       0.06666667      -0.33333333       0.20000000 </v>
   <v>       0.13333333      -0.33333333       0.20000000 </v>
   <v>       0.20000000      -0.33333333       0.20000000 </v>
   <v>       0.26666667      -0.33333333       0.20000000 </v>
   <v>       0.33333333      -0.33333333       0.20000000 </v>
   <v>       0.40000000      -0.33333333       0.20000000 </v>
   <v>       0.46666667      -0.33333333       0.20000000 </v>
   <v>      -0.46666667      -0.33333333       0.20000000 </v>
   <v>      -0.40000000      -0.33333333       0.20000000 </v>
   <v>      -0.33333333      -0.33333333       0.20000000 </v>
   <v>      -0.26666667      -0.33333333       0.20000000 </v>
   <v>      -0.20000000      -0.33333333       0.20000000 </v>
   <v>      -0.13333333      -0.33333333       0.20000000 </v>
   <v>      -0.06666667      -0.33333333       0.20000000 </v>
   <v>       0.00000000      -0.26666667       0.20000000 </v>
   <v>       0.06666667      -0.26666667       0.20000000 </v>
   <v>       0.13333333      -0.26666667       0.20000000 </v>
   <v>       0.20000000      -0.26666667       0.20000000 </v>
   <v>       0.26666667      -0.26666667       0.20000000 </v>
   <v>       0.33333333      -0.26666667       0.20000000 </v>
   <v>       0.40000000      -0.26666667       0.20000000 </v>
   <v>       0.46666667      -0.26666667       0.20000000 </v>
   <v>      -0.46666667      -0.26666667       0.20000000 </v>
   <v>      -0.40000000      -0.26666667       0.20000000 </v>
   <v>      -0.33333333      -0.26666667       0.20000000 </v>
   <v>      -0.26666667      -0.26666667       0.20000000 </v>
   <v>      -0.20000000      -0.26666667       0.20000000 </v>
   <v>      -0.13333333      -0.26666667       0.20000000 </v>
   <v>      -0.06666667      -0.26666667       0.20000000 </v>
   <v>       0.00000000      -0.20000000       0.20000000 </v>
   <v>       0.06666667      -0.20000000       0.20000000 </v>
   <v>       0.13333333      -0.20000000       0.20000000 </v>
   <v>       0.20000000      -0.20000000       0.20000000 </v>
   <v>       0.26666667      -0.20000000       0.20000000 </v>
   <v>       0.33333333      -0.20000000       0.20000000 </v>
   <v>       0.40000000      -0.20000000       0.20000000 </v>
   <v>       0.46666667      -0.20000000       0.20000000 </v>
   <v>      -0.46666667      -0.20000000       0.20000000 </v>
   <v>      -0.40000000      -0.20000000       0.20000000 </v>
   <v>      -0.33333333      -0.20000000       0.20000000 </v>
   <v>      -0.26666667      -0.20000000       0.20000000 </v>
   <v>      -0.20000000      -0.20000000       0.20000000 </v>
   <v>      -0.13333333      -0.20000000       0.20000000 </v>
   <v>      -0.06666667      -0.20000000       0.20000000 </v>
   <v>       0.00000000      -0.13333333       0.20000000 </v>
   <v>       0.06666667      -0.13333333       0.20000000 </v>
   <v>       0.13333333      -0.13333333       0.20000000 </v>
   <v>       0.20000000      -0.13333333       0.20000000 </v>
   <v>       0.26666667      -0.13333333       0.20000000 </v>
   <v>       0.33333333      -0.13333333       0.20000000 </v>
   <v>       0.40000000      -0.13333333       0.20000000 </v>
   <v>       0.46666667      -0.13333333       0.20000000 </v>
   <v>      -0.46666667      -0.13333333       0.20000000 </v>
   <v>      -0.40000000      -0.13333333       0.20000000 </v>
   <v>      -0.33333333      -0.13333333       0.20000000 </v>
   <v>      -0.26666667      -0.13333333       0.20000000 </v>
   <v>      -0.20000000      -0.13333333       0.20000000 </v>
   <v>      -0.13333333      -0.13333333       0.20000000 </v>
   <v>      -0.06666667      -0.13333333       0.20000000 </v>
   <v>       0.00000000      -0.06666667       0.20000000 </v>
   <v>       0.06666667      -0.06666667       0.20000000 </v>
   <v>       0.13333333      -0.06666667       0.20000000 </v>
   <v>       0.20000000      -0.06666667       0.20000000 </v>
   <v>       0.26666667      -0.06666667       0.20000000 </v>
   <v>       0.33333333      -0.06666667       0.20000000 </v>
   <v>       0.40000000      -0.06666667       0.20000000 </v>
   <v>       0.46666667      -0.06666667       0.20000000 </v>
   <v>      -0.46666667      -0.06666667       0.20000000 </v>
   <v>      -0.40000000      -0.06666667       0.20000000 </v>
   <v>      -0.33333333      -0.06666667       0.20000000 </v>
   <v>      -0.26666667      -0.06666667       0.20000000 </v>
   <v>      -0.20000000      -0.06666667       0.20000000 </v>
   <v>      -0.13333333      -0.06666667       0.20000000 </v>
   <v>      -0.06666667      -0.06666667       0.20000000 </v>
   <v>       0.00000000       0.00000000       0.26666667 </v>
   <v>       0.06666667       0.00000000       0.26666667 </v>
   <v>       0.13333333       0.00000000       0.26666667 </v>
   <v>       0.20000000       0.00000000       0.26666667 </v>
   <v>       0.26666667      -0.00000000       0.26666667 </v>
   <v>       0.33333333       0.00000000       0.26666667 </v>
   <v>       0.40000000      -0.00000000       0.26666667 </v>
   <v>       0.46666667      -0.00000000       0.26666667 </v>
   <v>      -0.46666667       0.00000000       0.26666667 </v>
   <v>      -0.40000000       0.00000000       0.26666667 </v>
   <v>      -0.33333333       0.00000000       0.26666667 </v>
   <v>      -0.26666667       0.00000000       0.26666667 </v>
   <v>      -0.20000000       0.00000000       0.26666667 </v>
   <v>      -0.13333333       0.00000000       0.26666667 </v>
   <v>      -0.06666667       0.00000000       0.26666667 </v>
   <v>       0.00000000       0.06666667       0.26666667 </v>
   <v>       0.06666667       0.06666667       0.26666667 </v>
   <v>       0.13333333       0.06666667       0.26666667 </v>
   <v>       0.20000000       0.06666667       0.26666667 </v>
   <v>       0.26666667       0.06666667       0.26666667 </v>
   <v>       0.33333333       0.06666667       0.26666667 </v>
   <v>       0.40000000       0.06666667       0.26666667 </v>
   <v>       0.46666667       0.06666667       0.26666667 </v>
   <v>      -0.46666667       0.06666667       0.26666667 </v>
   <v>      -0.40000000       0.06666667       0.26666667 </v>
   <v>      -0.33333333       0.06666667       0.26666667 </v>
   <v>      -0.26666667       0.06666667       0.26666667 </v>
   <v>      -0.20000000       0.06666667       0.26666667 </v>
   <v>      -0.13333333       0.06666667       0.26666667 </v>
   <v>      -0.06666667       0.06666667       0.26666667 </v>
   <v>      -0.00000000       0.13333333       0.26666667 </v>
   <v>       0.06666667       0.13333333       0.26666667 </v>
   <v>       0.13333333       0.13333333       0.26666667 </v>
   <v>       0.20000000       0.13333333       0.26666667 </v>
   <v>       0.26666667       0.13333333       0.26666667 </v>
   <v>       0.33333333       0.13333333       0.26666667 </v>
   <v>       0.40000000       0.13333333       0.26666667 </v>
   <v>       0.46666667       0.13333333       0.26666667 </v>
   <v>      -0.46666667       0.13333333       0.26666667 </v>
   <v>      -0.40000000       0.13333333       0.26666667 </v>
   <v>      -0.33333333       0.13333333       0.26666667 </v>
   <v>      -0.26666667       0.13333333       0.26666667 </v>
   <v>      -0.20000000       0.13333333       0.26666667 </v>
   <v>      -0.13333333       0.13333333       0.26666667 </v>
   <v>      -0.06666667       0.13333333       0.26666667 </v>
   <v>      -0.00000000       0.20000000       0.26666667 </v>
   <v>       0.06666667       0.20000000       0.26666667 </v>
   <v>       0.13333333       0.20000000       0.26666667 </v>
   <v>       0.20000000       0.20000000       0.26666667 </v>
   <v>       0.26666667       0.20000000       0.26666667 </v>
   <v>       0.33333333       0.20000000       0.26666667 </v>
   <v>       0.40000000       0.20000000       0.26666667 </v>
   <v>       0.46666667       0.20000000       0.26666667 </v>
   <v>      -0.46666667       0.20000000       0.26666667 </v>
   <v>      -0.40000000       0.20000000       0.26666667 </v>
   <v>      -0.33333333       0.20000000       0.26666667 </v>
   <v>      -0.26666667       0.20000000       0.26666667 </v>
   <v>      -0.20000000       0.20000000       0.26666667 </v>
   <v>      -0.13333333       0.20000000       0.26666667 </v>
   <v>      -0.06666667       0.20000000       0.26666667 </v>
   <v>       0.00000000       0.26666667       0.26666667 </v>
   <v>       0.06666667       0.26666667       0.26666667 </v>
   <v>       0.13333333       0.26666667       0.26666667 </v>
   <v>       0.20000000       0.26666667       0.26666667 </v>
   <v>       0.26666667       0.26666667       0.26666667 </v>
   <v>       0.33333333       0.26666667       0.26666667 </v>
   <v>       0.40000000       0.26666667       0.26666667 </v>
   <v>       0.46666667       0.26666667       0.26666667 </v>
   <v>      -0.46666667       0.26666667       0.26666667 </v>
   <v>      -0.40000000       0.26666667       0.26666667 </v>
   <v>      -0.33333333       0.26666667       0.26666667 </v>
   <v>      -0.26666667       0.26666667       0.26666667 </v>
   <v>      -0.20000000       0.26666667       0.26666667 </v>
   <v>      -0.13333333       0.26666667       0.26666667 </v>
   <v>      -0.06666667       0.26666667       0.26666667 </v>
   <v>       0.00000000       0.33333333       0.26666667 </v>
   <v>       0.06666667       0.33333333       0.26666667 </v>
   <v>       0.13333333       0.33333333       0.26666667 </v>
   <v>       0.20000000       0.33333333       0.26666667 </v>
   <v>       0.26666667       0.33333333       0.26666667 </v>
   <v>       0.33333333       0.33333333       0.26666667 </v>
   <v>       0.40000000       0.33333333       0.26666667 </v>
   <v>       0.46666667       0.33333333       0.26666667 </v>
   <v>      -0.46666667       0.33333333       0.26666667 </v>
   <v>      -0.40000000       0.33333333       0.26666667 </v>
   <v>      -0.33333333       0.33333333       0.26666667 </v>
   <v>      -0.26666667       0.33333333       0.26666667 </v>
   <v>      -0.20000000       0.33333333       0.26666667 </v>
   <v>      -0.13333333       0.33333333       0.26666667 </v>
   <v>      -0.06666667       0.33333333       0.26666667 </v>
   <v>       0.00000000       0.40000000       0.26666667 </v>
   <v>       0.06666667       0.40000000       0.26666667 </v>
   <v>       0.13333333       0.40000000       0.26666667 </v>
   <v>       0.20000000       0.40000000       0.26666667 </v>
   <v>       0.26666667       0.40000000       0.26666667 </v>
   <v>       0.33333333       0.40000000       0.26666667 </v>
   <v>       0.40000000       0.40000000       0.26666667 </v>
   <v>       0.46666667       0.40000000       0.26666667 </v>
   <v>      -0.46666667       0.40000000       0.26666667 </v>
   <v>      -0.40000000       0.40000000       0.26666667 </v>
   <v>      -0.33333333       0.40000000       0.26666667 </v>
   <v>      -0.26666667       0.40000000       0.26666667 </v>
   <v>      -0.20000000       0.40000000       0.26666667 </v>
   <v>      -0.13333333       0.40000000       0.26666667 </v>
   <v>      -0.06666667       0.40000000       0.26666667 </v>
   <v>      -0.00000000       0.46666667       0.26666667 </v>
   <v>       0.06666667       0.46666667       0.26666667 </v>
   <v>       0.13333333       0.46666667       0.26666667 </v>
   <v>       0.20000000       0.46666667       0.26666667 </v>
   <v>       0.26666667       0.46666667       0.26666667 </v>
   <v>       0.33333333       0.46666667       0.26666667 </v>
   <v>       0.40000000       0.46666667       0.26666667 </v>
   <v>       0.46666667       0.46666667       0.26666667 </v>
   <v>      -0.46666667       0.46666667       0.26666667 </v>
   <v>      -0.40000000       0.46666667       0.26666667 </v>
   <v>      -0.33333333       0.46666667       0.26666667 </v>
   <v>      -0.26666667       0.46666667       0.26666667 </v>
   <v>      -0.20000000       0.46666667       0.26666667 </v>
   <v>      -0.13333333       0.46666667       0.26666667 </v>
   <v>      -0.06666667       0.46666667       0.26666667 </v>
   <v>       0.00000000      -0.46666667       0.26666667 </v>
   <v>       0.06666667      -0.46666667       0.26666667 </v>
   <v>       0.13333333      -0.46666667       0.26666667 </v>
   <v>       0.20000000      -0.46666667       0.26666667 </v>
   <v>       0.26666667      -0.46666667       0.26666667 </v>
   <v>       0.33333333      -0.46666667       0.26666667 </v>
   <v>       0.40000000      -0.46666667       0.26666667 </v>
   <v>       0.46666667      -0.46666667       0.26666667 </v>
   <v>      -0.46666667      -0.46666667       0.26666667 </v>
   <v>      -0.40000000      -0.46666667       0.26666667 </v>
   <v>      -0.33333333      -0.46666667       0.26666667 </v>
   <v>      -0.26666667      -0.46666667       0.26666667 </v>
   <v>      -0.20000000      -0.46666667       0.26666667 </v>
   <v>      -0.13333333      -0.46666667       0.26666667 </v>
   <v>      -0.06666667      -0.46666667       0.26666667 </v>
   <v>       0.00000000      -0.40000000       0.26666667 </v>
   <v>       0.06666667      -0.40000000       0.26666667 </v>
   <v>       0.13333333      -0.40000000       0.26666667 </v>
   <v>       0.20000000      -0.40000000       0.26666667 </v>
   <v>       0.26666667      -0.40000000       0.26666667 </v>
   <v>       0.33333333      -0.40000000       0.26666667 </v>
   <v>       0.40000000      -0.40000000       0.26666667 </v>
   <v>       0.46666667      -0.40000000       0.26666667 </v>
   <v>      -0.46666667      -0.40000000       0.26666667 </v>
   <v>      -0.40000000      -0.40000000       0.26666667 </v>
   <v>      -0.33333333      -0.40000000       0.26666667 </v>
   <v>      -0.26666667      -0.40000000       0.26666667 </v>
   <v>      -0.20000000      -0.40000000       0.26666667 </v>
   <v>      -0.13333333      -0.40000000       0.26666667 </v>
   <v>      -0.06666667      -0.40000000       0.26666667 </v>
   <v>       0.00000000      -0.33333333       0.26666667 </v>
   <v>       0.06666667      -0.33333333       0.26666667 </v>
   <v>       0.13333333      -0.33333333       0.26666667 </v>
   <v>       0.20000000      -0.33333333       0.26666667 </v>
   <v>       0.26666667      -0.33333333       0.26666667 </v>
   <v>       0.33333333      -0.33333333       0.26666667 </v>
   <v>       0.40000000      -0.33333333       0.26666667 </v>
   <v>       0.46666667      -0.33333333       0.26666667 </v>
   <v>      -0.46666667      -0.33333333       0.26666667 </v>
   <v>      -0.40000000      -0.33333333       0.26666667 </v>
   <v>      -0.33333333      -0.33333333       0.26666667 </v>
   <v>      -0.26666667      -0.33333333       0.26666667 </v>
   <v>      -0.20000000      -0.33333333       0.26666667 </v>
   <v>      -0.13333333      -0.33333333       0.26666667 </v>
   <v>      -0.06666667      -0.33333333       0.26666667 </v>
   <v>       0.00000000      -0.26666667       0.26666667 </v>
   <v>       0.06666667      -0.26666667       0.26666667 </v>
   <v>       0.13333333      -0.26666667       0.26666667 </v>
   <v>       0.20000000      -0.26666667       0.26666667 </v>
   <v>       0.26666667      -0.26666667       0.26666667 </v>
   <v>       0.33333333      -0.26666667       0.26666667 </v>
   <v>       0.40000000      -0.26666667       0.26666667 </v>
   <v>       0.46666667      -0.26666667       0.26666667 </v>
   <v>      -0.46666667      -0.26666667       0.26666667 </v>
   <v>      -0.40000000      -0.26666667       0.26666667 </v>
   <v>      -0.33333333      -0.26666667       0.26666667 </v>
   <v>      -0.26666667      -0.26666667       0.26666667 </v>
   <v>      -0.20000000      -0.26666667       0.26666667 </v>
   <v>      -0.13333333      -0.26666667       0.26666667 </v>
   <v>      -0.06666667      -0.26666667       0.26666667 </v>
   <v>       0.00000000      -0.20000000       0.26666667 </v>
   <v>       0.06666667      -0.20000000       0.26666667 </v>
   <v>       0.13333333      -0.20000000       0.26666667 </v>
   <v>       0.20000000      -0.20000000       0.26666667 </v>
   <v>       0.26666667      -0.20000000       0.26666667 </v>
   <v>       0.33333333      -0.20000000       0.26666667 </v>
   <v>       0.40000000      -0.20000000       0.26666667 </v>
   <v>       0.46666667      -0.20000000       0.26666667 </v>
   <v>      -0.46666667      -0.20000000       0.26666667 </v>
   <v>      -0.40000000      -0.20000000       0.26666667 </v>
   <v>      -0.33333333      -0.20000000       0.26666667 </v>
   <v>      -0.26666667      -0.20000000       0.26666667 </v>
   <v>      -0.20000000      -0.20000000       0.26666667 </v>
   <v>      -0.13333333      -0.20000000       0.26666667 </v>
   <v>      -0.06666667      -0.20000000       0.26666667 </v>
   <v>       0.00000000      -0.13333333       0.26666667 </v>
   <v>       0.06666667      -0.13333333       0.26666667 </v>
   <v>       0.13333333      -0.13333333       0.26666667 </v>
   <v>       0.20000000      -0.13333333       0.26666667 </v>
   <v>       0.26666667      -0.13333333       0.26666667 </v>
   <v>       0.33333333      -0.13333333       0.26666667 </v>
   <v>       0.40000000      -0.13333333       0.26666667 </v>
   <v>       0.46666667      -0.13333333       0.26666667 </v>
   <v>      -0.46666667      -0.13333333       0.26666667 </v>
   <v>      -0.40000000      -0.13333333       0.26666667 </v>
   <v>      -0.33333333      -0.13333333       0.26666667 </v>
   <v>      -0.26666667      -0.13333333       0.26666667 </v>
   <v>      -0.20000000      -0.13333333       0.26666667 </v>
   <v>      -0.13333333      -0.13333333       0.26666667 </v>
   <v>      -0.06666667      -0.13333333       0.26666667 </v>
   <v>       0.00000000      -0.06666667       0.26666667 </v>
   <v>       0.06666667      -0.06666667       0.26666667 </v>
   <v>       0.13333333      -0.06666667       0.26666667 </v>
   <v>       0.20000000      -0.06666667       0.26666667 </v>
   <v>       0.26666667      -0.06666667       0.26666667 </v>
   <v>       0.33333333      -0.06666667       0.26666667 </v>
   <v>       0.40000000      -0.06666667       0.26666667 </v>
   <v>       0.46666667      -0.06666667       0.26666667 </v>
   <v>      -0.46666667      -0.06666667       0.26666667 </v>
   <v>      -0.40000000      -0.06666667       0.26666667 </v>
   <v>      -0.33333333      -0.06666667       0.26666667 </v>
   <v>      -0.26666667      -0.06666667       0.26666667 </v>
   <v>      -0.20000000      -0.06666667       0.26666667 </v>
   <v>      -0.13333333      -0.06666667       0.26666667 </v>
   <v>      -0.06666667      -0.06666667       0.26666667 </v>
   <v>      -0.00000000       0.00000000       0.33333333 </v>
   <v>       0.06666667       0.00000000       0.33333333 </v>
   <v>       0.13333333       0.00000000       0.33333333 </v>
   <v>       0.20000000      -0.00000000       0.33333333 </v>
   <v>       0.26666667      -0.00000000       0.33333333 </v>
   <v>       0.33333333       0.00000000       0.33333333 </v>
   <v>       0.40000000      -0.00000000       0.33333333 </v>
   <v>       0.46666667      -0.00000000       0.33333333 </v>
   <v>      -0.46666667       0.00000000       0.33333333 </v>
   <v>      -0.40000000       0.00000000       0.33333333 </v>
   <v>      -0.33333333      -0.00000000       0.33333333 </v>
   <v>      -0.26666667      -0.00000000       0.33333333 </v>
   <v>      -0.20000000       0.00000000       0.33333333 </v>
   <v>      -0.13333333       0.00000000       0.33333333 </v>
   <v>      -0.06666667       0.00000000       0.33333333 </v>
   <v>       0.00000000       0.06666667       0.33333333 </v>
   <v>       0.06666667       0.06666667       0.33333333 </v>
   <v>       0.13333333       0.06666667       0.33333333 </v>
   <v>       0.20000000       0.06666667       0.33333333 </v>
   <v>       0.26666667       0.06666667       0.33333333 </v>
   <v>       0.33333333       0.06666667       0.33333333 </v>
   <v>       0.40000000       0.06666667       0.33333333 </v>
   <v>       0.46666667       0.06666667       0.33333333 </v>
   <v>      -0.46666667       0.06666667       0.33333333 </v>
   <v>      -0.40000000       0.06666667       0.33333333 </v>
   <v>      -0.33333333       0.06666667       0.33333333 </v>
   <v>      -0.26666667       0.06666667       0.33333333 </v>
   <v>      -0.20000000       0.06666667       0.33333333 </v>
   <v>      -0.13333333       0.06666667       0.33333333 </v>
   <v>      -0.06666667       0.06666667       0.33333333 </v>
   <v>      -0.00000000       0.13333333       0.33333333 </v>
   <v>       0.06666667       0.13333333       0.33333333 </v>
   <v>       0.13333333       0.13333333       0.33333333 </v>
   <v>       0.20000000       0.13333333       0.33333333 </v>
   <v>       0.26666667       0.13333333       0.33333333 </v>
   <v>       0.33333333       0.13333333       0.33333333 </v>
   <v>       0.40000000       0.13333333       0.33333333 </v>
   <v>       0.46666667       0.13333333       0.33333333 </v>
   <v>      -0.46666667       0.13333333       0.33333333 </v>
   <v>      -0.40000000       0.13333333       0.33333333 </v>
   <v>      -0.33333333       0.13333333       0.33333333 </v>
   <v>      -0.26666667       0.13333333       0.33333333 </v>
   <v>      -0.20000000       0.13333333       0.33333333 </v>
   <v>      -0.13333333       0.13333333       0.33333333 </v>
   <v>      -0.06666667       0.13333333       0.33333333 </v>
   <v>      -0.00000000       0.20000000       0.33333333 </v>
   <v>       0.06666667       0.20000000       0.33333333 </v>
   <v>       0.13333333       0.20000000       0.33333333 </v>
   <v>       0.20000000       0.20000000       0.33333333 </v>
   <v>       0.26666667       0.20000000       0.33333333 </v>
   <v>       0.33333333       0.20000000       0.33333333 </v>
   <v>       0.40000000       0.20000000       0.33333333 </v>
   <v>       0.46666667       0.20000000       0.33333333 </v>
   <v>      -0.46666667       0.20000000       0.33333333 </v>
   <v>      -0.40000000       0.20000000       0.33333333 </v>
   <v>      -0.33333333       0.20000000       0.33333333 </v>
   <v>      -0.26666667       0.20000000       0.33333333 </v>
   <v>      -0.20000000       0.20000000       0.33333333 </v>
   <v>      -0.13333333       0.20000000       0.33333333 </v>
   <v>      -0.06666667       0.20000000       0.33333333 </v>
   <v>      -0.00000000       0.26666667       0.33333333 </v>
   <v>       0.06666667       0.26666667       0.33333333 </v>
   <v>       0.13333333       0.26666667       0.33333333 </v>
   <v>       0.20000000       0.26666667       0.33333333 </v>
   <v>       0.26666667       0.26666667       0.33333333 </v>
   <v>       0.33333333       0.26666667       0.33333333 </v>
   <v>       0.40000000       0.26666667       0.33333333 </v>
   <v>       0.46666667       0.26666667       0.33333333 </v>
   <v>      -0.46666667       0.26666667       0.33333333 </v>
   <v>      -0.40000000       0.26666667       0.33333333 </v>
   <v>      -0.33333333       0.26666667       0.33333333 </v>
   <v>      -0.26666667       0.26666667       0.33333333 </v>
   <v>      -0.20000000       0.26666667       0.33333333 </v>
   <v>      -0.13333333       0.26666667       0.33333333 </v>
   <v>      -0.06666667       0.26666667       0.33333333 </v>
   <v>      -0.00000000       0.33333333       0.33333333 </v>
   <v>       0.06666667       0.33333333       0.33333333 </v>
   <v>       0.13333333       0.33333333       0.33333333 </v>
   <v>       0.20000000       0.33333333       0.33333333 </v>
   <v>       0.26666667       0.33333333       0.33333333 </v>
   <v>       0.33333333       0.33333333       0.33333333 </v>
   <v>       0.40000000       0.33333333       0.33333333 </v>
   <v>       0.46666667       0.33333333       0.33333333 </v>
   <v>      -0.46666667       0.33333333       0.33333333 </v>
   <v>      -0.40000000       0.33333333       0.33333333 </v>
   <v>      -0.33333333       0.33333333       0.33333333 </v>
   <v>      -0.26666667       0.33333333       0.33333333 </v>
   <v>      -0.20000000       0.33333333       0.33333333 </v>
   <v>      -0.13333333       0.33333333       0.33333333 </v>
   <v>      -0.06666667       0.33333333       0.33333333 </v>
   <v>      -0.00000000       0.40000000       0.33333333 </v>
   <v>       0.06666667       0.40000000       0.33333333 </v>
   <v>       0.13333333       0.40000000       0.33333333 </v>
   <v>       0.20000000       0.40000000       0.33333333 </v>
   <v>       0.26666667       0.40000000       0.33333333 </v>
   <v>       0.33333333       0.40000000       0.33333333 </v>
   <v>       0.40000000       0.40000000       0.33333333 </v>
   <v>       0.46666667       0.40000000       0.33333333 </v>
   <v>      -0.46666667       0.40000000       0.33333333 </v>
   <v>      -0.40000000       0.40000000       0.33333333 </v>
   <v>      -0.33333333       0.40000000       0.33333333 </v>
   <v>      -0.26666667       0.40000000       0.33333333 </v>
   <v>      -0.20000000       0.40000000       0.33333333 </v>
   <v>      -0.13333333       0.40000000       0.33333333 </v>
   <v>      -0.06666667       0.40000000       0.33333333 </v>
   <v>      -0.00000000       0.46666667       0.33333333 </v>
   <v>       0.06666667       0.46666667       0.33333333 </v>
   <v>       0.13333333       0.46666667       0.33333333 </v>
   <v>       0.20000000       0.46666667       0.33333333 </v>
   <v>       0.26666667       0.46666667       0.33333333 </v>
   <v>       0.33333333       0.46666667       0.33333333 </v>
   <v>       0.40000000       0.46666667       0.33333333 </v>
   <v>       0.46666667       0.46666667       0.33333333 </v>
   <v>      -0.46666667       0.46666667       0.33333333 </v>
   <v>      -0.40000000       0.46666667       0.33333333 </v>
   <v>      -0.33333333       0.46666667       0.33333333 </v>
   <v>      -0.26666667       0.46666667       0.33333333 </v>
   <v>      -0.20000000       0.46666667       0.33333333 </v>
   <v>      -0.13333333       0.46666667       0.33333333 </v>
   <v>      -0.06666667       0.46666667       0.33333333 </v>
   <v>       0.00000000      -0.46666667       0.33333333 </v>
   <v>       0.06666667      -0.46666667       0.33333333 </v>
   <v>       0.13333333      -0.46666667       0.33333333 </v>
   <v>       0.20000000      -0.46666667       0.33333333 </v>
   <v>       0.26666667      -0.46666667       0.33333333 </v>
   <v>       0.33333333      -0.46666667       0.33333333 </v>
   <v>       0.40000000      -0.46666667       0.33333333 </v>
   <v>       0.46666667      -0.46666667       0.33333333 </v>
   <v>      -0.46666667      -0.46666667       0.33333333 </v>
   <v>      -0.40000000      -0.46666667       0.33333333 </v>
   <v>      -0.33333333      -0.46666667       0.33333333 </v>
   <v>      -0.26666667      -0.46666667       0.33333333 </v>
   <v>      -0.20000000      -0.46666667       0.33333333 </v>
   <v>      -0.13333333      -0.46666667       0.33333333 </v>
   <v>      -0.06666667      -0.46666667       0.33333333 </v>
   <v>       0.00000000      -0.40000000       0.33333333 </v>
   <v>       0.06666667      -0.40000000       0.33333333 </v>
   <v>       0.13333333      -0.40000000       0.33333333 </v>
   <v>       0.20000000      -0.40000000       0.33333333 </v>
   <v>       0.26666667      -0.40000000       0.33333333 </v>
   <v>       0.33333333      -0.40000000       0.33333333 </v>
   <v>       0.40000000      -0.40000000       0.33333333 </v>
   <v>       0.46666667      -0.40000000       0.33333333 </v>
   <v>      -0.46666667      -0.40000000       0.33333333 </v>
   <v>      -0.40000000      -0.40000000       0.33333333 </v>
   <v>      -0.33333333      -0.40000000       0.33333333 </v>
   <v>      -0.26666667      -0.40000000       0.33333333 </v>
   <v>      -0.20000000      -0.40000000       0.33333333 </v>
   <v>      -0.13333333      -0.40000000       0.33333333 </v>
   <v>      -0.06666667      -0.40000000       0.33333333 </v>
   <v>      -0.00000000      -0.33333333       0.33333333 </v>
   <v>       0.06666667      -0.33333333       0.33333333 </v>
   <v>       0.13333333      -0.33333333       0.33333333 </v>
   <v>       0.20000000      -0.33333333       0.33333333 </v>
   <v>       0.26666667      -0.33333333       0.33333333 </v>
   <v>       0.33333333      -0.33333333       0.33333333 </v>
   <v>       0.40000000      -0.33333333       0.33333333 </v>
   <v>       0.46666667      -0.33333333       0.33333333 </v>
   <v>      -0.46666667      -0.33333333       0.33333333 </v>
   <v>      -0.40000000      -0.33333333       0.33333333 </v>
   <v>      -0.33333333      -0.33333333       0.33333333 </v>
   <v>      -0.26666667      -0.33333333       0.33333333 </v>
   <v>      -0.20000000      -0.33333333       0.33333333 </v>
   <v>      -0.13333333      -0.33333333       0.33333333 </v>
   <v>      -0.06666667      -0.33333333       0.33333333 </v>
   <v>       0.00000000      -0.26666667       0.33333333 </v>
   <v>       0.06666667      -0.26666667       0.33333333 </v>
   <v>       0.13333333      -0.26666667       0.33333333 </v>
   <v>       0.20000000      -0.26666667       0.33333333 </v>
   <v>       0.26666667      -0.26666667       0.33333333 </v>
   <v>       0.33333333      -0.26666667       0.33333333 </v>
   <v>       0.40000000      -0.26666667       0.33333333 </v>
   <v>       0.46666667      -0.26666667       0.33333333 </v>
   <v>      -0.46666667      -0.26666667       0.33333333 </v>
   <v>      -0.40000000      -0.26666667       0.33333333 </v>
   <v>      -0.33333333      -0.26666667       0.33333333 </v>
   <v>      -0.26666667      -0.26666667       0.33333333 </v>
   <v>      -0.20000000      -0.26666667       0.33333333 </v>
   <v>      -0.13333333      -0.26666667       0.33333333 </v>
   <v>      -0.06666667      -0.26666667       0.33333333 </v>
   <v>       0.00000000      -0.20000000       0.33333333 </v>
   <v>       0.06666667      -0.20000000       0.33333333 </v>
   <v>       0.13333333      -0.20000000       0.33333333 </v>
   <v>       0.20000000      -0.20000000       0.33333333 </v>
   <v>       0.26666667      -0.20000000       0.33333333 </v>
   <v>       0.33333333      -0.20000000       0.33333333 </v>
   <v>       0.40000000      -0.20000000       0.33333333 </v>
   <v>       0.46666667      -0.20000000       0.33333333 </v>
   <v>      -0.46666667      -0.20000000       0.33333333 </v>
   <v>      -0.40000000      -0.20000000       0.33333333 </v>
   <v>      -0.33333333      -0.20000000       0.33333333 </v>
   <v>      -0.26666667      -0.20000000       0.33333333 </v>
   <v>      -0.20000000      -0.20000000       0.33333333 </v>
   <v>      -0.13333333      -0.20000000       0.33333333 </v>
   <v>      -0.06666667      -0.20000000       0.33333333 </v>
   <v>       0.00000000      -0.13333333       0.33333333 </v>
   <v>       0.06666667      -0.13333333       0.33333333 </v>
   <v>       0.13333333      -0.13333333       0.33333333 </v>
   <v>       0.20000000      -0.13333333       0.33333333 </v>
   <v>       0.26666667      -0.13333333       0.33333333 </v>
   <v>       0.33333333      -0.13333333       0.33333333 </v>
   <v>       0.40000000      -0.13333333       0.33333333 </v>
   <v>       0.46666667      -0.13333333       0.33333333 </v>
   <v>      -0.46666667      -0.13333333       0.33333333 </v>
   <v>      -0.40000000      -0.13333333       0.33333333 </v>
   <v>      -0.33333333      -0.13333333       0.33333333 </v>
   <v>      -0.26666667      -0.13333333       0.33333333 </v>
   <v>      -0.20000000      -0.13333333       0.33333333 </v>
   <v>      -0.13333333      -0.13333333       0.33333333 </v>
   <v>      -0.06666667      -0.13333333       0.33333333 </v>
   <v>      -0.00000000      -0.06666667       0.33333333 </v>
   <v>       0.06666667      -0.06666667       0.33333333 </v>
[...]
       <r>    3.7672    1.0000 </r>
       <r>    3.9874    1.0000 </r>
       <r>    4.4884    1.0000 </r>
       <r>    4.8012    1.0000 </r>
       <r>    4.8551    1.0000 </r>
       <r>    5.3296    1.0000 </r>
       <r>    5.5988    1.0000 </r>
       <r>    5.8847    1.0000 </r>
       <r>    5.9879    1.0000 </r>
       <r>    6.2056    1.0000 </r>
       <r>    6.4938    1.0000 </r>
       <r>    6.6380    1.0000 </r>
       <r>    6.7586    1.0000 </r>
       <r>    6.9908    1.0000 </r>
       <r>    8.3093    1.0000 </r>
       <r>    9.1540    0.1266 </r>
       <r>   12.1330    0.0000 </r>
       <r>   13.9364    0.0000 </r>
       <r>   16.3524    0.0000 </r>
       <r>   17.5887    0.0000 </r>
      </set>
      <set comment="kpoint 1686">
       <r>    1.7535    1.0000 </r>
       <r>    2.8671    1.0000 </r>
       <r>    3.1674    1.0000 </r>
       <r>    3.2394    1.0000 </r>
       <r>    3.3025    1.0000 </r>
       <r>    3.4631    1.0000 </r>
       <r>    3.4731    1.0000 </r>
       <r>    3.8900    1.0000 </r>
       <r>    3.8952    1.0000 </r>
       <r>    4.5117    1.0000 </r>
       <r>    4.7796    1.0000 </r>
       <r>    5.0218    1.0000 </r>
       <r>    5.4977    1.0000 </r>
       <r>    5.6806    1.0000 </r>
       <r>    5.6971    1.0000 </r>
       <r>    5.9404    1.0000 </r>
       <r>    6.3058    1.0000 </r>
       <r>    6.7340    1.0000 </r>
       <r>    6.8211    1.0000 </r>
       <r>    6.8367    1.0000 </r>
       <r>    6.9705    1.0000 </r>
       <r>    7.5258    1.0000 </r>
       <r>   10.0067    0.0000 </r>
       <r>   11.8907    0.0000 </r>
       <r>   14.9137    0.0000 </r>
       <r>   16.1683    0.0000 </r>
       <r>   17.4499    0.0000 </r>
      </set>
      <set comment="kpoint 1687">
       <r>    1.6749    1.0000 </r>
       <r>    2.6091    1.0000 </r>
       <r>    3.1312    1.0000 </r>
       <r>    3.2717    1.0000 </r>
       <r>    3.3466    1.0000 </r>
       <r>    3.3637    1.0000 </r>
       <r>    3.5261    1.0000 </r>
       <r>    3.7938    1.0000 </r>
       <r>    4.0595    1.0000 </r>
       <r>    4.5644    1.0000 </r>
       <r>    4.6489    1.0000 </r>
       <r>    5.2455    1.0000 </r>
       <r>    5.4901    1.0000 </r>
       <r>    5.6204    1.0000 </r>
       <r>    5.7343    1.0000 </r>
       <r>    5.8537    1.0000 </r>
       <r>    6.4078    1.0000 </r>
       <r>    6.8588    1.0000 </r>
       <r>    6.8760    1.0000 </r>
       <r>    6.8903    1.0000 </r>
       <r>    6.9131    1.0000 </r>
       <r>    7.0094    1.0000 </r>
       <r>   10.9866    0.0000 </r>
       <r>   11.8592    0.0000 </r>
       <r>   15.7529    0.0000 </r>
       <r>   15.8266    0.0000 </r>
       <r>   17.5841    0.0000 </r>
      </set>
      <set comment="kpoint 1688">
       <r>    1.6346    1.0000 </r>
       <r>    2.3647    1.0000 </r>
       <r>    3.1660    1.0000 </r>
       <r>    3.2753    1.0000 </r>
       <r>    3.2753    1.0000 </r>
       <r>    3.3490    1.0000 </r>
       <r>    3.7132    1.0000 </r>
       <r>    3.7132    1.0000 </r>
       <r>    4.2625    1.0000 </r>
       <r>    4.5975    1.0000 </r>
       <r>    4.5975    1.0000 </r>
       <r>    5.3443    1.0000 </r>
       <r>    5.4255    1.0000 </r>
       <r>    5.5825    1.0000 </r>
       <r>    5.7115    1.0000 </r>
       <r>    5.7115    1.0000 </r>
       <r>    6.3752    1.0000 </r>
       <r>    6.5872    1.0000 </r>
       <r>    6.8053    1.0000 </r>
       <r>    6.8814    1.0000 </r>
       <r>    7.0723    1.0000 </r>
       <r>    7.0723    1.0000 </r>
       <r>   12.0679    0.0000 </r>
       <r>   12.0679    0.0000 </r>
       <r>   15.4102    0.0000 </r>
       <r>   15.4102    0.0000 </r>
       <r>   17.9049    0.0000 </r>
      </set>
     </set>
    </set>
   </array>
  </eigenvalues>
  <separator name="orbital magnetization" >
   <v name="MAGDIPOLOUT">      0.00000000      0.00000000      0.00000000</v>
  </separator>
  <dos>
   <i name="efermi">      9.07325168 </i>
   <total>
    <array>
     <dimension dim="1">gridpoints</dimension>
     <dimension dim="2">spin</dimension>
     <field>energy</field>
     <field>total</field>
     <field>integrated</field>
     <set>
      <set comment="spin 1">
       <r>    -1.4554     0.0000     0.0000 </r>
       <r>    -1.3826     0.0000     0.0000 </r>
       <r>    -1.3098     0.0000     0.0000 </r>
       <r>    -1.2370     0.0000     0.0000 </r>
       <r>    -1.1643     0.0000     0.0000 </r>
       <r>    -1.0915     0.0000     0.0000 </r>
       <r>    -1.0187     0.0000     0.0000 </r>
       <r>    -0.9459     0.0000     0.0000 </r>
       <r>    -0.8731     0.0000     0.0000 </r>
       <r>    -0.8004     0.0000     0.0000 </r>
       <r>    -0.7276     0.0000     0.0000 </r>
       <r>    -0.6548     0.0000     0.0000 </r>
       <r>    -0.5820     0.0006     0.0000 </r>
       <r>    -0.5093     0.0060     0.0005 </r>
       <r>    -0.4365     0.0278     0.0025 </r>
       <r>    -0.3637     0.0676     0.0074 </r>
       <r>    -0.2909     0.1080     0.0153 </r>
       <r>    -0.2182     0.1478     0.0260 </r>
       <r>    -0.1454     0.1779     0.0390 </r>
       <r>    -0.0726     0.1839     0.0524 </r>
       <r>     0.0002     0.2101     0.0677 </r>
       <r>     0.0729     0.2742     0.0876 </r>
       <r>     0.1457     0.2761     0.1077 </r>
       <r>     0.2185     0.2400     0.1252 </r>
       <r>     0.2913     0.2858     0.1460 </r>
       <r>     0.3640     0.3655     0.1726 </r>
       <r>     0.4368     0.3793     0.2002 </r>
       <r>     0.5096     0.3621     0.2265 </r>
       <r>     0.5824     0.3728     0.2537 </r>
       <r>     0.6551     0.3808     0.2814 </r>
       <r>     0.7279     0.4186     0.3118 </r>
       <r>     0.8007     0.5100     0.3490 </r>
       <r>     0.8735     0.5533     0.3892 </r>
       <r>     0.9463     0.5222     0.4272 </r>
       <r>     1.0190     0.5194     0.4650 </r>
       <r>     1.0918     0.5374     0.5041 </r>
       <r>     1.1646     0.5691     0.5456 </r>
       <r>     1.2374     0.6781     0.5949 </r>
       <r>     1.3101     0.7988     0.6530 </r>
       <r>     1.3829     0.8444     0.7145 </r>
       <r>     1.4557     0.8177     0.7740 </r>
       <r>     1.5285     0.8153     0.8333 </r>
       <r>     1.6012     0.8982     0.8987 </r>
       <r>     1.6740     1.0240     0.9732 </r>
       <r>     1.7468     1.3048     1.0682 </r>
       <r>     1.8196     1.6941     1.1915 </r>
       <r>     1.8923     1.8676     1.3274 </r>
       <r>     1.9651     1.8054     1.4588 </r>
       <r>     2.0379     1.8892     1.5963 </r>
       <r>     2.1107     2.1270     1.7511 </r>
       <r>     2.1834     2.3654     1.9232 </r>
       <r>     2.2562     2.8687     2.1320 </r>
       <r>     2.3290     3.7157     2.4024 </r>
       <r>     2.4018     4.7397     2.7473 </r>
       <r>     2.4746     5.7760     3.1677 </r>
       <r>     2.5473     6.8271     3.6645 </r>
       <r>     2.6201     7.8120     4.2331 </r>
       <r>     2.6929     8.0190     4.8167 </r>
       <r>     2.7657     7.7599     5.3814 </r>
       <r>     2.8384     7.6378     5.9372 </r>
       <r>     2.9112     7.9804     6.5180 </r>
       <r>     2.9840     9.1018     7.1804 </r>
       <r>     3.0568    10.0779     7.9138 </r>
       <r>     3.1295    10.2373     8.6589 </r>
       <r>     3.2023    10.1957     9.4009 </r>
       <r>     3.2751    10.2766    10.1488 </r>
       <r>     3.3479    10.2071    10.8916 </r>
       <r>     3.4206     9.9770    11.6177 </r>
       <r>     3.4934    10.2306    12.3622 </r>
       <r>     3.5662    10.5233    13.1281 </r>
       <r>     3.6390     9.9706    13.8537 </r>
       <r>     3.7117     8.5467    14.4757 </r>
       <r>     3.7845     7.0799    14.9909 </r>
       <r>     3.8573     6.1583    15.4391 </r>
       <r>     3.9301     5.3503    15.8285 </r>
       <r>     4.0028     4.6761    16.1688 </r>
       <r>     4.0756     4.7018    16.5110 </r>
       <r>     4.1484     5.1745    16.8875 </r>
       <r>     4.2212     5.7550    17.3064 </r>
       <r>     4.2940     5.8080    17.7291 </r>
       <r>     4.3667     5.3532    18.1186 </r>
       <r>     4.4395     5.3442    18.5076 </r>
       <r>     4.5123     5.9875    18.9433 </r>
       <r>     4.5851     6.2908    19.4011 </r>
       <r>     4.6578     6.1525    19.8489 </r>
       <r>     4.7306     5.9705    20.2834 </r>
       <r>     4.8034     5.5833    20.6897 </r>
       <r>     4.8762     5.0618    21.0581 </r>
       <r>     4.9489     4.5529    21.3895 </r>
       <r>     5.0217     4.4293    21.7118 </r>
       <r>     5.0945     4.8673    22.0660 </r>
       <r>     5.1673     5.0669    22.4348 </r>
       <r>     5.2400     4.7481    22.7803 </r>
       <r>     5.3128     4.8737    23.1350 </r>
       <r>     5.3856     5.5979    23.5424 </r>
       <r>     5.4584     6.2711    23.9988 </r>
       <r>     5.5311     6.6687    24.4841 </r>
       <r>     5.6039     6.8756    24.9845 </r>
       <r>     5.6767     6.7532    25.4760 </r>
       <r>     5.7495     6.7073    25.9641 </r>
       <r>     5.8222     6.9632    26.4708 </r>
       <r>     5.8950     7.1483    26.9911 </r>
       <r>     5.9678     7.4824    27.5356 </r>
       <r>     6.0406     8.1320    28.1274 </r>
       <r>     6.1134     8.5699    28.7511 </r>
       <r>     6.1861     8.8295    29.3937 </r>
       <r>     6.2589     9.3517    30.0743 </r>
       <r>     6.3317    10.1774    30.8149 </r>
       <r>     6.4045    11.3423    31.6404 </r>
       <r>     6.4772    13.0396    32.5893 </r>
       <r>     6.5500    14.5004    33.6446 </r>
       <r>     6.6228    14.6068    34.7077 </r>
       <r>     6.6956    14.0882    35.7329 </r>
       <r>     6.7683    14.2482    36.7699 </r>
       <r>     6.8411    14.5933    37.8319 </r>
       <r>     6.9139    12.7579    38.7604 </r>
       <r>     6.9867     8.5986    39.3861 </r>
       <r>     7.0594     5.1100    39.7580 </r>
       <r>     7.1322     3.6599    40.0244 </r>
       <r>     7.2050     3.2909    40.2639 </r>
       <r>     7.2778     3.3349    40.5066 </r>
       <r>     7.3505     3.2121    40.7403 </r>
       <r>     7.4233     2.6455    40.9329 </r>
       <r>     7.4961     2.4147    41.1086 </r>
       <r>     7.5689     2.5203    41.2920 </r>
       <r>     7.6416     2.4159    41.4678 </r>
       <r>     7.7144     2.3872    41.6416 </r>
       <r>     7.7872     2.4144    41.8173 </r>
       <r>     7.8600     2.3175    41.9859 </r>
       <r>     7.9328     2.1431    42.1419 </r>
       <r>     8.0055     2.0572    42.2916 </r>
       <r>     8.0783     2.0955    42.4441 </r>
       <r>     8.1511     2.2551    42.6082 </r>
       <r>     8.2239     2.4456    42.7862 </r>
       <r>     8.2966     2.3908    42.9602 </r>
       <r>     8.3694     2.2019    43.1205 </r>
       <r>     8.4422     2.0277    43.2680 </r>
       <r>     8.5150     1.8695    43.4041 </r>
       <r>     8.5877     1.5689    43.5183 </r>
       <r>     8.6605     1.1509    43.6020 </r>
       <r>     8.7333     0.8619    43.6647 </r>
       <r>     8.8061     0.9124    43.7311 </r>
       <r>     8.8788     1.0271    43.8059 </r>
       <r>     8.9516     0.9829    43.8774 </r>
       <r>     9.0244     0.9838    43.9490 </r>
       <r>     9.0972     1.0494    44.0254 </r>
       <r>     9.1699     1.0390    44.1010 </r>
       <r>     9.2427     0.9516    44.1703 </r>
       <r>     9.3155     0.9524    44.2396 </r>
       <r>     9.3883     1.0940    44.3192 </r>
       <r>     9.4611     1.0741    44.3974 </r>
       <r>     9.5338     0.9047    44.4632 </r>
       <r>     9.6066     0.8410    44.5244 </r>
       <r>     9.6794     0.8957    44.5896 </r>
       <r>     9.7522     0.9326    44.6574 </r>
       <r>     9.8249     1.0117    44.7311 </r>
       <r>     9.8977     1.0377    44.8066 </r>
       <r>     9.9705     0.9651    44.8768 </r>
       <r>    10.0433     0.9006    44.9424 </r>
       <r>    10.1160     0.9202    45.0093 </r>
       <r>    10.1888     0.9908    45.0814 </r>
       <r>    10.2616     1.0186    45.1556 </r>
       <r>    10.3344     0.9380    45.2238 </r>
       <r>    10.4071     0.9196    45.2908 </r>
       <r>    10.4799     0.9186    45.3576 </r>
       <r>    10.5527     0.8642    45.4205 </r>
       <r>    10.6255     0.8144    45.4798 </r>
       <r>    10.6982     0.8612    45.5425 </r>
       <r>    10.7710     0.9210    45.6095 </r>
       <r>    10.8438     1.0048    45.6826 </r>
       <r>    10.9166     1.1439    45.7659 </r>
       <r>    10.9893     1.1646    45.8506 </r>
       <r>    11.0621     0.9810    45.9220 </r>
       <r>    11.1349     0.8169    45.9815 </r>
       <r>    11.2077     0.8100    46.0404 </r>
       <r>    11.2805     0.8368    46.1013 </r>
       <r>    11.3532     0.8527    46.1634 </r>
       <r>    11.4260     0.8460    46.2249 </r>
       <r>    11.4988     0.8310    46.2854 </r>
       <r>    11.5716     0.8376    46.3464 </r>
       <r>    11.6443     0.9153    46.4130 </r>
       <r>    11.7171     1.0039    46.4861 </r>
       <r>    11.7899     1.0784    46.5645 </r>
       <r>    11.8627     1.2015    46.6520 </r>
       <r>    11.9354     1.4224    46.7555 </r>
       <r>    12.0082     1.5624    46.8692 </r>
       <r>    12.0810     1.5741    46.9837 </r>
       <r>    12.1538     1.5723    47.0982 </r>
       <r>    12.2265     1.5186    47.2087 </r>
       <r>    12.2993     1.4789    47.3163 </r>
       <r>    12.3721     1.5640    47.4301 </r>
       <r>    12.4449     1.5565    47.5434 </r>
       <r>    12.5176     1.3817    47.6440 </r>
       <r>    12.5904     1.2548    47.7353 </r>
       <r>    12.6632     1.2355    47.8252 </r>
       <r>    12.7360     1.3295    47.9220 </r>
       <r>    12.8087     1.3378    48.0193 </r>
       <r>    12.8815     1.1964    48.1064 </r>
       <r>    12.9543     1.1592    48.1907 </r>
       <r>    13.0271     1.2342    48.2806 </r>
       <r>    13.0999     1.2466    48.3713 </r>
       <r>    13.1726     1.2517    48.4624 </r>
       <r>    13.2454     1.2947    48.5566 </r>
       <r>    13.3182     1.3050    48.6516 </r>
       <r>    13.3910     1.2521    48.7427 </r>
       <r>    13.4637     1.1945    48.8296 </r>
       <r>    13.5365     1.1573    48.9139 </r>
       <r>    13.6093     1.1818    48.9999 </r>
       <r>    13.6821     1.1767    49.0855 </r>
       <r>    13.7548     1.1313    49.1678 </r>
       <r>    13.8276     1.2099    49.2559 </r>
       <r>    13.9004     1.2586    49.3475 </r>
       <r>    13.9732     1.1582    49.4318 </r>
       <r>    14.0459     1.0229    49.5062 </r>
       <r>    14.1187     1.0125    49.5799 </r>
       <r>    14.1915     1.1369    49.6626 </r>
       <r>    14.2643     1.2951    49.7569 </r>
       <r>    14.3370     1.3375    49.8542 </r>
       <r>    14.4098     1.1886    49.9407 </r>
       <r>    14.4826     1.1317    50.0231 </r>
       <r>    14.5554     1.1271    50.1051 </r>
       <r>    14.6281     1.1470    50.1886 </r>
       <r>    14.7009     1.2232    50.2776 </r>
       <r>    14.7737     1.1291    50.3598 </r>
       <r>    14.8465     0.9747    50.4307 </r>
       <r>    14.9193     0.9887    50.5027 </r>
       <r>    14.9920     1.0270    50.5774 </r>
       <r>    15.0648     1.0734    50.6555 </r>
       <r>    15.1376     1.0455    50.7316 </r>
       <r>    15.2104     1.0547    50.8084 </r>
       <r>    15.2831     1.1794    50.8942 </r>
       <r>    15.3559     1.2138    50.9825 </r>
       <r>    15.4287     1.1988    51.0698 </r>
       <r>    15.5015     1.1535    51.1537 </r>
       <r>    15.5742     1.0418    51.2295 </r>
       <r>    15.6470     0.9761    51.3006 </r>
       <r>    15.7198     1.0283    51.3754 </r>
       <r>    15.7926     1.1108    51.4563 </r>
       <r>    15.8653     1.1935    51.5431 </r>
       <r>    15.9381     1.2653    51.6352 </r>
       <r>    16.0109     1.2549    51.7265 </r>
       <r>    16.0837     1.2981    51.8210 </r>
       <r>    16.1564     1.3004    51.9156 </r>
       <r>    16.2292     1.1244    51.9975 </r>
       <r>    16.3020     0.9363    52.0656 </r>
       <r>    16.3748     0.9438    52.1343 </r>
       <r>    16.4476     1.0075    52.2076 </r>
       <r>    16.5203     1.0031    52.2806 </r>
       <r>    16.5931     0.9353    52.3487 </r>
       <r>    16.6659     0.9183    52.4155 </r>
       <r>    16.7387     1.0158    52.4894 </r>
       <r>    16.8114     1.1537    52.5734 </r>
       <r>    16.8842     1.2127    52.6617 </r>
       <r>    16.9570     1.0557    52.7385 </r>
       <r>    17.0298     0.7839    52.7955 </r>
       <r>    17.1025     0.5579    52.8361 </r>
       <r>    17.1753     0.5417    52.8756 </r>
       <r>    17.2481     0.7318    52.9288 </r>
       <r>    17.3209     0.7834    52.9858 </r>
       <r>    17.3936     0.6847    53.0357 </r>
       <r>    17.4664     0.7217    53.0882 </r>
       <r>    17.5392     0.9061    53.1541 </r>
       <r>    17.6120     1.0289    53.2290 </r>
       <r>    17.6847     1.0388    53.3046 </r>
       <r>    17.7575     0.9300    53.3723 </r>
       <r>    17.8303     0.7528    53.4271 </r>
       <r>    17.9031     0.6141    53.4718 </r>
       <r>    17.9758     0.4736    53.5062 </r>
       <r>    18.0486     0.4116    53.5362 </r>
       <r>    18.1214     0.4802    53.5711 </r>
       <r>    18.1942     0.5653    53.6123 </r>
       <r>    18.2670     0.6057    53.6564 </r>
       <r>    18.3397     0.5525    53.6966 </r>
       <r>    18.4125     0.4949    53.7326 </r>
       <r>    18.4853     0.5346    53.7715 </r>
       <r>    18.5581     0.6225    53.8168 </r>
       <r>    18.6308     0.5975    53.8603 </r>
       <r>    18.7036     0.4519    53.8932 </r>
       <r>    18.7764     0.2850    53.9139 </r>
       <r>    18.8492     0.2015    53.9286 </r>
       <r>    18.9219     0.2032    53.9434 </r>
       <r>    18.9947     0.1834    53.9567 </r>
       <r>    19.0675     0.1264    53.9659 </r>
       <r>    19.1403     0.0971    53.9730 </r>
       <r>    19.2130     0.0864    53.9793 </r>
       <r>    19.2858     0.0965    53.9863 </r>
       <r>    19.3586     0.1034    53.9938 </r>
       <r>    19.4314     0.0634    53.9984 </r>
       <r>    19.5041     0.0190    53.9998 </r>
       <r>    19.5769     0.0026    54.0000 </r>
       <r>    19.6497     0.0001    54.0000 </r>
       <r>    19.7225     0.0000    54.0000 </r>
       <r>    19.7952     0.0000    54.0000 </r>
       <r>    19.8680     0.0000    54.0000 </r>
       <r>    19.9408     0.0000    54.0000 </r>
       <r>    20.0136     0.0000    54.0000 </r>
       <r>    20.0864     0.0000    54.0000 </r>
       <r>    20.1591     0.0000    54.0000 </r>
       <r>    20.2319     0.0000    54.0000 </r>
       <r>    20.3047     0.0000    54.0000 </r>
       <r>    20.3775     0.0000    54.0000 </r>
      </set>
     </set>
    </array>
   </total>
  </dos>
 </calculation>
 <structure name="finalpos" >
  <crystal>
   <varray name="basis" >
    <v>       4.15438262      -0.45698211      -0.45698215 </v>
    <v>      -0.45698209       4.15438220      -0.45698190 </v>
    <v>      -0.45698213      -0.45698191       4.15438227 </v>
   </varray>
   <i name="volume">     68.90646315 </i>
   <varray name="rec_basis" >
    <v>       0.24743774       0.03058219       0.03058220 </v>
    <v>       0.03058220       0.24743776       0.03058219 </v>
    <v>       0.03058220       0.03058219       0.24743776 </v>
   </varray>
  </crystal>
  <varray name="positions" >
   <v>       1.00000000       0.00000000       0.00000000 </v>
   <v>       0.00000000       0.50000000       0.50000000 </v>
   <v>       0.50000000       1.00000000       0.50000000 </v>
   <v>       0.50000000       0.50000000       1.00000000 </v>
  </varray>
 </structure>
</modeling>
