unknown system                          
           1
     4.154383   -0.456982   -0.456982
    -0.456982    4.154382   -0.456982
    -0.456982   -0.456982    4.154382
   Au
   4
Direct configuration=     1
   1.00000000  0.00000000  0.00000000
   0.00000000  0.50000000  0.50000000
   0.50000000  1.00000000  0.50000000
   0.50000000  0.50000000  1.00000000
