   4   4   0   0
  0.1965601E+02  0.4611365E-09  0.4179441E-09  0.4179441E-09  0.2000000E-15
  1.000000000000000E-004
  CAR 
 unknown system                          
     19.21857439     -2.26209760  301      7.22272810      1.00000000
     -2.262  0.0000E+00  0.0000E+00
     -2.190  0.0000E+00  0.0000E+00
     -2.119  0.0000E+00  0.0000E+00
     -2.047  0.0000E+00  0.0000E+00
     -1.976  0.0000E+00  0.0000E+00
     -1.904  0.0000E+00  0.0000E+00
     -1.832  0.3216E-19  0.2303E-20
     -1.761  0.7632E-16  0.5467E-17
     -1.689  0.7002E-13  0.5019E-14
     -1.618  0.2439E-10  0.1752E-11
     -1.546  0.3327E-08  0.2400E-09
     -1.474  0.1859E-06  0.1355E-07
     -1.403  0.4494E-05  0.3353E-06
     -1.331  0.4955E-04  0.3883E-05
     -1.260  0.2605E-03  0.2254E-04
     -1.188  0.7069E-03  0.7315E-04
     -1.116  0.1224E-02  0.1608E-03
     -1.045  0.1718E-02  0.2838E-03
     -0.973  0.2036E-02  0.4296E-03
     -0.902  0.2300E-02  0.5943E-03
     -0.830  0.2643E-02  0.7836E-03
     -0.758  0.3032E-02  0.1001E-02
     -0.687  0.3245E-02  0.1233E-02
     -0.615  0.3313E-02  0.1470E-02
     -0.544  0.3671E-02  0.1733E-02
     -0.472  0.4107E-02  0.2027E-02
     -0.400  0.4470E-02  0.2347E-02
     -0.329  0.4814E-02  0.2692E-02
     -0.257  0.4786E-02  0.3035E-02
     -0.186  0.4704E-02  0.3371E-02
     -0.114  0.5715E-02  0.3781E-02
     -0.042  0.6799E-02  0.4267E-02
      0.029  0.6871E-02  0.4759E-02
      0.101  0.6913E-02  0.5254E-02
      0.172  0.7237E-02  0.5773E-02
      0.244  0.8355E-02  0.6371E-02
      0.316  0.1073E-01  0.7139E-02
      0.387  0.1309E-01  0.8077E-02
      0.459  0.1581E-01  0.9208E-02
      0.530  0.2077E-01  0.1070E-01
      0.602  0.2580E-01  0.1254E-01
      0.674  0.2818E-01  0.1456E-01
      0.745  0.2874E-01  0.1662E-01
      0.817  0.2703E-01  0.1855E-01
      0.888  0.2354E-01  0.2024E-01
      0.960  0.2119E-01  0.2176E-01
      1.032  0.1932E-01  0.2314E-01
      1.103  0.1809E-01  0.2444E-01
      1.175  0.1826E-01  0.2574E-01
      1.246  0.1937E-01  0.2713E-01
      1.318  0.2204E-01  0.2871E-01
      1.390  0.2820E-01  0.3073E-01
      1.461  0.3571E-01  0.3328E-01
      1.533  0.4269E-01  0.3634E-01
      1.604  0.5260E-01  0.4011E-01
      1.676  0.6564E-01  0.4481E-01
      1.748  0.7507E-01  0.5018E-01
      1.819  0.7642E-01  0.5565E-01
      1.891  0.7676E-01  0.6115E-01
      1.962  0.8191E-01  0.6702E-01
      2.034  0.8862E-01  0.7336E-01
      2.106  0.9508E-01  0.8017E-01
      2.177  0.1017E+00  0.8745E-01
      2.249  0.1078E+00  0.9517E-01
      2.320  0.1101E+00  0.1031E+00
      2.392  0.1084E+00  0.1108E+00
      2.464  0.1058E+00  0.1184E+00
      2.535  0.1036E+00  0.1258E+00
      2.607  0.1040E+00  0.1333E+00
      2.678  0.1033E+00  0.1407E+00
      2.750  0.9472E-01  0.1474E+00
      2.822  0.8366E-01  0.1534E+00
      2.893  0.7627E-01  0.1589E+00
      2.965  0.7239E-01  0.1641E+00
      3.036  0.7311E-01  0.1693E+00
      3.108  0.7765E-01  0.1749E+00
      3.180  0.8114E-01  0.1807E+00
      3.251  0.8070E-01  0.1865E+00
      3.323  0.7888E-01  0.1921E+00
      3.394  0.7557E-01  0.1975E+00
      3.466  0.6968E-01  0.2025E+00
      3.538  0.6555E-01  0.2072E+00
      3.609  0.6759E-01  0.2120E+00
      3.681  0.7329E-01  0.2173E+00
      3.752  0.7948E-01  0.2230E+00
      3.824  0.8360E-01  0.2290E+00
      3.896  0.8732E-01  0.2352E+00
      3.967  0.9203E-01  0.2418E+00
      4.039  0.9445E-01  0.2486E+00
      4.111  0.9731E-01  0.2555E+00
      4.182  0.1038E+00  0.2630E+00
      4.254  0.1095E+00  0.2708E+00
      4.325  0.1105E+00  0.2787E+00
      4.397  0.1128E+00  0.2868E+00
      4.469  0.1190E+00  0.2953E+00
      4.540  0.1233E+00  0.3042E+00
      4.612  0.1216E+00  0.3129E+00
      4.683  0.1179E+00  0.3213E+00
      4.755  0.1161E+00  0.3296E+00
      4.827  0.1145E+00  0.3378E+00
      4.898  0.1147E+00  0.3460E+00
      4.970  0.1209E+00  0.3547E+00
      5.041  0.1288E+00  0.3639E+00
      5.113  0.1277E+00  0.3731E+00
      5.185  0.1140E+00  0.3812E+00
      5.256  0.9748E-01  0.3882E+00
      5.328  0.8464E-01  0.3943E+00
      5.399  0.7578E-01  0.3997E+00
      5.471  0.7047E-01  0.4047E+00
      5.543  0.6551E-01  0.4094E+00
      5.614  0.5806E-01  0.4136E+00
      5.686  0.4699E-01  0.4169E+00
      5.757  0.3542E-01  0.4195E+00
      5.829  0.2747E-01  0.4214E+00
      5.901  0.2398E-01  0.4232E+00
      5.972  0.2068E-01  0.4246E+00
      6.044  0.1593E-01  0.4258E+00
      6.115  0.1234E-01  0.4267E+00
      6.187  0.1166E-01  0.4275E+00
      6.259  0.1229E-01  0.4284E+00
      6.330  0.1247E-01  0.4293E+00
      6.402  0.1169E-01  0.4301E+00
      6.473  0.1113E-01  0.4309E+00
      6.545  0.1179E-01  0.4318E+00
      6.617  0.1358E-01  0.4327E+00
      6.688  0.1426E-01  0.4337E+00
      6.760  0.1337E-01  0.4347E+00
      6.831  0.1190E-01  0.4356E+00
      6.903  0.1002E-01  0.4363E+00
      6.975  0.9648E-02  0.4370E+00
      7.046  0.1124E-01  0.4378E+00
      7.118  0.1233E-01  0.4387E+00
      7.189  0.1269E-01  0.4396E+00
      7.261  0.1306E-01  0.4405E+00
      7.333  0.1197E-01  0.4414E+00
      7.404  0.1119E-01  0.4422E+00
      7.476  0.1256E-01  0.4431E+00
      7.547  0.1370E-01  0.4440E+00
      7.619  0.1270E-01  0.4449E+00
      7.691  0.1122E-01  0.4457E+00
      7.762  0.1115E-01  0.4465E+00
      7.834  0.1120E-01  0.4473E+00
      7.905  0.1155E-01  0.4482E+00
      7.977  0.1295E-01  0.4491E+00
      8.049  0.1344E-01  0.4501E+00
      8.120  0.1293E-01  0.4510E+00
      8.192  0.1296E-01  0.4519E+00
      8.263  0.1323E-01  0.4529E+00
      8.335  0.1347E-01  0.4538E+00
      8.407  0.1480E-01  0.4549E+00
      8.478  0.1669E-01  0.4561E+00
      8.550  0.1673E-01  0.4573E+00
      8.621  0.1485E-01  0.4583E+00
      8.693  0.1342E-01  0.4593E+00
      8.765  0.1259E-01  0.4602E+00
      8.836  0.1267E-01  0.4611E+00
      8.908  0.1388E-01  0.4621E+00
      8.979  0.1447E-01  0.4631E+00
      9.051  0.1385E-01  0.4641E+00
      9.123  0.1251E-01  0.4650E+00
      9.194  0.1203E-01  0.4659E+00
      9.266  0.1267E-01  0.4668E+00
      9.337  0.1300E-01  0.4677E+00
      9.409  0.1311E-01  0.4687E+00
      9.481  0.1250E-01  0.4696E+00
      9.552  0.1066E-01  0.4703E+00
      9.624  0.1005E-01  0.4710E+00
      9.695  0.1075E-01  0.4718E+00
      9.767  0.1072E-01  0.4726E+00
      9.839  0.1080E-01  0.4734E+00
      9.910  0.1154E-01  0.4742E+00
      9.982  0.1143E-01  0.4750E+00
     10.053  0.1105E-01  0.4758E+00
     10.125  0.1236E-01  0.4767E+00
     10.197  0.1410E-01  0.4777E+00
     10.268  0.1372E-01  0.4787E+00
     10.340  0.1172E-01  0.4795E+00
     10.411  0.1027E-01  0.4802E+00
     10.483  0.9679E-02  0.4809E+00
     10.555  0.9687E-02  0.4816E+00
     10.626  0.9968E-02  0.4823E+00
     10.698  0.1118E-01  0.4831E+00
     10.770  0.1274E-01  0.4841E+00
     10.841  0.1252E-01  0.4850E+00
     10.913  0.1182E-01  0.4858E+00
     10.984  0.1149E-01  0.4866E+00
     11.056  0.1098E-01  0.4874E+00
     11.128  0.1057E-01  0.4882E+00
     11.199  0.9796E-02  0.4889E+00
     11.271  0.8892E-02  0.4895E+00
     11.342  0.8528E-02  0.4901E+00
     11.414  0.8318E-02  0.4907E+00
     11.486  0.8319E-02  0.4913E+00
     11.557  0.9139E-02  0.4920E+00
     11.629  0.9953E-02  0.4927E+00
     11.700  0.1002E-01  0.4934E+00
     11.772  0.1084E-01  0.4942E+00
     11.844  0.1226E-01  0.4950E+00
     11.915  0.1310E-01  0.4960E+00
     11.987  0.1334E-01  0.4969E+00
     12.058  0.1286E-01  0.4979E+00
     12.130  0.1291E-01  0.4988E+00
     12.202  0.1329E-01  0.4997E+00
     12.273  0.1296E-01  0.5007E+00
     12.345  0.1241E-01  0.5016E+00
     12.416  0.1221E-01  0.5024E+00
     12.488  0.1251E-01  0.5033E+00
     12.560  0.1243E-01  0.5042E+00
     12.631  0.1224E-01  0.5051E+00
     12.703  0.1350E-01  0.5061E+00
     12.774  0.1600E-01  0.5072E+00
     12.846  0.1802E-01  0.5085E+00
     12.918  0.1822E-01  0.5098E+00
     12.989  0.1667E-01  0.5110E+00
     13.061  0.1499E-01  0.5121E+00
     13.132  0.1529E-01  0.5132E+00
     13.204  0.1720E-01  0.5144E+00
     13.276  0.1693E-01  0.5156E+00
     13.347  0.1446E-01  0.5166E+00
     13.419  0.1325E-01  0.5176E+00
     13.490  0.1361E-01  0.5186E+00
     13.562  0.1367E-01  0.5195E+00
     13.634  0.1344E-01  0.5205E+00
     13.705  0.1370E-01  0.5215E+00
     13.777  0.1401E-01  0.5225E+00
     13.848  0.1353E-01  0.5235E+00
     13.920  0.1335E-01  0.5244E+00
     13.992  0.1299E-01  0.5253E+00
     14.063  0.1160E-01  0.5262E+00
     14.135  0.1037E-01  0.5269E+00
     14.206  0.1059E-01  0.5277E+00
     14.278  0.1058E-01  0.5284E+00
     14.350  0.9069E-02  0.5291E+00
     14.421  0.8478E-02  0.5297E+00
     14.493  0.9899E-02  0.5304E+00
     14.564  0.1085E-01  0.5312E+00
     14.636  0.1002E-01  0.5319E+00
     14.708  0.9600E-02  0.5326E+00
     14.779  0.1073E-01  0.5333E+00
     14.851  0.1139E-01  0.5342E+00
     14.922  0.9991E-02  0.5349E+00
     14.994  0.7708E-02  0.5354E+00
     15.066  0.6598E-02  0.5359E+00
     15.137  0.6085E-02  0.5363E+00
     15.209  0.5532E-02  0.5367E+00
     15.280  0.5673E-02  0.5371E+00
     15.352  0.5393E-02  0.5375E+00
     15.424  0.3854E-02  0.5378E+00
     15.495  0.2626E-02  0.5380E+00
     15.567  0.2034E-02  0.5381E+00
     15.638  0.1858E-02  0.5383E+00
     15.710  0.1845E-02  0.5384E+00
     15.782  0.2022E-02  0.5385E+00
     15.853  0.2417E-02  0.5387E+00
     15.925  0.2380E-02  0.5389E+00
     15.996  0.1753E-02  0.5390E+00
     16.068  0.1172E-02  0.5391E+00
     16.140  0.7156E-03  0.5391E+00
     16.211  0.3655E-03  0.5392E+00
     16.283  0.4833E-03  0.5392E+00
     16.354  0.8545E-03  0.5393E+00
     16.426  0.8614E-03  0.5393E+00
     16.498  0.7608E-03  0.5394E+00
     16.569  0.8560E-03  0.5394E+00
     16.641  0.8298E-03  0.5395E+00
     16.712  0.6639E-03  0.5396E+00
     16.784  0.6316E-03  0.5396E+00
     16.856  0.5970E-03  0.5396E+00
     16.927  0.3701E-03  0.5397E+00
     16.999  0.2751E-03  0.5397E+00
     17.071  0.2944E-03  0.5397E+00
     17.142  0.3151E-03  0.5397E+00
     17.214  0.4584E-03  0.5398E+00
     17.285  0.5404E-03  0.5398E+00
     17.357  0.4978E-03  0.5398E+00
     17.429  0.3794E-03  0.5399E+00
     17.500  0.1964E-03  0.5399E+00
     17.572  0.1507E-03  0.5399E+00
     17.643  0.2476E-03  0.5399E+00
     17.715  0.2068E-03  0.5399E+00
     17.787  0.6809E-04  0.5399E+00
     17.858  0.8667E-05  0.5399E+00
     17.930  0.6626E-06  0.5399E+00
     18.001  0.5866E-05  0.5399E+00
     18.073  0.5613E-04  0.5399E+00
     18.145  0.2201E-03  0.5399E+00
     18.216  0.3637E-03  0.5400E+00
     18.288  0.2580E-03  0.5400E+00
     18.359  0.7850E-04  0.5400E+00
     18.431  0.1003E-04  0.5400E+00
     18.503  0.5218E-06  0.5400E+00
     18.574  0.1069E-07  0.5400E+00
     18.646  0.8405E-10  0.5400E+00
     18.717  0.2486E-12  0.5400E+00
     18.789  0.2729E-15  0.5400E+00
     18.861  0.1103E-18  0.5400E+00
     18.932  0.0000E+00  0.5400E+00
     19.004  0.0000E+00  0.5400E+00
     19.075  0.0000E+00  0.5400E+00
     19.147  0.0000E+00  0.5400E+00
     19.219  0.0000E+00  0.5400E+00
