       N       E                     dE             d eps       ncg     rms          rms(c)
DAV:   1     0.268268765883E+03    0.26827E+03   -0.22336E+04 91890   0.150E+03
DAV:   2    -0.789257099947E+01   -0.27616E+03   -0.26758E+03105669   0.318E+02
DAV:   3    -0.130363540079E+02   -0.51438E+01   -0.51007E+01102555   0.452E+01
DAV:   4    -0.130684563395E+02   -0.32102E-01   -0.32089E-01103896   0.374E+00
DAV:   5    -0.130688041262E+02   -0.34779E-03   -0.34777E-03107442   0.401E-01    0.137E+01
RMM:   6    -0.121083447991E+02    0.96046E+00   -0.26735E+00 91152   0.105E+01    0.929E+00
RMM:   7    -0.120619023795E+02    0.46442E-01   -0.24002E-01 91202   0.294E+00    0.471E+00
RMM:   8    -0.120550386169E+02    0.68638E-02   -0.10890E-02 91175   0.687E-01    0.458E-01
RMM:   9    -0.120549085167E+02    0.13010E-03   -0.39265E-04 91269   0.116E-01    0.566E-02
RMM:  10    -0.120549291593E+02   -0.20643E-04   -0.34475E-05 91219   0.418E-02    0.150E-02
RMM:  11    -0.120549296634E+02   -0.50406E-06   -0.94735E-07 50703   0.519E-03
   1 F= -.12054930E+02 E0= -.12051641E+02  d E =-.120549E+02
