   8   8   0   0
  0.5704611E+01  0.3573615E-09  0.3573615E-09  0.3573615E-09  0.5000000E-15
  1.000000000000000E-004
  CAR 
 unknown system                          
     24.33719242    -12.17017003  301     11.08045643      1.00000000
    -12.170  0.0000E+00  0.0000E+00
    -12.048  0.0000E+00  0.0000E+00
    -11.927  0.0000E+00  0.0000E+00
    -11.805  0.0000E+00  0.0000E+00
    -11.683  0.0000E+00  0.0000E+00
    -11.562  0.0000E+00  0.0000E+00
    -11.440  0.0000E+00  0.0000E+00
    -11.318  0.0000E+00  0.0000E+00
    -11.197  0.0000E+00  0.0000E+00
    -11.075  0.0000E+00  0.0000E+00
    -10.953  0.0000E+00  0.0000E+00
    -10.832  0.0000E+00  0.0000E+00
    -10.710  0.4201E-11  0.5113E-12
    -10.588  0.6786E-05  0.8258E-06
    -10.466  0.5372E-03  0.6619E-04
    -10.345  0.1733E-02  0.2771E-03
    -10.223  0.2190E-02  0.5436E-03
    -10.101  0.3276E-02  0.9423E-03
     -9.980  0.2345E-02  0.1228E-02
     -9.858  0.4418E-02  0.1765E-02
     -9.736  0.3476E-02  0.2188E-02
     -9.615  0.3996E-02  0.2675E-02
     -9.493  0.5006E-02  0.3284E-02
     -9.371  0.4930E-02  0.3884E-02
     -9.250  0.5418E-02  0.4543E-02
     -9.128  0.3870E-02  0.5014E-02
     -9.006  0.6745E-02  0.5835E-02
     -8.885  0.6525E-02  0.6629E-02
     -8.763  0.5257E-02  0.7269E-02
     -8.641  0.5000E-02  0.7877E-02
     -8.519  0.7343E-02  0.8771E-02
     -8.398  0.8162E-02  0.9764E-02
     -8.276  0.5811E-02  0.1047E-01
     -8.154  0.7571E-02  0.1139E-01
     -8.033  0.6302E-02  0.1216E-01
     -7.911  0.8613E-02  0.1321E-01
     -7.789  0.5731E-02  0.1390E-01
     -7.668  0.9373E-02  0.1505E-01
     -7.546  0.1055E-01  0.1633E-01
     -7.424  0.5465E-02  0.1699E-01
     -7.303  0.8213E-02  0.1799E-01
     -7.181  0.7217E-02  0.1887E-01
     -7.059  0.1242E-01  0.2038E-01
     -6.937  0.8669E-02  0.2144E-01
     -6.816  0.9507E-02  0.2260E-01
     -6.694  0.7472E-02  0.2350E-01
     -6.572  0.1070E-01  0.2481E-01
     -6.451  0.8832E-02  0.2588E-01
     -6.329  0.1076E-01  0.2719E-01
     -6.207  0.1012E-01  0.2842E-01
     -6.086  0.1093E-01  0.2975E-01
     -5.964  0.1104E-01  0.3110E-01
     -5.842  0.1122E-01  0.3246E-01
     -5.721  0.1311E-01  0.3406E-01
     -5.599  0.6676E-02  0.3487E-01
     -5.477  0.9923E-02  0.3608E-01
     -5.355  0.1657E-01  0.3809E-01
     -5.234  0.1310E-01  0.3969E-01
     -5.112  0.1191E-01  0.4114E-01
     -4.990  0.1460E-01  0.4291E-01
     -4.869  0.1124E-01  0.4428E-01
     -4.747  0.1433E-01  0.4603E-01
     -4.625  0.1585E-01  0.4796E-01
     -4.504  0.1640E-01  0.4995E-01
     -4.382  0.1372E-01  0.5162E-01
     -4.260  0.1357E-01  0.5327E-01
     -4.139  0.1341E-01  0.5490E-01
     -4.017  0.2033E-01  0.5738E-01
     -3.895  0.8873E-02  0.5846E-01
     -3.773  0.1232E-01  0.5996E-01
     -3.652  0.1016E-01  0.6119E-01
     -3.530  0.1037E-01  0.6246E-01
     -3.408  0.1624E-01  0.6443E-01
     -3.287  0.1414E-01  0.6615E-01
     -3.165  0.6697E-02  0.6697E-01
     -3.043  0.1149E-01  0.6837E-01
     -2.922  0.1102E-01  0.6971E-01
     -2.800  0.1216E-01  0.7119E-01
     -2.678  0.9082E-02  0.7229E-01
     -2.557  0.5406E-02  0.7295E-01
     -2.435  0.7058E-02  0.7381E-01
     -2.313  0.1005E-01  0.7503E-01
     -2.191  0.1284E-01  0.7659E-01
     -2.070  0.1235E-01  0.7810E-01
     -1.948  0.1501E-01  0.7992E-01
     -1.826  0.1196E-01  0.8138E-01
     -1.705  0.6215E-02  0.8213E-01
     -1.583  0.7505E-02  0.8305E-01
     -1.461  0.1203E-01  0.8451E-01
     -1.340  0.8414E-02  0.8554E-01
     -1.218  0.9086E-02  0.8664E-01
     -1.096  0.1677E-01  0.8868E-01
     -0.975  0.1842E-01  0.9092E-01
     -0.853  0.1637E-01  0.9292E-01
     -0.731  0.2467E-01  0.9592E-01
     -0.610  0.2044E-01  0.9841E-01
     -0.488  0.2382E-01  0.1013E+00
     -0.366  0.1336E-01  0.1029E+00
     -0.244  0.2075E-01  0.1055E+00
     -0.123  0.2216E-01  0.1082E+00
     -0.001  0.2787E-01  0.1115E+00
      0.121  0.1487E-01  0.1134E+00
      0.242  0.1514E-01  0.1152E+00
      0.364  0.8172E-02  0.1162E+00
      0.486  0.1080E-01  0.1175E+00
      0.607  0.1510E-01  0.1193E+00
      0.729  0.9571E-02  0.1205E+00
      0.851  0.1294E-01  0.1221E+00
      0.972  0.1345E-01  0.1237E+00
      1.094  0.1686E-01  0.1258E+00
      1.216  0.7887E-02  0.1267E+00
      1.338  0.8621E-02  0.1278E+00
      1.459  0.1301E-01  0.1294E+00
      1.581  0.1174E-01  0.1308E+00
      1.703  0.8774E-02  0.1319E+00
      1.824  0.1604E-01  0.1338E+00
      1.946  0.1429E-01  0.1355E+00
      2.068  0.2486E-01  0.1386E+00
      2.189  0.1486E-01  0.1404E+00
      2.311  0.2438E-01  0.1433E+00
      2.433  0.2000E-01  0.1458E+00
      2.554  0.2620E-01  0.1490E+00
      2.676  0.1892E-01  0.1513E+00
      2.798  0.1669E-01  0.1533E+00
      2.920  0.1411E-01  0.1550E+00
      3.041  0.1746E-01  0.1571E+00
      3.163  0.3113E-01  0.1609E+00
      3.285  0.3155E-01  0.1648E+00
      3.406  0.1114E-01  0.1661E+00
      3.528  0.1751E-01  0.1683E+00
      3.650  0.2251E-01  0.1710E+00
      3.771  0.2338E-01  0.1738E+00
      3.893  0.2745E-01  0.1772E+00
      4.015  0.2307E-01  0.1800E+00
      4.136  0.2496E-01  0.1830E+00
      4.258  0.1625E-01  0.1850E+00
      4.380  0.2920E-01  0.1886E+00
      4.502  0.3553E-01  0.1929E+00
      4.623  0.3102E-01  0.1967E+00
      4.745  0.2936E-01  0.2002E+00
      4.867  0.2904E-01  0.2038E+00
      4.988  0.2755E-01  0.2071E+00
      5.110  0.2726E-01  0.2104E+00
      5.232  0.4097E-01  0.2154E+00
      5.353  0.4265E-01  0.2206E+00
      5.475  0.2253E-01  0.2234E+00
      5.597  0.1680E-01  0.2254E+00
      5.718  0.3035E-01  0.2291E+00
      5.840  0.3354E-01  0.2332E+00
      5.962  0.4089E-01  0.2382E+00
      6.084  0.2410E-01  0.2411E+00
      6.205  0.2221E-01  0.2438E+00
      6.327  0.3132E-01  0.2476E+00
      6.449  0.2860E-01  0.2511E+00
      6.570  0.2506E-01  0.2541E+00
      6.692  0.3310E-01  0.2582E+00
      6.814  0.2617E-01  0.2613E+00
      6.935  0.2154E-01  0.2640E+00
      7.057  0.2782E-01  0.2673E+00
      7.179  0.3676E-01  0.2718E+00
      7.300  0.2254E-01  0.2746E+00
      7.422  0.2050E-01  0.2771E+00
      7.544  0.2850E-01  0.2805E+00
      7.665  0.1801E-01  0.2827E+00
      7.787  0.3688E-01  0.2872E+00
      7.909  0.3070E-01  0.2909E+00
      8.031  0.1663E-01  0.2930E+00
      8.152  0.1492E-01  0.2948E+00
      8.274  0.2623E-01  0.2980E+00
      8.396  0.1949E-01  0.3003E+00
      8.517  0.2088E-01  0.3029E+00
      8.639  0.1191E-01  0.3043E+00
      8.761  0.7321E-02  0.3052E+00
      8.882  0.1215E-01  0.3067E+00
      9.004  0.1834E-01  0.3089E+00
      9.126  0.1143E-01  0.3103E+00
      9.247  0.9275E-02  0.3115E+00
      9.369  0.7789E-02  0.3124E+00
      9.491  0.5538E-02  0.3131E+00
      9.613  0.1197E-01  0.3145E+00
      9.734  0.8834E-02  0.3156E+00
      9.856  0.4699E-02  0.3162E+00
      9.978  0.5896E-02  0.3169E+00
     10.099  0.4492E-02  0.3174E+00
     10.221  0.6808E-02  0.3183E+00
     10.343  0.3395E-02  0.3187E+00
     10.464  0.4603E-02  0.3192E+00
     10.586  0.2071E-02  0.3195E+00
     10.708  0.2685E-02  0.3198E+00
     10.829  0.1312E-02  0.3200E+00
     10.951  0.1110E-03  0.3200E+00
     11.073  0.2075E-08  0.3200E+00
     11.195  0.0000E+00  0.3200E+00
     11.316  0.0000E+00  0.3200E+00
     11.438  0.0000E+00  0.3200E+00
     11.560  0.0000E+00  0.3200E+00
     11.681  0.0000E+00  0.3200E+00
     11.803  0.0000E+00  0.3200E+00
     11.925  0.0000E+00  0.3200E+00
     12.046  0.0000E+00  0.3200E+00
     12.168  0.0000E+00  0.3200E+00
     12.290  0.0000E+00  0.3200E+00
     12.411  0.0000E+00  0.3200E+00
     12.533  0.0000E+00  0.3200E+00
     12.655  0.0000E+00  0.3200E+00
     12.777  0.0000E+00  0.3200E+00
     12.898  0.0000E+00  0.3200E+00
     13.020  0.0000E+00  0.3200E+00
     13.142  0.0000E+00  0.3200E+00
     13.263  0.0000E+00  0.3200E+00
     13.385  0.0000E+00  0.3200E+00
     13.507  0.0000E+00  0.3200E+00
     13.628  0.0000E+00  0.3200E+00
     13.750  0.0000E+00  0.3200E+00
     13.872  0.0000E+00  0.3200E+00
     13.993  0.0000E+00  0.3200E+00
     14.115  0.0000E+00  0.3200E+00
     14.237  0.0000E+00  0.3200E+00
     14.359  0.0000E+00  0.3200E+00
     14.480  0.0000E+00  0.3200E+00
     14.602  0.0000E+00  0.3200E+00
     14.724  0.0000E+00  0.3200E+00
     14.845  0.6671E-13  0.3200E+00
     14.967  0.1921E-05  0.3200E+00
     15.089  0.1742E-02  0.3202E+00
     15.210  0.3825E-02  0.3207E+00
     15.332  0.2592E-02  0.3210E+00
     15.454  0.3426E-02  0.3214E+00
     15.575  0.1064E-01  0.3227E+00
     15.697  0.8966E-02  0.3238E+00
     15.819  0.7962E-02  0.3248E+00
     15.940  0.7628E-02  0.3257E+00
     16.062  0.7583E-02  0.3266E+00
     16.184  0.1759E-01  0.3288E+00
     16.306  0.1757E-01  0.3309E+00
     16.427  0.1724E-01  0.3330E+00
     16.549  0.1552E-01  0.3349E+00
     16.671  0.1423E-01  0.3366E+00
     16.792  0.1760E-01  0.3388E+00
     16.914  0.1427E-01  0.3405E+00
     17.036  0.1989E-01  0.3429E+00
     17.157  0.2641E-01  0.3461E+00
     17.279  0.2542E-01  0.3492E+00
     17.401  0.2132E-01  0.3518E+00
     17.522  0.1550E-01  0.3537E+00
     17.644  0.1938E-01  0.3561E+00
     17.766  0.3140E-01  0.3599E+00
     17.888  0.2414E-01  0.3628E+00
     18.009  0.2394E-01  0.3657E+00
     18.131  0.1762E-01  0.3679E+00
     18.253  0.2776E-01  0.3713E+00
     18.374  0.3315E-01  0.3753E+00
     18.496  0.3459E-01  0.3795E+00
     18.618  0.3708E-01  0.3840E+00
     18.739  0.3540E-01  0.3883E+00
     18.861  0.3202E-01  0.3922E+00
     18.983  0.3044E-01  0.3959E+00
     19.104  0.3866E-01  0.4006E+00
     19.226  0.3716E-01  0.4051E+00
     19.348  0.4049E-01  0.4101E+00
     19.470  0.4420E-01  0.4155E+00
     19.591  0.5866E-01  0.4226E+00
     19.713  0.3868E-01  0.4273E+00
     19.835  0.2748E-01  0.4306E+00
     19.956  0.3508E-01  0.4349E+00
     20.078  0.2743E-01  0.4382E+00
     20.200  0.2361E-01  0.4411E+00
     20.321  0.2094E-01  0.4437E+00
     20.443  0.2604E-01  0.4468E+00
     20.565  0.4316E-01  0.4521E+00
     20.686  0.2765E-01  0.4555E+00
     20.808  0.3042E-01  0.4592E+00
     20.930  0.2435E-01  0.4621E+00
     21.052  0.2458E-01  0.4651E+00
     21.173  0.2387E-01  0.4680E+00
     21.295  0.1374E-01  0.4697E+00
     21.417  0.1090E-01  0.4710E+00
     21.538  0.2072E-01  0.4735E+00
     21.660  0.1524E-01  0.4754E+00
     21.782  0.1224E-01  0.4769E+00
     21.903  0.1220E-01  0.4784E+00
     22.025  0.4321E-02  0.4789E+00
     22.147  0.4902E-02  0.4795E+00
     22.268  0.1112E-02  0.4796E+00
     22.390  0.2088E-03  0.4796E+00
     22.512  0.3262E-04  0.4797E+00
     22.634  0.1389E-02  0.4798E+00
     22.755  0.1474E-02  0.4800E+00
     22.877  0.1045E-04  0.4800E+00
     22.999  0.6383E-11  0.4800E+00
     23.120  0.0000E+00  0.4800E+00
     23.242  0.0000E+00  0.4800E+00
     23.364  0.0000E+00  0.4800E+00
     23.485  0.0000E+00  0.4800E+00
     23.607  0.0000E+00  0.4800E+00
     23.729  0.0000E+00  0.4800E+00
     23.850  0.0000E+00  0.4800E+00
     23.972  0.0000E+00  0.4800E+00
     24.094  0.0000E+00  0.4800E+00
     24.216  0.0000E+00  0.4800E+00
     24.337  0.0000E+00  0.4800E+00
