       N       E                     dE             d eps       ncg     rms          rms(c)
DAV:   1     0.100542788334E+03    0.10054E+03   -0.25933E+04 13440   0.199E+03
DAV:   2    -0.725407425931E+02   -0.17308E+03   -0.17045E+03 21888   0.225E+02
DAV:   3    -0.752636990150E+02   -0.27230E+01   -0.27230E+01 15432   0.400E+01
DAV:   4    -0.752812513627E+02   -0.17552E-01   -0.17552E-01 25248   0.251E+00
DAV:   5    -0.752812540575E+02   -0.26948E-05   -0.26948E-05 15144   0.357E-02    0.165E+01
DAV:   6    -0.734551913823E+02    0.18261E+01   -0.13764E+00 16224   0.625E+00    0.108E+01
DAV:   7    -0.728437304172E+02    0.61146E+00   -0.17853E+00 19296   0.720E+00    0.229E+00
DAV:   8    -0.728421301253E+02    0.16003E-02   -0.24258E-02 22104   0.118E+00    0.120E-01
DAV:   9    -0.728423076181E+02   -0.17749E-03   -0.45921E-04 18984   0.142E-01    0.615E-02
DAV:  10    -0.728424304120E+02   -0.12279E-03   -0.11651E-04 21096   0.856E-02    0.478E-03
DAV:  11    -0.728424315289E+02   -0.11169E-05   -0.16362E-06 20400   0.101E-02    0.288E-03
DAV:  12    -0.728424318820E+02   -0.35307E-06   -0.67865E-08 21000   0.236E-03    0.153E-04
DAV:  13    -0.728424318912E+02   -0.92641E-08   -0.18884E-10 20664   0.109E-04
   1 F= -.72842432E+02 E0= -.72842432E+02  d E =-.728424E+02
       N       E                     dE             d eps       ncg     rms          rms(c)
DAV:   1    -0.728423448111E+02    0.87071E-04   -0.21516E-02 17760   0.119E+00    0.290E-02
DAV:   2    -0.728423521646E+02   -0.73535E-05   -0.12599E-04 22584   0.823E-02    0.148E-02
DAV:   3    -0.728423501810E+02    0.19836E-05   -0.53579E-06 18816   0.154E-02    0.318E-03
DAV:   4    -0.728423502341E+02   -0.53022E-07   -0.50736E-07 21480   0.501E-03    0.112E-03
DAV:   5    -0.728423502241E+02    0.99062E-08   -0.45094E-08 18456   0.149E-03
   2 F= -.72842350E+02 E0= -.72842350E+02  d E =0.816671E-04
       N       E                     dE             d eps       ncg     rms          rms(c)
DAV:   1    -0.728424433853E+02   -0.93151E-04   -0.11195E-02 17472   0.855E-01    0.209E-02
DAV:   2    -0.728424472424E+02   -0.38571E-05   -0.65838E-05 22608   0.593E-02    0.107E-02
DAV:   3    -0.728424462543E+02    0.98807E-06   -0.28398E-06 18672   0.112E-02    0.223E-03
DAV:   4    -0.728424462927E+02   -0.38362E-07   -0.26132E-07 20976   0.359E-03    0.814E-04
DAV:   5    -0.728424462975E+02   -0.47694E-08   -0.22798E-08 17472   0.106E-03
   3 F= -.72842446E+02 E0= -.72842446E+02  d E =-.144062E-04
