 running on   24 total cores
 distrk:  each k-point on   24 cores,    1 groups
 distr:  one band on    1 cores,   24 groups
 using from now: INCAR     
 vasp.5.4.4.18Apr17-6-g9f103f2a35 (build Jan 14 2019 14:48:31) complex          
  
 POSCAR found type information on POSCAR  C 
 POSCAR found :  1 types and       8 ions
 scaLAPACK will be used

 ----------------------------------------------------------------------------- 
|                                                                             |
|           W    W    AA    RRRRR   N    N  II  N    N   GGGG   !!!           |
|           W    W   A  A   R    R  NN   N  II  NN   N  G    G  !!!           |
|           W    W  A    A  R    R  N N  N  II  N N  N  G       !!!           |
|           W WW W  AAAAAA  RRRRR   N  N N  II  N  N N  G  GGG   !            |
|           WW  WW  A    A  R   R   N   NN  II  N   NN  G    G                |
|           W    W  A    A  R    R  N    N  II  N    N   GGGG   !!!           |
|                                                                             |
|      For optimal performance we recommend to set                            |
|        NCORE= 4 - approx SQRT( number of cores)                             |
|      NCORE specifies how many cores store one orbital (NPAR=cpu/NCORE).     |
|      This setting can  greatly improve the performance of VASP for DFT.     |
|      The default,   NCORE=1            might be grossly inefficient         |
|      on modern multi-core architectures or massively parallel machines.     |
|      Do your own testing !!!!                                               |
|      Unfortunately you need to use the default for GW and RPA calculations. |
|      (for HF NCORE is supported but not extensively tested yet)             |
|                                                                             |
 ----------------------------------------------------------------------------- 

 WARNING: for PREC=h ENMAX is automatically increase by 25 %
        this was not the case for versions prior to vasp.4.4
 LDA part: xc-table for Pade appr. of Perdew
 POSCAR found type information on POSCAR  C 
 POSCAR found :  1 types and       8 ions
 POSCAR, INCAR and KPOINTS ok, starting setup
 FFT: planning ...
 WAVECAR not read
 entering main loop
       N       E                     dE             d eps       ncg     rms          rms(c)
DAV:   1     0.100542788334E+03    0.10054E+03   -0.25933E+04 13440   0.199E+03
DAV:   2    -0.725407425931E+02   -0.17308E+03   -0.17045E+03 21888   0.225E+02
DAV:   3    -0.752636990150E+02   -0.27230E+01   -0.27230E+01 15432   0.400E+01
DAV:   4    -0.752812513627E+02   -0.17552E-01   -0.17552E-01 25248   0.251E+00
DAV:   5    -0.752812540575E+02   -0.26948E-05   -0.26948E-05 15144   0.357E-02    0.165E+01
DAV:   6    -0.734551913823E+02    0.18261E+01   -0.13764E+00 16224   0.625E+00    0.108E+01
DAV:   7    -0.728437304172E+02    0.61146E+00   -0.17853E+00 19296   0.720E+00    0.229E+00
DAV:   8    -0.728421301253E+02    0.16003E-02   -0.24258E-02 22104   0.118E+00    0.120E-01
DAV:   9    -0.728423076181E+02   -0.17749E-03   -0.45921E-04 18984   0.142E-01    0.615E-02
DAV:  10    -0.728424304120E+02   -0.12279E-03   -0.11651E-04 21096   0.856E-02    0.478E-03
DAV:  11    -0.728424315289E+02   -0.11169E-05   -0.16362E-06 20400   0.101E-02    0.288E-03
DAV:  12    -0.728424318820E+02   -0.35307E-06   -0.67865E-08 21000   0.236E-03    0.153E-04
DAV:  13    -0.728424318912E+02   -0.92641E-08   -0.18884E-10 20664   0.109E-04
   1 F= -.72842432E+02 E0= -.72842432E+02  d E =-.728424E+02
 curvature:   0.00 expect dE= 0.000E+00 dE for cont linesearch  0.000E+00
 trial: gam= 0.00000 g(F)=  0.103E-03 g(S)=  0.000E+00 ort = 0.000E+00 (trialstep = 0.100E+01)
 search vector abs. value=  0.103E-03
 bond charge predicted
       N       E                     dE             d eps       ncg     rms          rms(c)
DAV:   1    -0.728423448111E+02    0.87071E-04   -0.21516E-02 17760   0.119E+00    0.290E-02
DAV:   2    -0.728423521646E+02   -0.73535E-05   -0.12599E-04 22584   0.823E-02    0.148E-02
DAV:   3    -0.728423501810E+02    0.19836E-05   -0.53579E-06 18816   0.154E-02    0.318E-03
DAV:   4    -0.728423502341E+02   -0.53022E-07   -0.50736E-07 21480   0.501E-03    0.112E-03
DAV:   5    -0.728423502241E+02    0.99062E-08   -0.45094E-08 18456   0.149E-03
   2 F= -.72842350E+02 E0= -.72842350E+02  d E =0.816671E-04
 trial-energy change:    0.000082  1 .order    0.000081   -0.000103    0.000266
 step:   0.2788(harm=  0.2798)  dis= 0.00013  next Energy=   -72.842446 (dE=-0.144E-04)
 bond charge predicted
       N       E                     dE             d eps       ncg     rms          rms(c)
DAV:   1    -0.728424433853E+02   -0.93151E-04   -0.11195E-02 17472   0.855E-01    0.209E-02
DAV:   2    -0.728424472424E+02   -0.38571E-05   -0.65838E-05 22608   0.593E-02    0.107E-02
DAV:   3    -0.728424462543E+02    0.98807E-06   -0.28398E-06 18672   0.112E-02    0.223E-03
DAV:   4    -0.728424462927E+02   -0.38362E-07   -0.26132E-07 20976   0.359E-03    0.814E-04
DAV:   5    -0.728424462975E+02   -0.47694E-08   -0.22798E-08 17472   0.106E-03
   3 F= -.72842446E+02 E0= -.72842446E+02  d E =-.144062E-04
 curvature:  -0.14 expect dE=-0.109E-10 dE for cont linesearch -0.109E-10
 trial: gam=-0.00087 g(F)=  0.777E-10 g(S)=  0.000E+00 ort = 0.896E-07 (trialstep = 0.856E+00)
 search vector abs. value=  0.100E-09
 reached required accuracy - stopping structural energy minimisation
