<?xml version="1.0" encoding="ISO-8859-1"?>
<modeling>
 <generator>
  <i name="program" type="string">vasp </i>
  <i name="version" type="string">5.4.4.18Apr17-6-g9f103f2a35  </i>
  <i name="subversion" type="string">(build Jan 14 2019 14:48:31) complex            parallel </i>
  <i name="platform" type="string">LinuxIFC </i>
  <i name="date" type="string">2019 08 26 </i>
  <i name="time" type="string">21:07:08 </i>
 </generator>
 <incar>
  <i type="int" name="ISTART">     0</i>
  <i type="string" name="PREC">high     (precision level)</i>
  <i type="logical" name="ADDGRID"> T  </i>
  <i type="int" name="NELM">    40</i>
  <i type="int" name="NELMIN">     4</i>
  <i type="int" name="IBRION">     2</i>
  <i name="EDIFF">      0.00000001</i>
  <i name="EDIFFG">     -0.01000000</i>
  <i type="int" name="NSW">   100</i>
  <i type="int" name="ISIF">     2</i>
  <i type="logical" name="LREAL"> F  </i>
  <i type="int" name="ISMEAR">     0</i>
  <i name="SIGMA">      0.05000000</i>
  <i type="logical" name="LWAVE"> F  </i>
  <i type="logical" name="LCHARG"> F  </i>
  <v type="int" name="KPOINT_BSE">    -1     0     0     0</v>
  <i type="int" name="NELM">    40</i>
 </incar>
 <structure name="primitive_cell" >
  <crystal>
   <varray name="basis" >
    <v>      -0.00595601       1.78382453       1.78382453 </v>
    <v>       1.78382453      -0.00595601       1.78382453 </v>
    <v>       1.78382453       1.78382453      -0.00595601 </v>
   </varray>
   <i name="volume">     11.40922258 </i>
   <varray name="rec_basis" >
    <v>      -0.27889670       0.27983102       0.27983102 </v>
    <v>       0.27983102      -0.27889670       0.27983102 </v>
    <v>       0.27983102       0.27983102      -0.27889670 </v>
   </varray>
  </crystal>
  <varray name="positions" >
   <v>       0.25000000       0.25000000       0.25000000 </v>
   <v>       0.00000000       0.00000000       0.00000000 </v>
  </varray>
 </structure>
 <varray name="primitive_index" >
  <v type="int" >        1 </v>
  <v type="int" >        2 </v>
 </varray>
 <kpoints>
  <generation param="Monkhorst-Pack">
   <v type="int" name="divisions">      14       14       14 </v>
   <v name="usershift">      0.00000000       0.00000000       0.00000000 </v>
   <v name="genvec1">      0.07142857      -0.00000000      -0.00000000 </v>
   <v name="genvec2">     -0.00000000       0.07142857      -0.00000000 </v>
   <v name="genvec3">     -0.00000000      -0.00000000       0.07142857 </v>
   <v name="shift">      0.50000000       0.50000000       0.50000000 </v>
  </generation>
  <varray name="kpointlist" >
   <v>       0.03571429       0.03571429       0.03571429 </v>
   <v>       0.10714286       0.03571429       0.03571429 </v>
   <v>       0.17857143       0.03571429       0.03571429 </v>
   <v>       0.25000000       0.03571429       0.03571429 </v>
   <v>       0.32142857       0.03571429       0.03571429 </v>
   <v>       0.39285714       0.03571429       0.03571429 </v>
   <v>       0.46428571       0.03571429       0.03571429 </v>
   <v>      -0.46428571       0.03571429       0.03571429 </v>
   <v>      -0.39285714       0.03571429       0.03571429 </v>
   <v>      -0.32142857       0.03571429       0.03571429 </v>
   <v>      -0.25000000       0.03571429       0.03571429 </v>
   <v>      -0.17857143       0.03571429       0.03571429 </v>
   <v>      -0.10714286       0.03571429       0.03571429 </v>
   <v>      -0.03571429       0.03571429       0.03571429 </v>
   <v>       0.10714286       0.10714286       0.03571429 </v>
   <v>       0.17857143       0.10714286       0.03571429 </v>
   <v>       0.25000000       0.10714286       0.03571429 </v>
   <v>       0.32142857       0.10714286       0.03571429 </v>
   <v>       0.39285714       0.10714286       0.03571429 </v>
   <v>       0.46428571       0.10714286       0.03571429 </v>
   <v>      -0.46428571       0.10714286       0.03571429 </v>
   <v>      -0.39285714       0.10714286       0.03571429 </v>
   <v>      -0.32142857       0.10714286       0.03571429 </v>
   <v>      -0.25000000       0.10714286       0.03571429 </v>
   <v>      -0.17857143       0.10714286       0.03571429 </v>
   <v>      -0.10714286       0.10714286       0.03571429 </v>
   <v>      -0.03571429       0.10714286       0.03571429 </v>
   <v>       0.17857143       0.17857143       0.03571429 </v>
   <v>       0.25000000       0.17857143       0.03571429 </v>
   <v>       0.32142857       0.17857143       0.03571429 </v>
   <v>       0.39285714       0.17857143       0.03571429 </v>
   <v>       0.46428571       0.17857143       0.03571429 </v>
   <v>      -0.46428571       0.17857143       0.03571429 </v>
   <v>      -0.39285714       0.17857143       0.03571429 </v>
   <v>      -0.32142857       0.17857143       0.03571429 </v>
   <v>      -0.25000000       0.17857143       0.03571429 </v>
   <v>      -0.17857143       0.17857143       0.03571429 </v>
   <v>      -0.10714286       0.17857143       0.03571429 </v>
   <v>      -0.03571429       0.17857143       0.03571429 </v>
   <v>       0.25000000       0.25000000       0.03571429 </v>
   <v>       0.32142857       0.25000000       0.03571429 </v>
   <v>       0.39285714       0.25000000       0.03571429 </v>
   <v>       0.46428571       0.25000000       0.03571429 </v>
   <v>      -0.46428571       0.25000000       0.03571429 </v>
   <v>      -0.39285714       0.25000000       0.03571429 </v>
   <v>      -0.32142857       0.25000000       0.03571429 </v>
   <v>      -0.25000000       0.25000000       0.03571429 </v>
   <v>      -0.17857143       0.25000000       0.03571429 </v>
   <v>      -0.10714286       0.25000000       0.03571429 </v>
   <v>      -0.03571429       0.25000000       0.03571429 </v>
   <v>       0.32142857       0.32142857       0.03571429 </v>
   <v>       0.39285714       0.32142857       0.03571429 </v>
   <v>       0.46428571       0.32142857       0.03571429 </v>
   <v>      -0.46428571       0.32142857       0.03571429 </v>
   <v>      -0.39285714       0.32142857       0.03571429 </v>
   <v>      -0.32142857       0.32142857       0.03571429 </v>
   <v>      -0.25000000       0.32142857       0.03571429 </v>
   <v>      -0.17857143       0.32142857       0.03571429 </v>
   <v>      -0.10714286       0.32142857       0.03571429 </v>
   <v>      -0.03571429       0.32142857       0.03571429 </v>
   <v>       0.39285714       0.39285714       0.03571429 </v>
   <v>       0.46428571       0.39285714       0.03571429 </v>
   <v>      -0.46428571       0.39285714       0.03571429 </v>
   <v>      -0.39285714       0.39285714       0.03571429 </v>
   <v>      -0.32142857       0.39285714       0.03571429 </v>
   <v>      -0.25000000       0.39285714       0.03571429 </v>
   <v>      -0.17857143       0.39285714       0.03571429 </v>
   <v>      -0.10714286       0.39285714       0.03571429 </v>
   <v>      -0.03571429       0.39285714       0.03571429 </v>
   <v>       0.46428571       0.46428571       0.03571429 </v>
   <v>      -0.46428571       0.46428571       0.03571429 </v>
   <v>      -0.39285714       0.46428571       0.03571429 </v>
   <v>      -0.32142857       0.46428571       0.03571429 </v>
   <v>      -0.25000000       0.46428571       0.03571429 </v>
   <v>      -0.17857143       0.46428571       0.03571429 </v>
   <v>      -0.10714286       0.46428571       0.03571429 </v>
   <v>      -0.03571429       0.46428571       0.03571429 </v>
   <v>      -0.46428571      -0.46428571       0.03571429 </v>
   <v>      -0.39285714      -0.46428571       0.03571429 </v>
   <v>      -0.32142857      -0.46428571       0.03571429 </v>
   <v>      -0.25000000      -0.46428571       0.03571429 </v>
   <v>      -0.17857143      -0.46428571       0.03571429 </v>
   <v>      -0.10714286      -0.46428571       0.03571429 </v>
   <v>      -0.39285714      -0.39285714       0.03571429 </v>
   <v>      -0.32142857      -0.39285714       0.03571429 </v>
   <v>      -0.25000000      -0.39285714       0.03571429 </v>
   <v>      -0.17857143      -0.39285714       0.03571429 </v>
   <v>      -0.10714286      -0.39285714       0.03571429 </v>
   <v>      -0.32142857      -0.32142857       0.03571429 </v>
   <v>      -0.25000000      -0.32142857       0.03571429 </v>
   <v>      -0.17857143      -0.32142857       0.03571429 </v>
   <v>      -0.10714286      -0.32142857       0.03571429 </v>
   <v>      -0.25000000      -0.25000000       0.03571429 </v>
   <v>      -0.17857143      -0.25000000       0.03571429 </v>
   <v>      -0.10714286      -0.25000000       0.03571429 </v>
   <v>      -0.17857143      -0.17857143       0.03571429 </v>
   <v>      -0.10714286      -0.17857143       0.03571429 </v>
   <v>      -0.10714286      -0.10714286       0.03571429 </v>
   <v>       0.10714286       0.10714286       0.10714286 </v>
   <v>       0.17857143       0.10714286       0.10714286 </v>
   <v>       0.25000000       0.10714286       0.10714286 </v>
   <v>       0.32142857       0.10714286       0.10714286 </v>
   <v>       0.39285714       0.10714286       0.10714286 </v>
   <v>       0.46428571       0.10714286       0.10714286 </v>
   <v>      -0.46428571       0.10714286       0.10714286 </v>
   <v>      -0.39285714       0.10714286       0.10714286 </v>
   <v>      -0.32142857       0.10714286       0.10714286 </v>
   <v>      -0.25000000       0.10714286       0.10714286 </v>
   <v>      -0.17857143       0.10714286       0.10714286 </v>
   <v>      -0.10714286       0.10714286       0.10714286 </v>
   <v>       0.17857143       0.17857143       0.10714286 </v>
   <v>       0.25000000       0.17857143       0.10714286 </v>
   <v>       0.32142857       0.17857143       0.10714286 </v>
   <v>       0.39285714       0.17857143       0.10714286 </v>
   <v>       0.46428571       0.17857143       0.10714286 </v>
   <v>      -0.46428571       0.17857143       0.10714286 </v>
   <v>      -0.39285714       0.17857143       0.10714286 </v>
   <v>      -0.32142857       0.17857143       0.10714286 </v>
   <v>      -0.25000000       0.17857143       0.10714286 </v>
   <v>      -0.17857143       0.17857143       0.10714286 </v>
   <v>      -0.10714286       0.17857143       0.10714286 </v>
   <v>       0.25000000       0.25000000       0.10714286 </v>
   <v>       0.32142857       0.25000000       0.10714286 </v>
   <v>       0.39285714       0.25000000       0.10714286 </v>
   <v>       0.46428571       0.25000000       0.10714286 </v>
   <v>      -0.46428571       0.25000000       0.10714286 </v>
   <v>      -0.39285714       0.25000000       0.10714286 </v>
   <v>      -0.32142857       0.25000000       0.10714286 </v>
   <v>      -0.25000000       0.25000000       0.10714286 </v>
   <v>      -0.17857143       0.25000000       0.10714286 </v>
   <v>      -0.10714286       0.25000000       0.10714286 </v>
   <v>       0.32142857       0.32142857       0.10714286 </v>
   <v>       0.39285714       0.32142857       0.10714286 </v>
   <v>       0.46428571       0.32142857       0.10714286 </v>
   <v>      -0.46428571       0.32142857       0.10714286 </v>
   <v>      -0.39285714       0.32142857       0.10714286 </v>
   <v>      -0.32142857       0.32142857       0.10714286 </v>
   <v>      -0.25000000       0.32142857       0.10714286 </v>
   <v>      -0.17857143       0.32142857       0.10714286 </v>
   <v>      -0.10714286       0.32142857       0.10714286 </v>
   <v>       0.39285714       0.39285714       0.10714286 </v>
   <v>       0.46428571       0.39285714       0.10714286 </v>
   <v>      -0.46428571       0.39285714       0.10714286 </v>
   <v>      -0.39285714       0.39285714       0.10714286 </v>
   <v>      -0.32142857       0.39285714       0.10714286 </v>
   <v>      -0.25000000       0.39285714       0.10714286 </v>
   <v>      -0.17857143       0.39285714       0.10714286 </v>
   <v>      -0.10714286       0.39285714       0.10714286 </v>
   <v>       0.46428571       0.46428571       0.10714286 </v>
   <v>      -0.46428571       0.46428571       0.10714286 </v>
   <v>      -0.39285714       0.46428571       0.10714286 </v>
   <v>      -0.32142857       0.46428571       0.10714286 </v>
   <v>      -0.25000000       0.46428571       0.10714286 </v>
   <v>      -0.17857143       0.46428571       0.10714286 </v>
   <v>      -0.10714286       0.46428571       0.10714286 </v>
   <v>      -0.46428571      -0.46428571       0.10714286 </v>
   <v>      -0.39285714      -0.46428571       0.10714286 </v>
   <v>      -0.32142857      -0.46428571       0.10714286 </v>
   <v>      -0.25000000      -0.46428571       0.10714286 </v>
   <v>      -0.17857143      -0.46428571       0.10714286 </v>
   <v>      -0.39285714      -0.39285714       0.10714286 </v>
   <v>      -0.32142857      -0.39285714       0.10714286 </v>
   <v>      -0.25000000      -0.39285714       0.10714286 </v>
   <v>      -0.17857143      -0.39285714       0.10714286 </v>
   <v>      -0.32142857      -0.32142857       0.10714286 </v>
   <v>      -0.25000000      -0.32142857       0.10714286 </v>
   <v>      -0.17857143      -0.32142857       0.10714286 </v>
   <v>      -0.25000000      -0.25000000       0.10714286 </v>
   <v>      -0.17857143      -0.25000000       0.10714286 </v>
   <v>      -0.17857143      -0.17857143       0.10714286 </v>
   <v>       0.17857143       0.17857143       0.17857143 </v>
   <v>       0.25000000       0.17857143       0.17857143 </v>
   <v>       0.32142857       0.17857143       0.17857143 </v>
   <v>       0.39285714       0.17857143       0.17857143 </v>
   <v>       0.46428571       0.17857143       0.17857143 </v>
   <v>      -0.46428571       0.17857143       0.17857143 </v>
   <v>      -0.39285714       0.17857143       0.17857143 </v>
   <v>      -0.32142857       0.17857143       0.17857143 </v>
   <v>      -0.25000000       0.17857143       0.17857143 </v>
   <v>      -0.17857143       0.17857143       0.17857143 </v>
   <v>       0.25000000       0.25000000       0.17857143 </v>
   <v>       0.32142857       0.25000000       0.17857143 </v>
   <v>       0.39285714       0.25000000       0.17857143 </v>
   <v>       0.46428571       0.25000000       0.17857143 </v>
   <v>      -0.46428571       0.25000000       0.17857143 </v>
   <v>      -0.39285714       0.25000000       0.17857143 </v>
   <v>      -0.32142857       0.25000000       0.17857143 </v>
   <v>      -0.25000000       0.25000000       0.17857143 </v>
   <v>      -0.17857143       0.25000000       0.17857143 </v>
   <v>       0.32142857       0.32142857       0.17857143 </v>
   <v>       0.39285714       0.32142857       0.17857143 </v>
   <v>       0.46428571       0.32142857       0.17857143 </v>
   <v>      -0.46428571       0.32142857       0.17857143 </v>
   <v>      -0.39285714       0.32142857       0.17857143 </v>
   <v>      -0.32142857       0.32142857       0.17857143 </v>
   <v>      -0.25000000       0.32142857       0.17857143 </v>
   <v>      -0.17857143       0.32142857       0.17857143 </v>
   <v>       0.39285714       0.39285714       0.17857143 </v>
   <v>       0.46428571       0.39285714       0.17857143 </v>
   <v>      -0.46428571       0.39285714       0.17857143 </v>
   <v>      -0.39285714       0.39285714       0.17857143 </v>
   <v>      -0.32142857       0.39285714       0.17857143 </v>
   <v>      -0.25000000       0.39285714       0.17857143 </v>
   <v>      -0.17857143       0.39285714       0.17857143 </v>
   <v>       0.46428571       0.46428571       0.17857143 </v>
   <v>      -0.46428571       0.46428571       0.17857143 </v>
   <v>      -0.39285714       0.46428571       0.17857143 </v>
   <v>      -0.32142857       0.46428571       0.17857143 </v>
   <v>      -0.25000000       0.46428571       0.17857143 </v>
   <v>      -0.17857143       0.46428571       0.17857143 </v>
   <v>      -0.46428571      -0.46428571       0.17857143 </v>
   <v>      -0.39285714      -0.46428571       0.17857143 </v>
   <v>      -0.32142857      -0.46428571       0.17857143 </v>
   <v>      -0.25000000      -0.46428571       0.17857143 </v>
   <v>      -0.39285714      -0.39285714       0.17857143 </v>
   <v>      -0.32142857      -0.39285714       0.17857143 </v>
   <v>      -0.25000000      -0.39285714       0.17857143 </v>
   <v>      -0.32142857      -0.32142857       0.17857143 </v>
   <v>      -0.25000000      -0.32142857       0.17857143 </v>
   <v>      -0.25000000      -0.25000000       0.17857143 </v>
   <v>       0.25000000       0.25000000       0.25000000 </v>
   <v>       0.32142857       0.25000000       0.25000000 </v>
   <v>       0.39285714       0.25000000       0.25000000 </v>
   <v>       0.46428571       0.25000000       0.25000000 </v>
   <v>      -0.46428571       0.25000000       0.25000000 </v>
   <v>      -0.39285714       0.25000000       0.25000000 </v>
   <v>      -0.32142857       0.25000000       0.25000000 </v>
   <v>      -0.25000000       0.25000000       0.25000000 </v>
   <v>       0.32142857       0.32142857       0.25000000 </v>
   <v>       0.39285714       0.32142857       0.25000000 </v>
   <v>       0.46428571       0.32142857       0.25000000 </v>
   <v>      -0.46428571       0.32142857       0.25000000 </v>
   <v>      -0.39285714       0.32142857       0.25000000 </v>
   <v>      -0.32142857       0.32142857       0.25000000 </v>
   <v>      -0.25000000       0.32142857       0.25000000 </v>
   <v>       0.39285714       0.39285714       0.25000000 </v>
   <v>       0.46428571       0.39285714       0.25000000 </v>
   <v>      -0.46428571       0.39285714       0.25000000 </v>
   <v>      -0.39285714       0.39285714       0.25000000 </v>
   <v>      -0.32142857       0.39285714       0.25000000 </v>
   <v>      -0.25000000       0.39285714       0.25000000 </v>
   <v>       0.46428571       0.46428571       0.25000000 </v>
   <v>      -0.46428571       0.46428571       0.25000000 </v>
   <v>      -0.39285714       0.46428571       0.25000000 </v>
   <v>      -0.32142857       0.46428571       0.25000000 </v>
   <v>      -0.25000000       0.46428571       0.25000000 </v>
   <v>      -0.46428571      -0.46428571       0.25000000 </v>
   <v>      -0.39285714      -0.46428571       0.25000000 </v>
   <v>      -0.32142857      -0.46428571       0.25000000 </v>
   <v>      -0.39285714      -0.39285714       0.25000000 </v>
   <v>      -0.32142857      -0.39285714       0.25000000 </v>
   <v>      -0.32142857      -0.32142857       0.25000000 </v>
   <v>       0.32142857       0.32142857       0.32142857 </v>
   <v>       0.39285714       0.32142857       0.32142857 </v>
   <v>       0.46428571       0.32142857       0.32142857 </v>
   <v>      -0.46428571       0.32142857       0.32142857 </v>
   <v>      -0.39285714       0.32142857       0.32142857 </v>
   <v>      -0.32142857       0.32142857       0.32142857 </v>
   <v>       0.39285714       0.39285714       0.32142857 </v>
   <v>       0.46428571       0.39285714       0.32142857 </v>
   <v>      -0.46428571       0.39285714       0.32142857 </v>
   <v>      -0.39285714       0.39285714       0.32142857 </v>
   <v>      -0.32142857       0.39285714       0.32142857 </v>
   <v>       0.46428571       0.46428571       0.32142857 </v>
   <v>      -0.46428571       0.46428571       0.32142857 </v>
   <v>      -0.39285714       0.46428571       0.32142857 </v>
   <v>      -0.32142857       0.46428571       0.32142857 </v>
   <v>      -0.46428571      -0.46428571       0.32142857 </v>
   <v>      -0.39285714      -0.46428571       0.32142857 </v>
   <v>      -0.39285714      -0.39285714       0.32142857 </v>
   <v>       0.39285714       0.39285714       0.39285714 </v>
   <v>       0.46428571       0.39285714       0.39285714 </v>
   <v>      -0.46428571       0.39285714       0.39285714 </v>
   <v>      -0.39285714       0.39285714       0.39285714 </v>
   <v>       0.46428571       0.46428571       0.39285714 </v>
   <v>      -0.46428571       0.46428571       0.39285714 </v>
   <v>      -0.39285714       0.46428571       0.39285714 </v>
   <v>      -0.46428571      -0.46428571       0.39285714 </v>
   <v>       0.46428571       0.46428571       0.46428571 </v>
   <v>      -0.46428571       0.46428571       0.46428571 </v>
  </varray>
  <varray name="weights" >
   <v>       0.00072886 </v>
   <v>       0.00218659 </v>
   <v>       0.00218659 </v>
   <v>       0.00218659 </v>
   <v>       0.00218659 </v>
   <v>       0.00218659 </v>
   <v>       0.00218659 </v>
   <v>       0.00218659 </v>
   <v>       0.00218659 </v>
   <v>       0.00218659 </v>
   <v>       0.00218659 </v>
   <v>       0.00218659 </v>
   <v>       0.00218659 </v>
   <v>       0.00218659 </v>
   <v>       0.00218659 </v>
   <v>       0.00437318 </v>
   <v>       0.00437318 </v>
   <v>       0.00437318 </v>
   <v>       0.00437318 </v>
   <v>       0.00437318 </v>
   <v>       0.00437318 </v>
   <v>       0.00437318 </v>
   <v>       0.00437318 </v>
   <v>       0.00437318 </v>
   <v>       0.00437318 </v>
   <v>       0.00437318 </v>
   <v>       0.00437318 </v>
   <v>       0.00218659 </v>
   <v>       0.00437318 </v>
   <v>       0.00437318 </v>
   <v>       0.00437318 </v>
   <v>       0.00437318 </v>
   <v>       0.00437318 </v>
   <v>       0.00437318 </v>
   <v>       0.00437318 </v>
   <v>       0.00437318 </v>
   <v>       0.00437318 </v>
   <v>       0.00437318 </v>
   <v>       0.00437318 </v>
   <v>       0.00218659 </v>
   <v>       0.00437318 </v>
   <v>       0.00437318 </v>
   <v>       0.00437318 </v>
   <v>       0.00437318 </v>
   <v>       0.00437318 </v>
   <v>       0.00437318 </v>
   <v>       0.00437318 </v>
   <v>       0.00437318 </v>
   <v>       0.00437318 </v>
   <v>       0.00437318 </v>
   <v>       0.00218659 </v>
   <v>       0.00437318 </v>
   <v>       0.00437318 </v>
   <v>       0.00437318 </v>
   <v>       0.00437318 </v>
   <v>       0.00437318 </v>
   <v>       0.00437318 </v>
   <v>       0.00437318 </v>
   <v>       0.00437318 </v>
   <v>       0.00437318 </v>
   <v>       0.00218659 </v>
   <v>       0.00437318 </v>
   <v>       0.00437318 </v>
   <v>       0.00437318 </v>
   <v>       0.00437318 </v>
   <v>       0.00437318 </v>
   <v>       0.00437318 </v>
   <v>       0.00437318 </v>
   <v>       0.00437318 </v>
   <v>       0.00218659 </v>
   <v>       0.00437318 </v>
   <v>       0.00437318 </v>
   <v>       0.00437318 </v>
   <v>       0.00437318 </v>
   <v>       0.00437318 </v>
   <v>       0.00437318 </v>
   <v>       0.00437318 </v>
   <v>       0.00218659 </v>
   <v>       0.00437318 </v>
   <v>       0.00437318 </v>
   <v>       0.00437318 </v>
   <v>       0.00437318 </v>
   <v>       0.00437318 </v>
   <v>       0.00218659 </v>
   <v>       0.00437318 </v>
   <v>       0.00437318 </v>
   <v>       0.00437318 </v>
   <v>       0.00437318 </v>
   <v>       0.00218659 </v>
   <v>       0.00437318 </v>
   <v>       0.00437318 </v>
   <v>       0.00437318 </v>
   <v>       0.00218659 </v>
   <v>       0.00437318 </v>
   <v>       0.00437318 </v>
   <v>       0.00218659 </v>
   <v>       0.00437318 </v>
   <v>       0.00218659 </v>
   <v>       0.00072886 </v>
   <v>       0.00218659 </v>
   <v>       0.00218659 </v>
   <v>       0.00218659 </v>
   <v>       0.00218659 </v>
   <v>       0.00218659 </v>
   <v>       0.00218659 </v>
   <v>       0.00218659 </v>
   <v>       0.00218659 </v>
   <v>       0.00218659 </v>
   <v>       0.00218659 </v>
   <v>       0.00218659 </v>
   <v>       0.00218659 </v>
   <v>       0.00437318 </v>
   <v>       0.00437318 </v>
   <v>       0.00437318 </v>
   <v>       0.00437318 </v>
   <v>       0.00437318 </v>
   <v>       0.00437318 </v>
   <v>       0.00437318 </v>
   <v>       0.00437318 </v>
   <v>       0.00437318 </v>
   <v>       0.00437318 </v>
   <v>       0.00218659 </v>
   <v>       0.00437318 </v>
   <v>       0.00437318 </v>
   <v>       0.00437318 </v>
   <v>       0.00437318 </v>
   <v>       0.00437318 </v>
   <v>       0.00437318 </v>
   <v>       0.00437318 </v>
   <v>       0.00437318 </v>
   <v>       0.00437318 </v>
   <v>       0.00218659 </v>
   <v>       0.00437318 </v>
   <v>       0.00437318 </v>
   <v>       0.00437318 </v>
   <v>       0.00437318 </v>
   <v>       0.00437318 </v>
   <v>       0.00437318 </v>
   <v>       0.00437318 </v>
   <v>       0.00437318 </v>
   <v>       0.00218659 </v>
   <v>       0.00437318 </v>
   <v>       0.00437318 </v>
   <v>       0.00437318 </v>
   <v>       0.00437318 </v>
   <v>       0.00437318 </v>
   <v>       0.00437318 </v>
   <v>       0.00437318 </v>
   <v>       0.00218659 </v>
   <v>       0.00437318 </v>
   <v>       0.00437318 </v>
   <v>       0.00437318 </v>
   <v>       0.00437318 </v>
   <v>       0.00437318 </v>
   <v>       0.00437318 </v>
   <v>       0.00218659 </v>
   <v>       0.00437318 </v>
   <v>       0.00437318 </v>
   <v>       0.00437318 </v>
   <v>       0.00437318 </v>
   <v>       0.00218659 </v>
   <v>       0.00437318 </v>
   <v>       0.00437318 </v>
   <v>       0.00437318 </v>
   <v>       0.00218659 </v>
   <v>       0.00437318 </v>
   <v>       0.00437318 </v>
   <v>       0.00218659 </v>
   <v>       0.00437318 </v>
   <v>       0.00218659 </v>
   <v>       0.00072886 </v>
   <v>       0.00218659 </v>
   <v>       0.00218659 </v>
   <v>       0.00218659 </v>
   <v>       0.00218659 </v>
   <v>       0.00218659 </v>
   <v>       0.00218659 </v>
   <v>       0.00218659 </v>
   <v>       0.00218659 </v>
   <v>       0.00218659 </v>
   <v>       0.00218659 </v>
   <v>       0.00437318 </v>
   <v>       0.00437318 </v>
   <v>       0.00437318 </v>
   <v>       0.00437318 </v>
   <v>       0.00437318 </v>
   <v>       0.00437318 </v>
   <v>       0.00437318 </v>
   <v>       0.00437318 </v>
   <v>       0.00218659 </v>
   <v>       0.00437318 </v>
   <v>       0.00437318 </v>
   <v>       0.00437318 </v>
   <v>       0.00437318 </v>
   <v>       0.00437318 </v>
   <v>       0.00437318 </v>
   <v>       0.00437318 </v>
   <v>       0.00218659 </v>
   <v>       0.00437318 </v>
   <v>       0.00437318 </v>
   <v>       0.00437318 </v>
   <v>       0.00437318 </v>
   <v>       0.00437318 </v>
   <v>       0.00437318 </v>
   <v>       0.00218659 </v>
   <v>       0.00437318 </v>
   <v>       0.00437318 </v>
   <v>       0.00437318 </v>
   <v>       0.00437318 </v>
   <v>       0.00437318 </v>
   <v>       0.00218659 </v>
   <v>       0.00437318 </v>
   <v>       0.00437318 </v>
   <v>       0.00437318 </v>
   <v>       0.00218659 </v>
   <v>       0.00437318 </v>
   <v>       0.00437318 </v>
   <v>       0.00218659 </v>
   <v>       0.00437318 </v>
   <v>       0.00218659 </v>
   <v>       0.00072886 </v>
   <v>       0.00218659 </v>
   <v>       0.00218659 </v>
   <v>       0.00218659 </v>
   <v>       0.00218659 </v>
   <v>       0.00218659 </v>
   <v>       0.00218659 </v>
   <v>       0.00218659 </v>
   <v>       0.00218659 </v>
   <v>       0.00437318 </v>
   <v>       0.00437318 </v>
   <v>       0.00437318 </v>
   <v>       0.00437318 </v>
   <v>       0.00437318 </v>
   <v>       0.00437318 </v>
   <v>       0.00218659 </v>
   <v>       0.00437318 </v>
   <v>       0.00437318 </v>
   <v>       0.00437318 </v>
   <v>       0.00437318 </v>
   <v>       0.00437318 </v>
   <v>       0.00218659 </v>
   <v>       0.00437318 </v>
   <v>       0.00437318 </v>
   <v>       0.00437318 </v>
   <v>       0.00437318 </v>
   <v>       0.00218659 </v>
   <v>       0.00437318 </v>
   <v>       0.00437318 </v>
   <v>       0.00218659 </v>
   <v>       0.00437318 </v>
   <v>       0.00218659 </v>
   <v>       0.00072886 </v>
   <v>       0.00218659 </v>
   <v>       0.00218659 </v>
   <v>       0.00218659 </v>
   <v>       0.00218659 </v>
   <v>       0.00218659 </v>
   <v>       0.00218659 </v>
   <v>       0.00437318 </v>
   <v>       0.00437318 </v>
   <v>       0.00437318 </v>
   <v>       0.00437318 </v>
   <v>       0.00218659 </v>
   <v>       0.00437318 </v>
   <v>       0.00437318 </v>
   <v>       0.00437318 </v>
   <v>       0.00218659 </v>
   <v>       0.00437318 </v>
   <v>       0.00218659 </v>
   <v>       0.00072886 </v>
   <v>       0.00218659 </v>
   <v>       0.00218659 </v>
   <v>       0.00218659 </v>
   <v>       0.00218659 </v>
   <v>       0.00437318 </v>
   <v>       0.00437318 </v>
   <v>       0.00218659 </v>
   <v>       0.00072886 </v>
   <v>       0.00218659 </v>
  </varray>
 </kpoints>
 <parameters>
  <separator name="general" >
   <i type="string" name="SYSTEM">unknown system</i>
   <i type="logical" name="LCOMPAT"> F  </i>
  </separator>
  <separator name="electronic" >
   <i type="string" name="PREC">high</i>
   <i name="ENMAX">    875.00000000</i>
   <i name="ENAUG">    946.76800000</i>
   <i name="EDIFF">      0.00000001</i>
   <i type="int" name="IALGO">    38</i>
   <i type="int" name="IWAVPR">    11</i>
   <i type="int" name="NBANDS">    24</i>
   <i name="NELECT">     32.00000000</i>
   <i type="int" name="TURBO">     0</i>
   <i type="int" name="IRESTART">     0</i>
   <i type="int" name="NREBOOT">     0</i>
   <i type="int" name="NMIN">     0</i>
   <i name="EREF">      0.00000000</i>
   <separator name="electronic smearing" >
    <i type="int" name="ISMEAR">     0</i>
    <i name="SIGMA">      0.05000000</i>
    <i name="KSPACING">      0.50000000</i>
    <i type="logical" name="KGAMMA"> T  </i>
   </separator>
   <separator name="electronic projectors" >
    <i type="logical" name="LREAL"> F  </i>
    <v name="ROPT">      0.00000000</v>
    <i type="int" name="LMAXPAW">  -100</i>
    <i type="int" name="LMAXMIX">     2</i>
    <i type="logical" name="NLSPLINE"> F  </i>
   </separator>
   <separator name="electronic startup" >
    <i type="int" name="ISTART">     0</i>
    <i type="int" name="ICHARG">     2</i>
    <i type="int" name="INIWAV">     1</i>
   </separator>
   <separator name="electronic spin" >
    <i type="int" name="ISPIN">     1</i>
    <i type="logical" name="LNONCOLLINEAR"> F  </i>
    <v name="MAGMOM">      1.00000000      1.00000000      1.00000000      1.00000000      1.00000000      1.00000000      1.00000000      1.00000000</v>
    <i name="NUPDOWN">     -1.00000000</i>
    <i type="logical" name="LSORBIT"> F  </i>
    <v name="SAXIS">      0.00000000      0.00000000      1.00000000</v>
    <i type="logical" name="LSPIRAL"> F  </i>
    <v name="QSPIRAL">      0.00000000      0.00000000      0.00000000</v>
    <i type="logical" name="LZEROZ"> F  </i>
   </separator>
   <separator name="electronic exchange-correlation" >
    <i type="logical" name="LASPH"> F  </i>
    <i type="logical" name="LMETAGGA"> F  </i>
   </separator>
   <separator name="electronic convergence" >
    <i type="int" name="NELM">    40</i>
    <i type="int" name="NELMDL">    -5</i>
    <i type="int" name="NELMIN">     4</i>
    <i name="ENINI">    875.00000000</i>
    <separator name="electronic convergence detail" >
     <i type="logical" name="LDIAG"> T  </i>
     <i type="logical" name="LSUBROT"> F  </i>
     <i name="WEIMIN">      0.00100000</i>
     <i name="EBREAK">      0.00000000</i>
     <i name="DEPER">      0.30000000</i>
     <i type="int" name="NRMM">     4</i>
     <i name="TIME">      0.40000000</i>
    </separator>
   </separator>
   <separator name="electronic mixer" >
    <i name="AMIX">      0.40000000</i>
    <i name="BMIX">      1.00000000</i>
    <i name="AMIN">      0.10000000</i>
    <i name="AMIX_MAG">      1.60000000</i>
    <i name="BMIX_MAG">      1.00000000</i>
    <separator name="electronic mixer details" >
     <i type="int" name="IMIX">     4</i>
     <i type="logical" name="MIXFIRST"> F  </i>
     <i type="int" name="MAXMIX">   -45</i>
     <i name="WC">    100.00000000</i>
     <i type="int" name="INIMIX">     1</i>
     <i type="int" name="MIXPRE">     1</i>
     <i type="int" name="MREMOVE">     5</i>
    </separator>
   </separator>
   <separator name="electronic dipolcorrection" >
    <i type="logical" name="LDIPOL"> F  </i>
    <i type="logical" name="LMONO"> F  </i>
    <i type="int" name="IDIPOL">     0</i>
    <i name="EPSILON">      1.00000000</i>
    <v name="DIPOL">   -100.00000000   -100.00000000   -100.00000000</v>
    <i name="EFIELD">      0.00000000</i>
   </separator>
  </separator>
  <separator name="grids" >
   <i type="int" name="NGX">    36</i>
   <i type="int" name="NGY">    36</i>
   <i type="int" name="NGZ">    36</i>
   <i type="int" name="NGXF">    48</i>
   <i type="int" name="NGYF">    48</i>
   <i type="int" name="NGZF">    48</i>
   <i type="logical" name="ADDGRID"> T  </i>
  </separator>
  <separator name="ionic" >
   <i type="int" name="NSW">   100</i>
   <i type="int" name="IBRION">     2</i>
   <i type="int" name="MDALGO">     0</i>
   <i type="int" name="ISIF">     2</i>
   <i name="PSTRESS">      0.00000000</i>
   <i name="EDIFFG">     -0.01000000</i>
   <i type="int" name="NFREE">     1</i>
   <i name="POTIM">      0.50000000</i>
   <i name="SMASS">     -3.00000000</i>
   <i name="SCALEE">      1.00000000</i>
  </separator>
  <separator name="ionic md" >
   <i name="TEBEG">      0.00010000</i>
   <i name="TEEND">      0.00010000</i>
   <i type="int" name="NBLOCK">     1</i>
   <i type="int" name="KBLOCK">   100</i>
   <i type="int" name="NPACO">   256</i>
   <i name="APACO">     16.00000000</i>
  </separator>
  <separator name="symmetry" >
   <i type="int" name="ISYM">     2</i>
   <i name="SYMPREC">      0.00001000</i>
  </separator>
  <separator name="dos" >
   <i type="int" name="LORBIT">     0</i>
   <v name="RWIGS">     -1.00000000</v>
   <i type="int" name="NEDOS">   301</i>
   <i name="EMIN">     10.00000000</i>
   <i name="EMAX">    -10.00000000</i>
   <i name="EFERMI">      0.00000000</i>
  </separator>
  <separator name="writing" >
   <i type="int" name="NWRITE">     2</i>
   <i type="logical" name="LWAVE"> F  </i>
   <i type="logical" name="LDOWNSAMPLE"> F  </i>
   <i type="logical" name="LCHARG"> F  </i>
   <i type="logical" name="LPARD"> F  </i>
   <i type="logical" name="LVTOT"> F  </i>
   <i type="logical" name="LVHAR"> F  </i>
   <i type="logical" name="LELF"> F  </i>
   <i type="logical" name="LOPTICS"> F  </i>
   <v name="STM">      0.00000000      0.00000000      0.00000000      0.00000000      0.00000000      0.00000000      0.00000000</v>
  </separator>
  <separator name="performance" >
   <i type="int" name="NPAR">    24</i>
   <i type="int" name="NSIM">     4</i>
   <i type="int" name="NBLK">    -1</i>
   <i type="logical" name="LPLANE"> T  </i>
   <i type="logical" name="LSCALAPACK"> T  </i>
   <i type="logical" name="LSCAAWARE"> F  </i>
   <i type="logical" name="LSCALU"> F  </i>
   <i type="logical" name="LASYNC"> F  </i>
   <i type="logical" name="LORBITALREAL"> F  </i>
  </separator>
  <separator name="miscellaneous" >
   <i type="int" name="IDIOT">     3</i>
   <i type="int" name="ISPECIAL">     0</i>
   <i type="logical" name="LMUSIC"> F  </i>
   <v name="POMASS">     12.01100000</v>
   <v name="DARWINR">      0.00000000</v>
   <v name="DARWINV">      1.00000000</v>
   <i type="logical" name="LCORR"> T  </i>
  </separator>
  <i type="logical" name="GGA_COMPAT"> T  </i>
  <i type="logical" name="LBERRY"> F  </i>
  <i type="int" name="ICORELEVEL">     0</i>
  <i type="logical" name="LDAU"> F  </i>
  <i type="int" name="I_CONSTRAINED_M">     0</i>
  <separator name="electronic exchange-correlation" >
   <i type="string" name="GGA">--</i>
   <i type="int" name="VOSKOWN">     0</i>
   <i type="logical" name="LHFCALC"> F  </i>
   <i type="string" name="PRECFOCK"></i>
   <i type="logical" name="LSYMGRAD"> F  </i>
   <i type="logical" name="LHFONE"> F  </i>
   <i type="logical" name="LRHFCALC"> F  </i>
   <i type="logical" name="LTHOMAS"> F  </i>
   <i type="logical" name="LMODELHF"> F  </i>
   <i name="ENCUT4O">     -1.00000000</i>
   <i type="int" name="EXXOEP">     0</i>
   <i type="int" name="FOURORBIT">     0</i>
   <i name="AEXX">      0.00000000</i>
   <i name="HFALPHA">      0.00000000</i>
   <i name="MCALPHA">      0.00000000</i>
   <i name="ALDAX">      1.00000000</i>
   <i name="AGGAX">      1.00000000</i>
   <i name="ALDAC">      1.00000000</i>
   <i name="AGGAC">      1.00000000</i>
   <i type="int" name="NKREDX">     1</i>
   <i type="int" name="NKREDY">     1</i>
   <i type="int" name="NKREDZ">     1</i>
   <i type="logical" name="SHIFTRED"> F  </i>
   <i type="logical" name="ODDONLY"> F  </i>
   <i type="logical" name="EVENONLY"> F  </i>
   <i type="int" name="LMAXFOCK">     0</i>
   <i type="int" name="NMAXFOCKAE">     0</i>
   <i type="logical" name="LFOCKAEDFT"> F  </i>
   <i name="HFSCREEN">      0.00000000</i>
   <i name="HFSCREENC">      0.00000000</i>
   <i type="int" name="NBANDSGWLOW">     0</i>
  </separator>
  <separator name="vdW DFT" >
   <i type="logical" name="LUSE_VDW"> F  </i>
   <i name="Zab_VDW">     -0.84910000</i>
   <i name="PARAM1">      0.12340000</i>
   <i name="PARAM2">      1.00000000</i>
   <i name="PARAM3">      0.00000000</i>
  </separator>
  <separator name="model GW" >
   <i type="int" name="MODEL_GW">     0</i>
   <i name="MODEL_EPS0">      3.42276677</i>
   <i name="MODEL_ALPHA">      1.00000000</i>
  </separator>
  <separator name="linear response parameters" >
   <i type="logical" name="LEPSILON"> F  </i>
   <i type="logical" name="LRPA"> F  </i>
   <i type="logical" name="LNABLA"> F  </i>
   <i type="logical" name="LVEL"> F  </i>
   <i type="int" name="KINTER">     0</i>
   <i name="CSHIFT">      0.10000000</i>
   <i name="OMEGAMAX">     -1.00000000</i>
   <i name="DEG_THRESHOLD">      0.00200000</i>
   <i name="RTIME">     -0.10000000</i>
   <i name="WPLASMAI">      0.00000000</i>
   <v name="DFIELD">      0.00000000      0.00000000      0.00000000</v>
   <v name="WPLASMA">      0.00000000      0.00000000      0.00000000      0.00000000      0.00000000      0.00000000      0.00000000      0.00000000      0.00000000</v>
  </separator>
  <separator name="orbital magnetization" >
   <i type="logical" name="NUCIND"> F  </i>
   <v name="MAGPOS">      0.00000000      0.00000000      0.00000000</v>
   <i type="logical" name="LNICSALL"> T  </i>
   <i type="logical" name="ORBITALMAG"> F  </i>
   <i type="logical" name="LMAGBLOCH"> F  </i>
   <i type="logical" name="LCHIMAG"> F  </i>
   <i type="logical" name="LGAUGE"> T  </i>
   <i type="int" name="MAGATOM">     0</i>
   <v name="MAGDIPOL">      0.00000000      0.00000000      0.00000000</v>
   <v name="AVECCONST">      0.00000000      0.00000000      0.00000000</v>
  </separator>
  <separator name="response functions" >
   <i type="logical" name="LADDER"> F  </i>
   <i type="logical" name="LRPAFORCE"> F  </i>
   <i type="logical" name="LFXC"> F  </i>
   <i type="logical" name="LHARTREE"> T  </i>
   <i type="int" name="IBSE">     0</i>
   <v type="int" name="KPOINT">    -1     0     0     0</v>
   <i type="logical" name="LTCTE"> F  </i>
   <i type="logical" name="LTETE"> F  </i>
   <i type="logical" name="LTRIPLET"> F  </i>
   <i type="logical" name="LFXCEPS"> F  </i>
   <i type="logical" name="LFXHEG"> F  </i>
   <i type="int" name="NATURALO">     2</i>
   <i type="logical" name="L2ORDER"> F  </i>
   <i type="logical" name="LMP2LT"> F  </i>
   <i type="logical" name="LUSEW"> F  </i>
   <i name="ENCUTGW">     -2.00000000</i>
   <i name="ENCUTGWSOFT">     -2.00000000</i>
   <i name="ENCUTLF">     -1.00000000</i>
   <i type="int" name="LMAXMP2">    -1</i>
   <i name="SCISSOR">      0.00000000</i>
   <i type="int" name="NOMEGA">     0</i>
   <i type="int" name="NOMEGAR">     0</i>
   <i type="int" name="NBANDSGW">    -1</i>
   <i type="int" name="NBANDSO">    -1</i>
   <i type="int" name="NBANDSV">    -1</i>
   <i type="int" name="NELM">    40</i>
   <i type="int" name="NELMHF">     1</i>
   <i type="int" name="DIM">     3</i>
   <i type="int" name="ANTIRES">     0</i>
   <i name="OMEGAMAX">    -30.00000000</i>
   <i name="OMEGAMIN">    -30.00000000</i>
   <i name="OMEGATL">   -200.00000000</i>
   <i type="int" name="OMEGAGRID">   140</i>
   <i name="CSHIFT">     -0.10000000</i>
   <i type="logical" name="SELFENERGY"> F  </i>
   <i type="logical" name="LSPECTRAL"> F  </i>
   <i type="logical" name="LSPECTRALGW"> F  </i>
   <i type="logical" name="LSINGLES"> F  </i>
   <i type="logical" name="LFERMIGW"> F  </i>
   <i type="logical" name="ODDONLYGW"> F  </i>
   <i type="logical" name="EVENONLYGW"> F  </i>
   <i type="int" name="NKREDLFX">     1</i>
   <i type="int" name="NKREDLFY">     1</i>
   <i type="int" name="NKREDLFZ">     1</i>
   <i type="int" name="MAXMEM">  2800</i>
   <i type="int" name="TELESCOPE">     0</i>
   <i type="int" name="TAUPAR">     1</i>
   <i type="int" name="OMEGAPAR">    -1</i>
   <i name="LAMBDA">      1.00000000</i>
  </separator>
  <separator name="External order field" >
   <i name="OFIELD_KAPPA">      0.00000000</i>
   <v name="OFIELD_K">      0.00000000      0.00000000      0.00000000</v>
   <i name="OFIELD_Q6_NEAR">      0.00000000</i>
   <i name="OFIELD_Q6_FAR">      0.00000000</i>
   <i name="OFIELD_A">      0.00000000</i>
  </separator>
 </parameters>
 <atominfo>
  <atoms>       8 </atoms>
  <types>       1 </types>
  <array name="atoms" >
   <dimension dim="1">ion</dimension>
   <field type="string">element</field>
   <field type="int">atomtype</field>
   <set>
    <rc><c>C </c><c>   1</c></rc>
    <rc><c>C </c><c>   1</c></rc>
    <rc><c>C </c><c>   1</c></rc>
    <rc><c>C </c><c>   1</c></rc>
    <rc><c>C </c><c>   1</c></rc>
    <rc><c>C </c><c>   1</c></rc>
    <rc><c>C </c><c>   1</c></rc>
    <rc><c>C </c><c>   1</c></rc>
   </set>
  </array>
  <array name="atomtypes" >
   <dimension dim="1">type</dimension>
   <field type="int">atomspertype</field>
   <field type="string">element</field>
   <field>mass</field>
   <field>valence</field>
   <field type="string">pseudopotential</field>
   <set>
    <rc><c>   8</c><c>C </c><c>     12.01100000</c><c>      4.00000000</c><c>  PAW_PBE C_h 06Feb2004                 </c></rc>
   </set>
  </array>
 </atominfo>
 <structure name="initialpos" >
  <crystal>
   <varray name="basis" >
    <v>       3.57360507      -0.00595601      -0.00595601 </v>
    <v>      -0.00595601       3.57360507      -0.00595601 </v>
    <v>      -0.00595601      -0.00595601       3.57360507 </v>
   </varray>
   <i name="volume">     45.63689031 </i>
   <varray name="rec_basis" >
    <v>       0.27983102       0.00046716       0.00046716 </v>
    <v>       0.00046716       0.27983102       0.00046716 </v>
    <v>       0.00046716       0.00046716       0.27983102 </v>
   </varray>
  </crystal>
  <varray name="positions" >
   <v>       0.25000000       0.25000000       0.25000000 </v>
   <v>       0.00000000       0.00000000       0.00000000 </v>
   <v>       0.25000000       0.75000000       0.75000000 </v>
   <v>       0.00000000       0.50000000       0.50000000 </v>
   <v>       0.75000000       0.25000000       0.75000000 </v>
   <v>       0.50000000       0.00000000       0.50000000 </v>
   <v>       0.75000000       0.75000000       0.25000000 </v>
   <v>       0.50000000       0.50000000       0.00000000 </v>
  </varray>
 </structure>
 <calculation>
  <scstep>
   <time name="dav">    4.44    5.34</time>
   <time name="total">    4.48    5.43</time>
   <energy>
    <i name="alphaZ">     76.87919996 </i>
    <i name="ewald">  -1389.18055727 </i>
    <i name="hartreedc">    -70.48377124 </i>
    <i name="XCdc">     62.04347939 </i>
    <i name="pawpsdc">    914.77613359 </i>
    <i name="pawaedc">   -872.73161751 </i>
    <i name="eentropy">     -0.00121072 </i>
    <i name="bandstr">    202.02835948 </i>
    <i name="atom">   1177.21277265 </i>
    <i name="e_fr_energy">    100.54278833 </i>
    <i name="e_wo_entrp">    100.54399906 </i>
    <i name="e_0_energy">    100.54339370 </i>
   </energy>
  </scstep>
  <scstep>
   <time name="dav">    7.74    7.79</time>
   <time name="total">    7.74    7.79</time>
   <energy>
    <i name="e_fr_energy">    -72.54074259 </i>
    <i name="e_wo_entrp">    -72.54074259 </i>
    <i name="e_0_energy">    -72.54074259 </i>
   </energy>
  </scstep>
  <scstep>
   <time name="dav">    5.25    5.28</time>
   <time name="total">    5.25    5.28</time>
   <energy>
    <i name="e_fr_energy">    -75.26369902 </i>
    <i name="e_wo_entrp">    -75.26369902 </i>
    <i name="e_0_energy">    -75.26369902 </i>
   </energy>
  </scstep>
  <scstep>
   <time name="dav">    9.52    9.54</time>
   <time name="total">    9.52    9.55</time>
   <energy>
    <i name="e_fr_energy">    -75.28125136 </i>
    <i name="e_wo_entrp">    -75.28125136 </i>
    <i name="e_0_energy">    -75.28125136 </i>
   </energy>
  </scstep>
  <scstep>
   <time name="dav">    5.15    5.17</time>
   <time name="total">    5.37    5.43</time>
   <energy>
    <i name="e_fr_energy">    -75.28125406 </i>
    <i name="e_wo_entrp">    -75.28125406 </i>
    <i name="e_0_energy">    -75.28125406 </i>
   </energy>
  </scstep>
  <scstep>
   <time name="dav">    5.49    5.51</time>
   <time name="total">    5.71    5.75</time>
   <energy>
    <i name="e_fr_energy">    -73.45519138 </i>
    <i name="e_wo_entrp">    -73.45519138 </i>
    <i name="e_0_energy">    -73.45519138 </i>
   </energy>
  </scstep>
  <scstep>
   <time name="dav">    6.75    6.77</time>
   <time name="total">    6.97    7.00</time>
   <energy>
    <i name="e_fr_energy">    -72.84373042 </i>
    <i name="e_wo_entrp">    -72.84373042 </i>
    <i name="e_0_energy">    -72.84373042 </i>
   </energy>
  </scstep>
  <scstep>
   <time name="dav">    8.07    8.09</time>
   <time name="total">    8.29    8.32</time>
   <energy>
    <i name="e_fr_energy">    -72.84213013 </i>
    <i name="e_wo_entrp">    -72.84213013 </i>
    <i name="e_0_energy">    -72.84213013 </i>
   </energy>
  </scstep>
  <scstep>
   <time name="dav">    6.79    6.80</time>
   <time name="total">    7.01    7.04</time>
   <energy>
    <i name="e_fr_energy">    -72.84230762 </i>
    <i name="e_wo_entrp">    -72.84230762 </i>
    <i name="e_0_energy">    -72.84230762 </i>
   </energy>
  </scstep>
  <scstep>
   <time name="dav">    7.72    7.73</time>
   <time name="total">    7.94    7.97</time>
   <energy>
    <i name="e_fr_energy">    -72.84243041 </i>
    <i name="e_wo_entrp">    -72.84243041 </i>
    <i name="e_0_energy">    -72.84243041 </i>
   </energy>
  </scstep>
  <scstep>
   <time name="dav">    7.41    7.42</time>
   <time name="total">    7.63    7.65</time>
   <energy>
    <i name="e_fr_energy">    -72.84243153 </i>
    <i name="e_wo_entrp">    -72.84243153 </i>
    <i name="e_0_energy">    -72.84243153 </i>
   </energy>
  </scstep>
  <scstep>
   <time name="dav">    7.66    7.68</time>
   <time name="total">    7.89    7.91</time>
   <energy>
    <i name="e_fr_energy">    -72.84243188 </i>
    <i name="e_wo_entrp">    -72.84243188 </i>
    <i name="e_0_energy">    -72.84243188 </i>
   </energy>
  </scstep>
  <scstep>
   <time name="dav">    7.53    7.55</time>
   <time name="total">    7.54    7.57</time>
   <energy>
    <i name="alphaZ">     76.87919996 </i>
    <i name="ewald">  -1389.18055727 </i>
    <i name="hartreedc">   -105.58586085 </i>
    <i name="XCdc">     65.06751567 </i>
    <i name="pawpsdc">  14456.16198045 </i>
    <i name="pawaedc"> -14414.63287628 </i>
    <i name="eentropy">     -0.00000000 </i>
    <i name="bandstr">     61.23539377 </i>
    <i name="atom">   1177.21277265 </i>
    <i name="e_fr_energy">    -72.84243189 </i>
    <i name="e_wo_entrp">    -72.84243189 </i>
    <i name="e_0_energy">    -72.84243189 </i>
   </energy>
  </scstep>
  <structure>
   <crystal>
    <varray name="basis" >
     <v>       3.57360507      -0.00595601      -0.00595601 </v>
     <v>      -0.00595601       3.57360507      -0.00595601 </v>
     <v>      -0.00595601      -0.00595601       3.57360507 </v>
    </varray>
    <i name="volume">     45.63689031 </i>
    <varray name="rec_basis" >
     <v>       0.27983102       0.00046716       0.00046716 </v>
     <v>       0.00046716       0.27983102       0.00046716 </v>
     <v>       0.00046716       0.00046716       0.27983102 </v>
    </varray>
   </crystal>
   <varray name="positions" >
    <v>       0.25000000       0.25000000       0.25000000 </v>
    <v>       0.00000000       0.00000000       0.00000000 </v>
    <v>       0.25000000       0.75000000       0.75000000 </v>
    <v>       0.00000000       0.50000000       0.50000000 </v>
    <v>       0.75000000       0.25000000       0.75000000 </v>
    <v>       0.50000000       0.00000000       0.50000000 </v>
    <v>       0.75000000       0.75000000       0.25000000 </v>
    <v>       0.50000000       0.50000000       0.00000000 </v>
   </varray>
  </structure>
  <varray name="forces" >
   <v>       0.00945017       0.00945017       0.00945017 </v>
   <v>      -0.00945017      -0.00945017      -0.00945017 </v>
   <v>       0.00945017       0.00945017       0.00945017 </v>
   <v>      -0.00945017      -0.00945017      -0.00945017 </v>
   <v>       0.00945017       0.00945017       0.00945017 </v>
   <v>      -0.00945017      -0.00945017      -0.00945017 </v>
   <v>       0.00945017       0.00945017       0.00945017 </v>
   <v>      -0.00945017      -0.00945017      -0.00945017 </v>
  </varray>
  <varray name="stress" >
   <v>     -13.50469792      18.66738420      18.66738420 </v>
   <v>      18.66738420     -13.50469792      18.66738420 </v>
   <v>      18.66738420      18.66738420     -13.50469792 </v>
  </varray>
  <energy>
   <i name="e_fr_energy">    -72.84243189 </i>
   <i name="e_wo_entrp">    -72.84243189 </i>
   <i name="e_0_energy">     -0.00000000 </i>
  </energy>
  <time name="totalsc">   96.81   98.29</time>
 </calculation>
 <calculation>
  <scstep>
   <time name="dav">    6.20    6.22</time>
   <time name="total">    6.42    6.45</time>
   <energy>
    <i name="alphaZ">     76.87919996 </i>
    <i name="ewald">  -1389.18675705 </i>
    <i name="hartreedc">   -105.58289415 </i>
    <i name="XCdc">     65.06735345 </i>
    <i name="pawpsdc">  14456.17416229 </i>
    <i name="pawaedc"> -14414.64505714 </i>
    <i name="eentropy">     -0.00000000 </i>
    <i name="bandstr">     61.23887518 </i>
    <i name="atom">   1177.21277265 </i>
    <i name="e_fr_energy">    -72.84234481 </i>
    <i name="e_wo_entrp">    -72.84234481 </i>
    <i name="e_0_energy">    -72.84234481 </i>
   </energy>
  </scstep>
  <scstep>
   <time name="dav">    8.32    8.33</time>
   <time name="total">    8.54    8.57</time>
   <energy>
    <i name="e_fr_energy">    -72.84235216 </i>
    <i name="e_wo_entrp">    -72.84235216 </i>
    <i name="e_0_energy">    -72.84235216 </i>
   </energy>
  </scstep>
  <scstep>
   <time name="dav">    6.69    6.70</time>
   <time name="total">    6.91    6.94</time>
   <energy>
    <i name="e_fr_energy">    -72.84235018 </i>
    <i name="e_wo_entrp">    -72.84235018 </i>
    <i name="e_0_energy">    -72.84235018 </i>
   </energy>
  </scstep>
  <scstep>
   <time name="dav">    8.11    8.20</time>
   <time name="total">    8.34    8.44</time>
   <energy>
    <i name="e_fr_energy">    -72.84235023 </i>
    <i name="e_wo_entrp">    -72.84235023 </i>
    <i name="e_0_energy">    -72.84235023 </i>
   </energy>
  </scstep>
  <scstep>
   <time name="dav">    6.57    6.58</time>
   <time name="total">    6.59    6.60</time>
   <energy>
    <i name="alphaZ">     76.87919996 </i>
    <i name="ewald">  -1389.18675705 </i>
    <i name="hartreedc">   -105.58222490 </i>
    <i name="XCdc">     65.06729626 </i>
    <i name="pawpsdc">  14455.63021696 </i>
    <i name="pawaedc"> -14414.10106911 </i>
    <i name="eentropy">     -0.00000000 </i>
    <i name="bandstr">     61.23821501 </i>
    <i name="atom">   1177.21277265 </i>
    <i name="e_fr_energy">    -72.84235022 </i>
    <i name="e_wo_entrp">    -72.84235022 </i>
    <i name="e_0_energy">    -72.84235022 </i>
   </energy>
  </scstep>
  <structure>
   <crystal>
    <varray name="basis" >
     <v>       3.57360507      -0.00595601      -0.00595601 </v>
     <v>      -0.00595601       3.57360507      -0.00595601 </v>
     <v>      -0.00595601      -0.00595601       3.57360507 </v>
    </varray>
    <i name="volume">     45.63689031 </i>
    <varray name="rec_basis" >
     <v>       0.27983102       0.00046716       0.00046716 </v>
     <v>       0.00046716       0.27983102       0.00046716 </v>
     <v>       0.00046716       0.00046716       0.27983102 </v>
    </varray>
   </crystal>
   <varray name="positions" >
    <v>       0.25012800       0.25012800       0.25012800 </v>
    <v>      -0.00012800      -0.00012800      -0.00012800 </v>
    <v>       0.25012800       0.75012800       0.75012800 </v>
    <v>      -0.00012800       0.49987200       0.49987200 </v>
    <v>       0.75012800       0.25012800       0.75012800 </v>
    <v>       0.49987200      -0.00012800       0.49987200 </v>
    <v>       0.75012800       0.75012800       0.25012800 </v>
    <v>       0.49987200       0.49987200      -0.00012800 </v>
   </varray>
  </structure>
  <varray name="forces" >
   <v>      -0.02431860      -0.02431860      -0.02431860 </v>
   <v>       0.02431860       0.02431860       0.02431860 </v>
   <v>      -0.02431860      -0.02431860      -0.02431860 </v>
   <v>       0.02431860       0.02431860       0.02431860 </v>
   <v>      -0.02431860      -0.02431860      -0.02431860 </v>
   <v>       0.02431860       0.02431860       0.02431860 </v>
   <v>      -0.02431860      -0.02431860      -0.02431860 </v>
   <v>       0.02431860       0.02431860       0.02431860 </v>
  </varray>
  <varray name="stress" >
   <v>     -13.56435287      18.28882618      18.28882618 </v>
   <v>      18.28882618     -13.56435287      18.28882618 </v>
   <v>      18.28882618      18.28882618     -13.56435287 </v>
  </varray>
  <energy>
   <i name="e_fr_energy">    -72.84235022 </i>
   <i name="e_wo_entrp">    -72.84235022 </i>
   <i name="e_0_energy">     -0.00000000 </i>
  </energy>
  <time name="totalsc">   42.33   42.56</time>
 </calculation>
 <calculation>
  <scstep>
   <time name="dav">    6.07    6.08</time>
   <time name="total">    6.29    6.32</time>
   <energy>
    <i name="alphaZ">     76.87919996 </i>
    <i name="ewald">  -1389.18237157 </i>
    <i name="hartreedc">   -105.58433368 </i>
    <i name="XCdc">     65.06741517 </i>
    <i name="pawpsdc">  14455.59784925 </i>
    <i name="pawaedc"> -14414.06870299 </i>
    <i name="eentropy">     -0.00000000 </i>
    <i name="bandstr">     61.23572782 </i>
    <i name="atom">   1177.21277265 </i>
    <i name="e_fr_energy">    -72.84244339 </i>
    <i name="e_wo_entrp">    -72.84244339 </i>
    <i name="e_0_energy">    -72.84244339 </i>
   </energy>
  </scstep>
  <scstep>
   <time name="dav">    8.32    8.35</time>
   <time name="total">    8.55    8.58</time>
   <energy>
    <i name="e_fr_energy">    -72.84244724 </i>
    <i name="e_wo_entrp">    -72.84244724 </i>
    <i name="e_0_energy">    -72.84244724 </i>
   </energy>
  </scstep>
  <scstep>
   <time name="dav">    6.63    6.65</time>
   <time name="total">    6.87    6.89</time>
   <energy>
    <i name="e_fr_energy">    -72.84244625 </i>
    <i name="e_wo_entrp">    -72.84244625 </i>
    <i name="e_0_energy">    -72.84244625 </i>
   </energy>
  </scstep>
  <scstep>
   <time name="dav">    7.68    7.70</time>
   <time name="total">    7.90    7.93</time>
   <energy>
    <i name="e_fr_energy">    -72.84244629 </i>
    <i name="e_wo_entrp">    -72.84244629 </i>
    <i name="e_0_energy">    -72.84244629 </i>
   </energy>
  </scstep>
  <scstep>
   <time name="dav">    6.19    6.20</time>
   <time name="total">    6.20    6.23</time>
   <energy>
    <i name="alphaZ">     76.87919996 </i>
    <i name="ewald">  -1389.18237157 </i>
    <i name="hartreedc">   -105.58486926 </i>
    <i name="XCdc">     65.06745822 </i>
    <i name="pawpsdc">  14455.98290146 </i>
    <i name="pawaedc"> -14414.45378576 </i>
    <i name="eentropy">     -0.00000000 </i>
    <i name="bandstr">     61.23624800 </i>
    <i name="atom">   1177.21277265 </i>
    <i name="e_fr_energy">    -72.84244630 </i>
    <i name="e_wo_entrp">    -72.84244630 </i>
    <i name="e_0_energy">    -72.84244630 </i>
   </energy>
  </scstep>
  <structure>
   <crystal>
    <varray name="basis" >
     <v>       3.57360507      -0.00595601      -0.00595601 </v>
     <v>      -0.00595601       3.57360507      -0.00595601 </v>
     <v>      -0.00595601      -0.00595601       3.57360507 </v>
    </varray>
    <i name="volume">     45.63689031 </i>
    <varray name="rec_basis" >
     <v>       0.27983102       0.00046716       0.00046716 </v>
     <v>       0.00046716       0.27983102       0.00046716 </v>
     <v>       0.00046716       0.00046716       0.27983102 </v>
    </varray>
   </crystal>
   <varray name="positions" >
    <v>       0.25003569       0.25003569       0.25003569 </v>
    <v>      -0.00003569      -0.00003569      -0.00003569 </v>
    <v>       0.25003569       0.75003569       0.75003569 </v>
    <v>      -0.00003569       0.49996431       0.49996431 </v>
    <v>       0.75003569       0.25003569       0.75003569 </v>
    <v>       0.49996431      -0.00003569       0.49996431 </v>
    <v>       0.75003569       0.75003569       0.25003569 </v>
    <v>       0.49996431       0.49996431      -0.00003569 </v>
   </varray>
  </structure>
  <varray name="forces" >
   <v>       0.00000819       0.00000819       0.00000819 </v>
   <v>      -0.00000819      -0.00000819      -0.00000819 </v>
   <v>       0.00000819       0.00000819       0.00000819 </v>
   <v>      -0.00000819      -0.00000819      -0.00000819 </v>
   <v>       0.00000819       0.00000819       0.00000819 </v>
   <v>      -0.00000819      -0.00000819      -0.00000819 </v>
   <v>       0.00000819       0.00000819       0.00000819 </v>
   <v>      -0.00000819      -0.00000819      -0.00000819 </v>
  </varray>
  <varray name="stress" >
   <v>     -13.52286168      18.55435709      18.55435709 </v>
   <v>      18.55435709     -13.52286168      18.55435709 </v>
   <v>      18.55435709      18.55435709     -13.52286168 </v>
  </varray>
  <energy>
   <i name="e_fr_energy">    -72.84244630 </i>
   <i name="e_wo_entrp">    -72.84244630 </i>
   <i name="e_0_energy">     -0.00000000 </i>
  </energy>
  <time name="totalsc">   40.97   41.13</time>
  <eigenvalues>
   <array>
    <dimension dim="1">band</dimension>
    <dimension dim="2">kpoint</dimension>
    <dimension dim="3">spin</dimension>
    <field>eigene</field>
    <field>occ</field>
    <set>
     <set comment="spin 1">
      <set comment="kpoint 1">
       <r>  -10.5104    1.0000 </r>
       <r>   -2.4238    1.0000 </r>
       <r>   -2.4238    1.0000 </r>
       <r>   -2.4238    1.0000 </r>
       <r>   -1.2778    1.0000 </r>
       <r>   -1.2778    1.0000 </r>
       <r>   -1.2778    1.0000 </r>
       <r>    4.5097    1.0000 </r>
       <r>    4.5097    1.0000 </r>
       <r>    4.5097    1.0000 </r>
       <r>    4.5857    1.0000 </r>
       <r>    4.5857    1.0000 </r>
       <r>    4.5857    1.0000 </r>
       <r>   10.6115    1.0000 </r>
       <r>   10.7812    1.0000 </r>
       <r>   10.7812    1.0000 </r>
       <r>   15.4873    0.0000 </r>
       <r>   15.4873    0.0000 </r>
       <r>   15.4873    0.0000 </r>
       <r>   15.9428    0.0000 </r>
       <r>   15.9428    0.0000 </r>
       <r>   15.9428    0.0000 </r>
       <r>   16.4741    0.0000 </r>
       <r>   16.4741    0.0000 </r>
      </set>
      <set comment="kpoint 2">
       <r>  -10.4163    1.0000 </r>
       <r>   -3.5095    1.0000 </r>
       <r>   -2.3640    1.0000 </r>
       <r>   -2.3640    1.0000 </r>
       <r>   -1.2207    1.0000 </r>
       <r>   -1.2207    1.0000 </r>
       <r>   -0.1058    1.0000 </r>
       <r>    4.1816    1.0000 </r>
       <r>    4.1816    1.0000 </r>
       <r>    4.5229    1.0000 </r>
       <r>    4.5229    1.0000 </r>
       <r>    4.6013    1.0000 </r>
       <r>    4.6777    1.0000 </r>
       <r>   10.1666    1.0000 </r>
       <r>   10.4147    1.0000 </r>
       <r>   10.6664    1.0000 </r>
       <r>   15.2763    0.0000 </r>
       <r>   15.7536    0.0000 </r>
       <r>   15.7536    0.0000 </r>
       <r>   16.3749    0.0000 </r>
       <r>   16.4242    0.0000 </r>
       <r>   16.4274    0.0000 </r>
       <r>   16.4274    0.0000 </r>
       <r>   16.9197    0.0000 </r>
      </set>
      <set comment="kpoint 3">
       <r>  -10.2286    1.0000 </r>
       <r>   -4.5365    1.0000 </r>
       <r>   -2.2441    1.0000 </r>
       <r>   -2.2441    1.0000 </r>
       <r>   -1.1190    1.0000 </r>
       <r>   -1.1190    1.0000 </r>
       <r>    1.0877    1.0000 </r>
       <r>    3.7361    1.0000 </r>
       <r>    3.7361    1.0000 </r>
       <r>    4.2831    1.0000 </r>
       <r>    4.2831    1.0000 </r>
       <r>    4.7873    1.0000 </r>
       <r>    4.8603    1.0000 </r>
       <r>    9.5410    1.0000 </r>
       <r>    9.8169    1.0000 </r>
       <r>   10.2920    1.0000 </r>
       <r>   15.1358    0.0000 </r>
       <r>   16.2952    0.0000 </r>
       <r>   16.3549    0.0000 </r>
       <r>   16.3549    0.0000 </r>
       <r>   16.9541    0.0000 </r>
       <r>   17.2309    0.0000 </r>
       <r>   17.2309    0.0000 </r>
       <r>   17.6752    0.0000 </r>
      </set>
      <set comment="kpoint 4">
       <r>   -9.9478    1.0000 </r>
       <r>   -5.4968    1.0000 </r>
       <r>   -2.0747    1.0000 </r>
       <r>   -2.0747    1.0000 </r>
       <r>   -0.9886    1.0000 </r>
       <r>   -0.9886    1.0000 </r>
       <r>    2.2848    1.0000 </r>
       <r>    3.2521    1.0000 </r>
       <r>    3.2521    1.0000 </r>
       <r>    3.9331    1.0000 </r>
       <r>    3.9331    1.0000 </r>
       <r>    5.0682    1.0000 </r>
       <r>    5.1321    1.0000 </r>
       <r>    8.8249    1.0000 </r>
       <r>    9.1176    1.0000 </r>
       <r>    9.7153    1.0000 </r>
       <r>   15.0768    0.0000 </r>
       <r>   16.1127    0.0000 </r>
       <r>   17.2372    0.0000 </r>
       <r>   17.2372    0.0000 </r>
       <r>   17.6675    0.0000 </r>
       <r>   18.2636    0.0000 </r>
       <r>   18.2636    0.0000 </r>
       <r>   18.6080    0.0000 </r>
      </set>
      <set comment="kpoint 5">
       <r>   -9.5748    1.0000 </r>
       <r>   -6.3839    1.0000 </r>
       <r>   -1.8749    1.0000 </r>
       <r>   -1.8749    1.0000 </r>
       <r>   -0.8558    1.0000 </r>
       <r>   -0.8558    1.0000 </r>
       <r>    2.8060    1.0000 </r>
       <r>    2.8060    1.0000 </r>
       <r>    3.4633    1.0000 </r>
       <r>    3.5536    1.0000 </r>
       <r>    3.5536    1.0000 </r>
       <r>    5.4468    1.0000 </r>
       <r>    5.4908    1.0000 </r>
       <r>    8.0751    1.0000 </r>
       <r>    8.3958    1.0000 </r>
       <r>    8.9904    1.0000 </r>
       <r>   15.0930    0.0000 </r>
       <r>   15.9011    0.0000 </r>
       <r>   18.3238    0.0000 </r>
       <r>   18.3238    0.0000 </r>
       <r>   18.5156    0.0000 </r>
       <r>   19.4452    0.0000 </r>
       <r>   19.4452    0.0000 </r>
       <r>   19.6367    0.0000 </r>
      </set>
      <set comment="kpoint 6">
       <r>   -9.1105    1.0000 </r>
       <r>   -7.1929    1.0000 </r>
       <r>   -1.6794    1.0000 </r>
       <r>   -1.6794    1.0000 </r>
       <r>   -0.7566    1.0000 </r>
       <r>   -0.7566    1.0000 </r>
       <r>    2.4676    1.0000 </r>
       <r>    2.4676    1.0000 </r>
       <r>    3.2272    1.0000 </r>
       <r>    3.2272    1.0000 </r>
       <r>    4.5929    1.0000 </r>
       <r>    5.9314    1.0000 </r>
       <r>    5.9334    1.0000 </r>
       <r>    7.3122    1.0000 </r>
       <r>    7.6953    1.0000 </r>
       <r>    8.1712    1.0000 </r>
       <r>   15.1751    0.0000 </r>
       <r>   15.6819    0.0000 </r>
       <r>   19.4923    0.0000 </r>
       <r>   19.5301    0.0000 </r>
       <r>   19.5301    0.0000 </r>
       <r>   20.6785    0.0000 </r>
       <r>   20.7051    0.0000 </r>
       <r>   20.7114    0.0000 </r>
      </set>
      <set comment="kpoint 7">
       <r>   -8.5564    1.0000 </r>
       <r>   -7.9196    1.0000 </r>
       <r>   -1.5442    1.0000 </r>
       <r>   -1.5442    1.0000 </r>
       <r>   -0.7178    1.0000 </r>
       <r>   -0.7178    1.0000 </r>
       <r>    2.2873    1.0000 </r>
       <r>    2.2873    1.0000 </r>
       <r>    3.0368    1.0000 </r>
       <r>    3.0368    1.0000 </r>
       <r>    5.6276    1.0000 </r>
       <r>    6.4545    1.0000 </r>
       <r>    6.5129    1.0000 </r>
       <r>    6.5446    1.0000 </r>
       <r>    7.0411    1.0000 </r>
       <r>    7.3317    1.0000 </r>
       <r>   15.3125    0.0000 </r>
       <r>   15.4751    0.0000 </r>
       <r>   20.5759    0.0000 </r>
       <r>   20.7048    0.0000 </r>
       <r>   20.7048    0.0000 </r>
       <r>   21.6309    0.0000 </r>
       <r>   21.6310    0.0000 </r>
       <r>   21.6572    0.0000 </r>
      </set>
      <set comment="kpoint 8">
       <r>   -8.5609    1.0000 </r>
       <r>   -7.9144    1.0000 </r>
       <r>   -1.5316    1.0000 </r>
       <r>   -1.5316    1.0000 </r>
       <r>   -0.7343    1.0000 </r>
       <r>   -0.7343    1.0000 </r>
       <r>    2.2822    1.0000 </r>
       <r>    2.2822    1.0000 </r>
       <r>    3.0469    1.0000 </r>
       <r>    3.0469    1.0000 </r>
       <r>    5.6089    1.0000 </r>
       <r>    6.4489    1.0000 </r>
       <r>    6.5202    1.0000 </r>
       <r>    6.5763    1.0000 </r>
       <r>    7.0474    1.0000 </r>
       <r>    7.3084    1.0000 </r>
       <r>   15.2971    0.0000 </r>
       <r>   15.4931    0.0000 </r>
       <r>   20.5600    0.0000 </r>
       <r>   20.8158    0.0000 </r>
       <r>   20.8158    0.0000 </r>
       <r>   21.5123    0.0000 </r>
       <r>   21.5123    0.0000 </r>
       <r>   21.7096    0.0000 </r>
      </set>
      <set comment="kpoint 9">
       <r>   -9.1142    1.0000 </r>
       <r>   -7.1870    1.0000 </r>
       <r>   -1.6506    1.0000 </r>
       <r>   -1.6506    1.0000 </r>
       <r>   -0.7949    1.0000 </r>
       <r>   -0.7949    1.0000 </r>
       <r>    2.4513    1.0000 </r>
       <r>    2.4513    1.0000 </r>
       <r>    3.2554    1.0000 </r>
       <r>    3.2554    1.0000 </r>
       <r>    4.5727    1.0000 </r>
       <r>    5.9286    1.0000 </r>
       <r>    5.9618    1.0000 </r>
       <r>    7.3050    1.0000 </r>
       <r>    7.7022    1.0000 </r>
       <r>    8.1599    1.0000 </r>
       <r>   15.1624    0.0000 </r>
       <r>   15.7026    0.0000 </r>
       <r>   19.4778    0.0000 </r>
       <r>   19.6639    0.0000 </r>
       <r>   19.6639    0.0000 </r>
       <r>   20.5269    0.0000 </r>
       <r>   20.5269    0.0000 </r>
       <r>   20.7067    0.0000 </r>
      </set>
      <set comment="kpoint 10">
       <r>   -9.5778    1.0000 </r>
       <r>   -6.3773    1.0000 </r>
       <r>   -1.8428    1.0000 </r>
       <r>   -1.8428    1.0000 </r>
       <r>   -0.8985    1.0000 </r>
       <r>   -0.8985    1.0000 </r>
       <r>    2.7771    1.0000 </r>
       <r>    2.7771    1.0000 </r>
       <r>    3.4447    1.0000 </r>
       <r>    3.5966    1.0000 </r>
       <r>    3.5966    1.0000 </r>
       <r>    5.4719    1.0000 </r>
       <r>    5.4869    1.0000 </r>
       <r>    8.0575    1.0000 </r>
       <r>    8.4031    1.0000 </r>
       <r>    8.9870    1.0000 </r>
       <r>   15.0831    0.0000 </r>
       <r>   15.9244    0.0000 </r>
       <r>   18.4565    0.0000 </r>
       <r>   18.4565    0.0000 </r>
       <r>   18.5024    0.0000 </r>
       <r>   19.2943    0.0000 </r>
       <r>   19.2943    0.0000 </r>
       <r>   19.6301    0.0000 </r>
      </set>
      <set comment="kpoint 11">
       <r>   -9.9502    1.0000 </r>
       <r>   -5.4893    1.0000 </r>
       <r>   -2.0464    1.0000 </r>
       <r>   -2.0464    1.0000 </r>
       <r>   -1.0258    1.0000 </r>
       <r>   -1.0258    1.0000 </r>
       <r>    2.2686    1.0000 </r>
       <r>    3.2109    1.0000 </r>
       <r>    3.2109    1.0000 </r>
       <r>    3.9876    1.0000 </r>
       <r>    3.9876    1.0000 </r>
       <r>    5.0875    1.0000 </r>
       <r>    5.1290    1.0000 </r>
       <r>    8.8015    1.0000 </r>
       <r>    9.1249    1.0000 </r>
       <r>    9.7167    1.0000 </r>
       <r>   15.0697    0.0000 </r>
       <r>   16.1394    0.0000 </r>
       <r>   17.3651    0.0000 </r>
       <r>   17.3651    0.0000 </r>
       <r>   17.6562    0.0000 </r>
       <r>   18.1194    0.0000 </r>
       <r>   18.1194    0.0000 </r>
       <r>   18.6011    0.0000 </r>
      </set>
      <set comment="kpoint 12">
       <r>  -10.2303    1.0000 </r>
       <r>   -4.5282    1.0000 </r>
       <r>   -2.2228    1.0000 </r>
       <r>   -2.2228    1.0000 </r>
       <r>   -1.1469    1.0000 </r>
       <r>   -1.1469    1.0000 </r>
       <r>    1.0734    1.0000 </r>
       <r>    3.6842    1.0000 </r>
       <r>    3.6842    1.0000 </r>
       <r>    4.3460    1.0000 </r>
       <r>    4.3460    1.0000 </r>
       <r>    4.8009    1.0000 </r>
       <r>    4.8580    1.0000 </r>
       <r>    9.5151    1.0000 </r>
       <r>    9.8237    1.0000 </r>
       <r>   10.2968    1.0000 </r>
       <r>   15.1315    0.0000 </r>
       <r>   16.3275    0.0000 </r>
       <r>   16.4751    0.0000 </r>
       <r>   16.4751    0.0000 </r>
       <r>   16.9449    0.0000 </r>
       <r>   17.0976    0.0000 </r>
       <r>   17.0976    0.0000 </r>
       <r>   17.6684    0.0000 </r>
      </set>
      <set comment="kpoint 13">
       <r>  -10.4173    1.0000 </r>
       <r>   -3.5002    1.0000 </r>
       <r>   -2.3508    1.0000 </r>
       <r>   -2.3508    1.0000 </r>
       <r>   -1.2376    1.0000 </r>
       <r>   -1.2376    1.0000 </r>
       <r>   -0.1185    1.0000 </r>
       <r>    4.1210    1.0000 </r>
       <r>    4.1210    1.0000 </r>
       <r>    4.5909    1.0000 </r>
       <r>    4.5909    1.0000 </r>
       <r>    4.6094    1.0000 </r>
       <r>    4.6763    1.0000 </r>
       <r>   10.1418    1.0000 </r>
       <r>   10.4198    1.0000 </r>
       <r>   10.6744    1.0000 </r>
       <r>   15.2748    0.0000 </r>
       <r>   15.8574    0.0000 </r>
       <r>   15.8574    0.0000 </r>
       <r>   16.3149    0.0000 </r>
       <r>   16.3149    0.0000 </r>
       <r>   16.3681    0.0000 </r>
       <r>   16.4691    0.0000 </r>
       <r>   16.9145    0.0000 </r>
      </set>
      <set comment="kpoint 14">
       <r>  -10.5107    1.0000 </r>
       <r>   -2.4194    1.0000 </r>
       <r>   -2.4194    1.0000 </r>
       <r>   -2.4136    1.0000 </r>
       <r>   -1.2891    1.0000 </r>
       <r>   -1.2835    1.0000 </r>
       <r>   -1.2835    1.0000 </r>
       <r>    4.4431    1.0000 </r>
       <r>    4.4431    1.0000 </r>
       <r>    4.5124    1.0000 </r>
       <r>    4.5853    1.0000 </r>
       <r>    4.6549    1.0000 </r>
       <r>    4.6549    1.0000 </r>
       <r>   10.5920    1.0000 </r>
       <r>   10.7831    1.0000 </r>
       <r>   10.7938    1.0000 </r>
       <r>   15.4881    0.0000 </r>
       <r>   15.5384    0.0000 </r>
       <r>   15.5384    0.0000 </r>
       <r>   15.8887    0.0000 </r>
       <r>   15.8887    0.0000 </r>
       <r>   15.9393    0.0000 </r>
       <r>   16.4720    0.0000 </r>
       <r>   16.5346    0.0000 </r>
      </set>
      <set comment="kpoint 15">
       <r>  -10.3219    1.0000 </r>
       <r>   -3.4403    1.0000 </r>
       <r>   -3.4403    1.0000 </r>
       <r>   -2.3087    1.0000 </r>
       <r>   -1.1672    1.0000 </r>
       <r>   -0.0691    1.0000 </r>
       <r>   -0.0691    1.0000 </r>
       <r>    3.6569    1.0000 </r>
       <r>    4.2784    1.0000 </r>
       <r>    4.2784    1.0000 </r>
       <r>    4.6201    1.0000 </r>
       <r>    4.6201    1.0000 </r>
       <r>    4.7432    1.0000 </r>
       <r>    9.6242    1.0000 </r>
       <r>   10.1367    1.0000 </r>
       <r>   10.6685    1.0000 </r>
       <r>   15.6069    0.0000 </r>
       <r>   15.6069    0.0000 </r>
       <r>   15.7038    0.0000 </r>
       <r>   16.6595    0.0000 </r>
       <r>   16.7935    0.0000 </r>
       <r>   16.7935    0.0000 </r>
       <r>   17.0652    0.0000 </r>
       <r>   17.1495    0.0000 </r>
      </set>
      <set comment="kpoint 16">
       <r>  -10.1341    1.0000 </r>
       <r>   -4.4610    1.0000 </r>
       <r>   -3.3006    1.0000 </r>
       <r>   -2.2027    1.0000 </r>
       <r>   -1.0736    1.0000 </r>
       <r>   -0.0144    1.0000 </r>
       <r>    1.0907    1.0000 </r>
       <r>    3.0932    1.0000 </r>
       <r>    3.8399    1.0000 </r>
       <r>    4.3997    1.0000 </r>
       <r>    4.4781    1.0000 </r>
       <r>    4.7582    1.0000 </r>
       <r>    4.8154    1.0000 </r>
       <r>    8.9444    1.0000 </r>
       <r>    9.5717    1.0000 </r>
       <r>   10.4527    1.0000 </r>
       <r>   15.4940    0.0000 </r>
       <r>   16.0153    0.0000 </r>
       <r>   16.2580    0.0000 </r>
       <r>   16.6333    0.0000 </r>
       <r>   17.3398    0.0000 </r>
       <r>   17.5412    0.0000 </r>
       <r>   17.6997    0.0000 </r>
       <r>   17.8851    0.0000 </r>
      </set>
      <set comment="kpoint 17">
       <r>   -9.8533    1.0000 </r>
       <r>   -5.4167    1.0000 </r>
       <r>   -3.0965    1.0000 </r>
       <r>   -2.0651    1.0000 </r>
       <r>   -0.9539    1.0000 </r>
       <r>    0.0323    1.0000 </r>
       <r>    2.2305    1.0000 </r>
       <r>    2.5723    1.0000 </r>
       <r>    3.3599    1.0000 </r>
       <r>    4.0930    1.0000 </r>
       <r>    4.5972    1.0000 </r>
       <r>    4.7825    1.0000 </r>
       <r>    5.1152    1.0000 </r>
       <r>    8.2025    1.0000 </r>
       <r>    8.8941    1.0000 </r>
       <r>    9.9935    1.0000 </r>
       <r>   15.4505    0.0000 </r>
       <r>   16.4730    0.0000 </r>
       <r>   16.6694    0.0000 </r>
       <r>   17.1728    0.0000 </r>
       <r>   18.0286    0.0000 </r>
       <r>   18.5289    0.0000 </r>
       <r>   18.6000    0.0000 </r>
       <r>   18.6502    0.0000 </r>
      </set>
      <set comment="kpoint 18">
       <r>   -9.4803    1.0000 </r>
       <r>   -6.3006    1.0000 </r>
       <r>   -2.8393    1.0000 </r>
       <r>   -1.9372    1.0000 </r>
       <r>   -0.8224    1.0000 </r>
       <r>    0.0313    1.0000 </r>
       <r>    2.1761    1.0000 </r>
       <r>    2.9004    1.0000 </r>
       <r>    3.3111    1.0000 </r>
       <r>    3.7992    1.0000 </r>
       <r>    4.3260    1.0000 </r>
       <r>    5.1888    1.0000 </r>
       <r>    5.5378    1.0000 </r>
       <r>    7.4412    1.0000 </r>
       <r>    8.1867    1.0000 </r>
       <r>    9.3459    1.0000 </r>
       <r>   15.4763    0.0000 </r>
       <r>   16.2715    0.0000 </r>
       <r>   17.5957    0.0000 </r>
       <r>   18.2811    0.0000 </r>
       <r>   18.8539    0.0000 </r>
       <r>   19.5449    0.0000 </r>
       <r>   19.6169    0.0000 </r>
       <r>   19.6630    0.0000 </r>
      </set>
      <set comment="kpoint 19">
       <r>   -9.0163    1.0000 </r>
       <r>   -7.1071    1.0000 </r>
       <r>   -2.5488    1.0000 </r>
       <r>   -1.8900    1.0000 </r>
       <r>   -0.6746    1.0000 </r>
       <r>   -0.0569    1.0000 </r>
       <r>    1.9750    1.0000 </r>
       <r>    2.5000    1.0000 </r>
       <r>    3.6187    1.0000 </r>
       <r>    4.0219    1.0000 </r>
       <r>    4.2876    1.0000 </r>
       <r>    5.6794    1.0000 </r>
       <r>    6.1184    1.0000 </r>
       <r>    6.6803    1.0000 </r>
       <r>    7.4942    1.0000 </r>
       <r>    8.5693    1.0000 </r>
       <r>   15.5644    0.0000 </r>
       <r>   16.0583    0.0000 </r>
       <r>   18.7056    0.0000 </r>
       <r>   19.5037    0.0000 </r>
       <r>   19.8074    0.0000 </r>
       <r>   20.5157    0.0000 </r>
       <r>   20.6901    0.0000 </r>
       <r>   20.7917    0.0000 </r>
      </set>
      <set comment="kpoint 20">
       <r>   -8.4627    1.0000 </r>
       <r>   -7.8318    1.0000 </r>
       <r>   -2.2590    1.0000 </r>
       <r>   -1.9874    1.0000 </r>
       <r>   -0.4892    1.0000 </r>
       <r>   -0.2370    1.0000 </r>
       <r>    1.9923    1.0000 </r>
       <r>    2.1821    1.0000 </r>
       <r>    3.6153    1.0000 </r>
       <r>    3.7602    1.0000 </r>
       <r>    5.1433    1.0000 </r>
       <r>    5.9185    1.0000 </r>
       <r>    6.2315    1.0000 </r>
       <r>    6.8415    1.0000 </r>
       <r>    6.8662    1.0000 </r>
       <r>    7.7240    1.0000 </r>
       <r>   15.7052    0.0000 </r>
       <r>   15.8548    0.0000 </r>
       <r>   19.8835    0.0000 </r>
       <r>   20.6023    0.0000 </r>
       <r>   20.8662    0.0000 </r>
       <r>   21.3104    0.0000 </r>
       <r>   21.5183    0.0000 </r>
       <r>   21.7694    0.0000 </r>
      </set>
      <set comment="kpoint 21">
       <r>   -8.4716    1.0000 </r>
       <r>   -7.8215    1.0000 </r>
       <r>   -2.2153    1.0000 </r>
       <r>   -2.0239    1.0000 </r>
       <r>   -0.4650    1.0000 </r>
       <r>   -0.2824    1.0000 </r>
       <r>    1.9852    1.0000 </r>
       <r>    2.1876    1.0000 </r>
       <r>    3.6130    1.0000 </r>
       <r>    3.7812    1.0000 </r>
       <r>    5.1286    1.0000 </r>
       <r>    5.9178    1.0000 </r>
       <r>    6.2419    1.0000 </r>
       <r>    6.8379    1.0000 </r>
       <r>    6.8820    1.0000 </r>
       <r>    7.7130    1.0000 </r>
       <r>   15.6780    0.0000 </r>
       <r>   15.8867    0.0000 </r>
       <r>   20.0009    0.0000 </r>
       <r>   20.6451    0.0000 </r>
       <r>   20.8357    0.0000 </r>
       <r>   21.2282    0.0000 </r>
       <r>   21.5686    0.0000 </r>
       <r>   21.8101    0.0000 </r>
      </set>
      <set comment="kpoint 22">
       <r>   -9.0238    1.0000 </r>
       <r>   -7.0952    1.0000 </r>
       <r>   -2.5065    1.0000 </r>
       <r>   -1.9080    1.0000 </r>
       <r>   -0.6789    1.0000 </r>
       <r>   -0.1121    1.0000 </r>
       <r>    1.9653    1.0000 </r>
       <r>    2.4989    1.0000 </r>
       <r>    3.6374    1.0000 </r>
       <r>    4.0585    1.0000 </r>
       <r>    4.2605    1.0000 </r>
       <r>    5.7001    1.0000 </r>
       <r>    6.1322    1.0000 </r>
       <r>    6.6660    1.0000 </r>
       <r>    7.4946    1.0000 </r>
       <r>    8.5643    1.0000 </r>
       <r>   15.5422    0.0000 </r>
       <r>   16.0949    0.0000 </r>
       <r>   18.8329    0.0000 </r>
       <r>   19.6051    0.0000 </r>
       <r>   19.7789    0.0000 </r>
       <r>   20.5532    0.0000 </r>
       <r>   20.6540    0.0000 </r>
       <r>   20.7129    0.0000 </r>
      </set>
      <set comment="kpoint 23">
       <r>   -9.4865    1.0000 </r>
       <r>   -6.2872    1.0000 </r>
       <r>   -2.8026    1.0000 </r>
       <r>   -1.9354    1.0000 </r>
       <r>   -0.8485    1.0000 </r>
       <r>   -0.0231    1.0000 </r>
       <r>    2.1584    1.0000 </r>
       <r>    2.8866    1.0000 </r>
       <r>    3.2789    1.0000 </r>
       <r>    3.8379    1.0000 </r>
       <r>    4.3752    1.0000 </r>
       <r>    5.2189    1.0000 </r>
       <r>    5.5423    1.0000 </r>
       <r>    7.4166    1.0000 </r>
       <r>    8.1896    1.0000 </r>
       <r>    9.3458    1.0000 </r>
       <r>   15.4593    0.0000 </r>
       <r>   16.3129    0.0000 </r>
       <r>   17.7235    0.0000 </r>
       <r>   18.3744    0.0000 </r>
       <r>   18.8278    0.0000 </r>
       <r>   19.5347    0.0000 </r>
       <r>   19.5660    0.0000 </r>
       <r>   19.6448    0.0000 </r>
      </set>
      <set comment="kpoint 24">
       <r>   -9.8580    1.0000 </r>
       <r>   -5.4018    1.0000 </r>
       <r>   -3.0673    1.0000 </r>
       <r>   -2.0536    1.0000 </r>
       <r>   -0.9858    1.0000 </r>
       <r>   -0.0136    1.0000 </r>
       <r>    2.1992    1.0000 </r>
       <r>    2.5427    1.0000 </r>
       <r>    3.3310    1.0000 </r>
       <r>    4.1473    1.0000 </r>
       <r>    4.6557    1.0000 </r>
       <r>    4.8130    1.0000 </r>
       <r>    5.1135    1.0000 </r>
       <r>    8.1710    1.0000 </r>
       <r>    8.8986    1.0000 </r>
[...]
       <r>   -4.6725    1.0000 </r>
       <r>   -4.5821    1.0000 </r>
       <r>   -2.2158    1.0000 </r>
       <r>   -2.2140    1.0000 </r>
       <r>   -1.4841    1.0000 </r>
       <r>   -0.9573    1.0000 </r>
       <r>    7.1253    1.0000 </r>
       <r>    7.1898    1.0000 </r>
       <r>    7.6375    1.0000 </r>
       <r>    7.6879    1.0000 </r>
       <r>    7.7457    1.0000 </r>
       <r>    7.7861    1.0000 </r>
       <r>    8.0383    1.0000 </r>
       <r>    8.1737    1.0000 </r>
       <r>   18.9119    0.0000 </r>
       <r>   18.9630    0.0000 </r>
       <r>   19.0102    0.0000 </r>
       <r>   19.0952    0.0000 </r>
       <r>   19.5170    0.0000 </r>
       <r>   19.6941    0.0000 </r>
       <r>   19.7230    0.0000 </r>
       <r>   19.8359    0.0000 </r>
      </set>
      <set comment="kpoint 278">
       <r>   -5.5041    1.0000 </r>
       <r>   -5.0469    1.0000 </r>
       <r>   -5.0469    1.0000 </r>
       <r>   -4.6651    1.0000 </r>
       <r>   -2.2996    1.0000 </r>
       <r>   -2.0120    1.0000 </r>
       <r>   -2.0120    1.0000 </r>
       <r>   -1.5644    1.0000 </r>
       <r>    7.4381    1.0000 </r>
       <r>    7.6678    1.0000 </r>
       <r>    7.6678    1.0000 </r>
       <r>    7.8508    1.0000 </r>
       <r>    7.9191    1.0000 </r>
       <r>    7.9624    1.0000 </r>
       <r>    7.9624    1.0000 </r>
       <r>    8.1749    1.0000 </r>
       <r>   19.0695    0.0000 </r>
       <r>   19.1626    0.0000 </r>
       <r>   19.1626    0.0000 </r>
       <r>   19.2592    0.0000 </r>
       <r>   19.3575    0.0000 </r>
       <r>   19.5915    0.0000 </r>
       <r>   19.5915    0.0000 </r>
       <r>   19.6288    0.0000 </r>
      </set>
      <set comment="kpoint 279">
       <r>   -5.0528    1.0000 </r>
       <r>   -4.8393    1.0000 </r>
       <r>   -4.8393    1.0000 </r>
       <r>   -4.8393    1.0000 </r>
       <r>   -2.3821    1.0000 </r>
       <r>   -2.3821    1.0000 </r>
       <r>   -2.3821    1.0000 </r>
       <r>   -2.0845    1.0000 </r>
       <r>    7.9526    1.0000 </r>
       <r>    7.9526    1.0000 </r>
       <r>    7.9526    1.0000 </r>
       <r>    8.0177    1.0000 </r>
       <r>    8.0177    1.0000 </r>
       <r>    8.0177    1.0000 </r>
       <r>    8.0440    1.0000 </r>
       <r>    8.0440    1.0000 </r>
       <r>   19.2551    0.0000 </r>
       <r>   19.2551    0.0000 </r>
       <r>   19.2551    0.0000 </r>
       <r>   19.2617    0.0000 </r>
       <r>   19.2617    0.0000 </r>
       <r>   19.3795    0.0000 </r>
       <r>   19.3795    0.0000 </r>
       <r>   19.3796    0.0000 </r>
      </set>
      <set comment="kpoint 280">
       <r>   -5.1311    1.0000 </r>
       <r>   -4.8383    1.0000 </r>
       <r>   -4.8383    1.0000 </r>
       <r>   -4.7478    1.0000 </r>
       <r>   -2.3849    1.0000 </r>
       <r>   -2.3838    1.0000 </r>
       <r>   -2.3838    1.0000 </r>
       <r>   -2.0958    1.0000 </r>
       <r>    7.8964    1.0000 </r>
       <r>    7.9547    1.0000 </r>
       <r>    7.9579    1.0000 </r>
       <r>    7.9579    1.0000 </r>
       <r>    8.0142    1.0000 </r>
       <r>    8.0142    1.0000 </r>
       <r>    8.1009    1.0000 </r>
       <r>    8.1085    1.0000 </r>
       <r>   19.1970    0.0000 </r>
       <r>   19.2203    0.0000 </r>
       <r>   19.2203    0.0000 </r>
       <r>   19.2545    0.0000 </r>
       <r>   19.3345    0.0000 </r>
       <r>   19.3842    0.0000 </r>
       <r>   19.4472    0.0000 </r>
       <r>   19.4472    0.0000 </r>
      </set>
     </set>
    </set>
   </array>
  </eigenvalues>
  <separator name="orbital magnetization" >
   <v name="MAGDIPOLOUT">      0.00000000      0.00000000      0.00000000</v>
  </separator>
  <dos>
   <i name="efermi">     11.08045643 </i>
   <total>
    <array>
     <dimension dim="1">gridpoints</dimension>
     <dimension dim="2">spin</dimension>
     <field>energy</field>
     <field>total</field>
     <field>integrated</field>
     <set>
      <set comment="spin 1">
       <r>   -12.1702     0.0000     0.0000 </r>
       <r>   -12.0485     0.0000     0.0000 </r>
       <r>   -11.9268     0.0000     0.0000 </r>
       <r>   -11.8051     0.0000     0.0000 </r>
       <r>   -11.6834     0.0000     0.0000 </r>
       <r>   -11.5617     0.0000     0.0000 </r>
       <r>   -11.4400     0.0000     0.0000 </r>
       <r>   -11.3183     0.0000     0.0000 </r>
       <r>   -11.1966     0.0000     0.0000 </r>
       <r>   -11.0749     0.0000     0.0000 </r>
       <r>   -10.9533     0.0000     0.0000 </r>
       <r>   -10.8316     0.0000     0.0000 </r>
       <r>   -10.7099     0.0000     0.0000 </r>
       <r>   -10.5882     0.0007     0.0001 </r>
       <r>   -10.4665     0.0537     0.0066 </r>
       <r>   -10.3448     0.1733     0.0277 </r>
       <r>   -10.2231     0.2190     0.0544 </r>
       <r>   -10.1014     0.3276     0.0942 </r>
       <r>    -9.9797     0.2345     0.1228 </r>
       <r>    -9.8580     0.4418     0.1765 </r>
       <r>    -9.7363     0.3476     0.2188 </r>
       <r>    -9.6147     0.3996     0.2675 </r>
       <r>    -9.4930     0.5006     0.3284 </r>
       <r>    -9.3713     0.4930     0.3884 </r>
       <r>    -9.2496     0.5418     0.4543 </r>
       <r>    -9.1279     0.3870     0.5014 </r>
       <r>    -9.0062     0.6745     0.5835 </r>
       <r>    -8.8845     0.6525     0.6629 </r>
       <r>    -8.7628     0.5257     0.7269 </r>
       <r>    -8.6411     0.5000     0.7877 </r>
       <r>    -8.5194     0.7343     0.8771 </r>
       <r>    -8.3977     0.8162     0.9764 </r>
       <r>    -8.2761     0.5811     1.0471 </r>
       <r>    -8.1544     0.7571     1.1392 </r>
       <r>    -8.0327     0.6302     1.2159 </r>
       <r>    -7.9110     0.8613     1.3207 </r>
       <r>    -7.7893     0.5731     1.3905 </r>
       <r>    -7.6676     0.9373     1.5045 </r>
       <r>    -7.5459     1.0546     1.6329 </r>
       <r>    -7.4242     0.5465     1.6994 </r>
       <r>    -7.3025     0.8213     1.7993 </r>
       <r>    -7.1808     0.7217     1.8871 </r>
       <r>    -7.0591     1.2424     2.0383 </r>
       <r>    -6.9374     0.8669     2.1438 </r>
       <r>    -6.8158     0.9507     2.2595 </r>
       <r>    -6.6941     0.7472     2.3504 </r>
       <r>    -6.5724     1.0701     2.4807 </r>
       <r>    -6.4507     0.8832     2.5881 </r>
       <r>    -6.3290     1.0755     2.7190 </r>
       <r>    -6.2073     1.0120     2.8422 </r>
       <r>    -6.0856     1.0926     2.9751 </r>
       <r>    -5.9639     1.1045     3.1095 </r>
       <r>    -5.8422     1.1216     3.2460 </r>
       <r>    -5.7205     1.3114     3.4056 </r>
       <r>    -5.5988     0.6676     3.4869 </r>
       <r>    -5.4772     0.9923     3.6076 </r>
       <r>    -5.3555     1.6574     3.8093 </r>
       <r>    -5.2338     1.3098     3.9687 </r>
       <r>    -5.1121     1.1915     4.1137 </r>
       <r>    -4.9904     1.4597     4.2913 </r>
       <r>    -4.8687     1.1244     4.4282 </r>
       <r>    -4.7470     1.4334     4.6026 </r>
       <r>    -4.6253     1.5854     4.7955 </r>
       <r>    -4.5036     1.6401     4.9951 </r>
       <r>    -4.3819     1.3718     5.1620 </r>
       <r>    -4.2602     1.3571     5.3272 </r>
       <r>    -4.1386     1.3413     5.4904 </r>
       <r>    -4.0169     2.0335     5.7379 </r>
       <r>    -3.8952     0.8873     5.8458 </r>
       <r>    -3.7735     1.2319     5.9958 </r>
       <r>    -3.6518     1.0162     6.1194 </r>
       <r>    -3.5301     1.0368     6.2456 </r>
       <r>    -3.4084     1.6241     6.4432 </r>
       <r>    -3.2867     1.4138     6.6153 </r>
       <r>    -3.1650     0.6697     6.6968 </r>
       <r>    -3.0433     1.1489     6.8366 </r>
       <r>    -2.9216     1.1016     6.9707 </r>
       <r>    -2.7999     1.2158     7.1186 </r>
       <r>    -2.6783     0.9082     7.2291 </r>
       <r>    -2.5566     0.5406     7.2949 </r>
       <r>    -2.4349     0.7058     7.3808 </r>
       <r>    -2.3132     1.0049     7.5031 </r>
       <r>    -2.1915     1.2837     7.6593 </r>
       <r>    -2.0698     1.2355     7.8096 </r>
       <r>    -1.9481     1.5010     7.9923 </r>
       <r>    -1.8264     1.1961     8.1379 </r>
       <r>    -1.7047     0.6215     8.2135 </r>
       <r>    -1.5830     0.7505     8.3048 </r>
       <r>    -1.4613     1.2030     8.4512 </r>
       <r>    -1.3397     0.8414     8.5536 </r>
       <r>    -1.2180     0.9086     8.6642 </r>
       <r>    -1.0963     1.6775     8.8683 </r>
       <r>    -0.9746     1.8417     9.0924 </r>
       <r>    -0.8529     1.6366     9.2916 </r>
       <r>    -0.7312     2.4667     9.5917 </r>
       <r>    -0.6095     2.0442     9.8405 </r>
       <r>    -0.4878     2.3817    10.1303 </r>
       <r>    -0.3661     1.3357    10.2929 </r>
       <r>    -0.2444     2.0754    10.5454 </r>
       <r>    -0.1227     2.2161    10.8151 </r>
       <r>    -0.0010     2.7875    11.1543 </r>
       <r>     0.1206     1.4872    11.3353 </r>
       <r>     0.2423     1.5141    11.5196 </r>
       <r>     0.3640     0.8172    11.6190 </r>
       <r>     0.4857     1.0796    11.7504 </r>
       <r>     0.6074     1.5096    11.9341 </r>
       <r>     0.7291     0.9571    12.0506 </r>
       <r>     0.8508     1.2943    12.2081 </r>
       <r>     0.9725     1.3447    12.3717 </r>
       <r>     1.0942     1.6857    12.5768 </r>
       <r>     1.2159     0.7887    12.6728 </r>
       <r>     1.3376     0.8621    12.7777 </r>
       <r>     1.4592     1.3013    12.9361 </r>
       <r>     1.5809     1.1741    13.0790 </r>
       <r>     1.7026     0.8774    13.1857 </r>
       <r>     1.8243     1.6040    13.3809 </r>
       <r>     1.9460     1.4286    13.5548 </r>
       <r>     2.0677     2.4863    13.8573 </r>
       <r>     2.1894     1.4864    14.0382 </r>
       <r>     2.3111     2.4384    14.3350 </r>
       <r>     2.4328     2.0000    14.5783 </r>
       <r>     2.5545     2.6196    14.8971 </r>
       <r>     2.6762     1.8925    15.1274 </r>
       <r>     2.7978     1.6691    15.3305 </r>
       <r>     2.9195     1.4111    15.5023 </r>
       <r>     3.0412     1.7462    15.7148 </r>
       <r>     3.1629     3.1134    16.0936 </r>
       <r>     3.2846     3.1548    16.4776 </r>
       <r>     3.4063     1.1139    16.6131 </r>
       <r>     3.5280     1.7511    16.8262 </r>
       <r>     3.6497     2.2511    17.1001 </r>
       <r>     3.7714     2.3379    17.3846 </r>
       <r>     3.8931     2.7447    17.7187 </r>
       <r>     4.0148     2.3070    17.9994 </r>
       <r>     4.1365     2.4956    18.3031 </r>
       <r>     4.2581     1.6252    18.5009 </r>
       <r>     4.3798     2.9197    18.8562 </r>
       <r>     4.5015     3.5526    19.2885 </r>
       <r>     4.6232     3.1019    19.6660 </r>
       <r>     4.7449     2.9364    20.0233 </r>
       <r>     4.8666     2.9036    20.3766 </r>
       <r>     4.9883     2.7554    20.7119 </r>
       <r>     5.1100     2.7258    21.0437 </r>
       <r>     5.2317     4.0968    21.5422 </r>
       <r>     5.3534     4.2649    22.0612 </r>
       <r>     5.4751     2.2531    22.3354 </r>
       <r>     5.5967     1.6804    22.5399 </r>
       <r>     5.7184     3.0354    22.9093 </r>
       <r>     5.8401     3.3540    23.3174 </r>
       <r>     5.9618     4.0894    23.8151 </r>
       <r>     6.0835     2.4102    24.1084 </r>
       <r>     6.2052     2.2208    24.3786 </r>
       <r>     6.3269     3.1318    24.7597 </r>
       <r>     6.4486     2.8595    25.1077 </r>
       <r>     6.5703     2.5058    25.4126 </r>
       <r>     6.6920     3.3100    25.8154 </r>
       <r>     6.8137     2.6168    26.1339 </r>
       <r>     6.9353     2.1544    26.3960 </r>
       <r>     7.0570     2.7817    26.7346 </r>
       <r>     7.1787     3.6762    27.1819 </r>
       <r>     7.3004     2.2539    27.4562 </r>
       <r>     7.4221     2.0500    27.7057 </r>
       <r>     7.5438     2.8504    28.0525 </r>
       <r>     7.6655     1.8010    28.2717 </r>
       <r>     7.7872     3.6879    28.7205 </r>
       <r>     7.9089     3.0699    29.0941 </r>
       <r>     8.0306     1.6634    29.2965 </r>
       <r>     8.1523     1.4924    29.4781 </r>
       <r>     8.2740     2.6231    29.7973 </r>
       <r>     8.3956     1.9487    30.0345 </r>
       <r>     8.5173     2.0883    30.2886 </r>
       <r>     8.6390     1.1905    30.4335 </r>
       <r>     8.7607     0.7321    30.5226 </r>
       <r>     8.8824     1.2153    30.6704 </r>
       <r>     9.0041     1.8344    30.8937 </r>
       <r>     9.1258     1.1435    31.0328 </r>
       <r>     9.2475     0.9275    31.1457 </r>
       <r>     9.3692     0.7789    31.2405 </r>
       <r>     9.4909     0.5538    31.3079 </r>
       <r>     9.6126     1.1968    31.4535 </r>
       <r>     9.7342     0.8834    31.5610 </r>
       <r>     9.8559     0.4699    31.6182 </r>
       <r>     9.9776     0.5896    31.6900 </r>
       <r>    10.0993     0.4492    31.7446 </r>
       <r>    10.2210     0.6808    31.8275 </r>
       <r>    10.3427     0.3395    31.8688 </r>
       <r>    10.4644     0.4603    31.9248 </r>
       <r>    10.5861     0.2071    31.9500 </r>
       <r>    10.7078     0.2685    31.9827 </r>
       <r>    10.8295     0.1312    31.9986 </r>
       <r>    10.9512     0.0111    32.0000 </r>
       <r>    11.0729     0.0000    32.0000 </r>
       <r>    11.1945     0.0000    32.0000 </r>
       <r>    11.3162     0.0000    32.0000 </r>
       <r>    11.4379     0.0000    32.0000 </r>
       <r>    11.5596     0.0000    32.0000 </r>
       <r>    11.6813     0.0000    32.0000 </r>
       <r>    11.8030     0.0000    32.0000 </r>
       <r>    11.9247     0.0000    32.0000 </r>
       <r>    12.0464     0.0000    32.0000 </r>
       <r>    12.1681     0.0000    32.0000 </r>
       <r>    12.2898     0.0000    32.0000 </r>
       <r>    12.4115     0.0000    32.0000 </r>
       <r>    12.5331     0.0000    32.0000 </r>
       <r>    12.6548     0.0000    32.0000 </r>
       <r>    12.7765     0.0000    32.0000 </r>
       <r>    12.8982     0.0000    32.0000 </r>
       <r>    13.0199     0.0000    32.0000 </r>
       <r>    13.1416     0.0000    32.0000 </r>
       <r>    13.2633     0.0000    32.0000 </r>
       <r>    13.3850     0.0000    32.0000 </r>
       <r>    13.5067     0.0000    32.0000 </r>
       <r>    13.6284     0.0000    32.0000 </r>
       <r>    13.7501     0.0000    32.0000 </r>
       <r>    13.8717     0.0000    32.0000 </r>
       <r>    13.9934     0.0000    32.0000 </r>
       <r>    14.1151     0.0000    32.0000 </r>
       <r>    14.2368     0.0000    32.0000 </r>
       <r>    14.3585     0.0000    32.0000 </r>
       <r>    14.4802     0.0000    32.0000 </r>
       <r>    14.6019     0.0000    32.0000 </r>
       <r>    14.7236     0.0000    32.0000 </r>
       <r>    14.8453     0.0000    32.0000 </r>
       <r>    14.9670     0.0002    32.0000 </r>
       <r>    15.0887     0.1742    32.0212 </r>
       <r>    15.2104     0.3825    32.0678 </r>
       <r>    15.3320     0.2592    32.0993 </r>
       <r>    15.4537     0.3426    32.1410 </r>
       <r>    15.5754     1.0645    32.2705 </r>
       <r>    15.6971     0.8966    32.3796 </r>
       <r>    15.8188     0.7962    32.4765 </r>
       <r>    15.9405     0.7628    32.5694 </r>
       <r>    16.0622     0.7583    32.6616 </r>
       <r>    16.1839     1.7588    32.8757 </r>
       <r>    16.3056     1.7573    33.0895 </r>
       <r>    16.4273     1.7240    33.2993 </r>
       <r>    16.5490     1.5516    33.4881 </r>
       <r>    16.6706     1.4226    33.6613 </r>
       <r>    16.7923     1.7598    33.8754 </r>
       <r>    16.9140     1.4272    34.0491 </r>
       <r>    17.0357     1.9890    34.2911 </r>
       <r>    17.1574     2.6410    34.6125 </r>
       <r>    17.2791     2.5420    34.9219 </r>
       <r>    17.4008     2.1322    35.1813 </r>
       <r>    17.5225     1.5497    35.3699 </r>
       <r>    17.6442     1.9380    35.6058 </r>
       <r>    17.7659     3.1398    35.9878 </r>
       <r>    17.8876     2.4142    36.2816 </r>
       <r>    18.0092     2.3937    36.5729 </r>
       <r>    18.1309     1.7624    36.7874 </r>
       <r>    18.2526     2.7761    37.1252 </r>
       <r>    18.3743     3.3150    37.5286 </r>
       <r>    18.4960     3.4589    37.9495 </r>
       <r>    18.6177     3.7083    38.4008 </r>
       <r>    18.7394     3.5401    38.8316 </r>
       <r>    18.8611     3.2018    39.2212 </r>
       <r>    18.9828     3.0445    39.5917 </r>
       <r>    19.1045     3.8661    40.0622 </r>
       <r>    19.2262     3.7159    40.5144 </r>
       <r>    19.3479     4.0493    41.0071 </r>
       <r>    19.4695     4.4205    41.5451 </r>
       <r>    19.5912     5.8658    42.2589 </r>
       <r>    19.7129     3.8676    42.7295 </r>
       <r>    19.8346     2.7476    43.0639 </r>
       <r>    19.9563     3.5077    43.4908 </r>
       <r>    20.0780     2.7435    43.8246 </r>
       <r>    20.1997     2.3606    44.1119 </r>
       <r>    20.3214     2.0938    44.3667 </r>
       <r>    20.4431     2.6042    44.6836 </r>
       <r>    20.5648     4.3159    45.2088 </r>
       <r>    20.6865     2.7646    45.5452 </r>
       <r>    20.8081     3.0418    45.9154 </r>
       <r>    20.9298     2.4351    46.2117 </r>
       <r>    21.0515     2.4583    46.5109 </r>
       <r>    21.1732     2.3874    46.8014 </r>
       <r>    21.2949     1.3739    46.9686 </r>
       <r>    21.4166     1.0900    47.1012 </r>
       <r>    21.5383     2.0724    47.3534 </r>
       <r>    21.6600     1.5243    47.5389 </r>
       <r>    21.7817     1.2235    47.6878 </r>
       <r>    21.9034     1.2205    47.8363 </r>
       <r>    22.0251     0.4321    47.8889 </r>
       <r>    22.1468     0.4902    47.9486 </r>
       <r>    22.2684     0.1112    47.9621 </r>
       <r>    22.3901     0.0209    47.9646 </r>
       <r>    22.5118     0.0033    47.9650 </r>
       <r>    22.6335     0.1389    47.9819 </r>
       <r>    22.7552     0.1474    47.9999 </r>
       <r>    22.8769     0.0010    48.0000 </r>
       <r>    22.9986     0.0000    48.0000 </r>
       <r>    23.1203     0.0000    48.0000 </r>
       <r>    23.2420     0.0000    48.0000 </r>
       <r>    23.3637     0.0000    48.0000 </r>
       <r>    23.4854     0.0000    48.0000 </r>
       <r>    23.6070     0.0000    48.0000 </r>
       <r>    23.7287     0.0000    48.0000 </r>
       <r>    23.8504     0.0000    48.0000 </r>
       <r>    23.9721     0.0000    48.0000 </r>
       <r>    24.0938     0.0000    48.0000 </r>
       <r>    24.2155     0.0000    48.0000 </r>
       <r>    24.3372     0.0000    48.0000 </r>
      </set>
     </set>
    </array>
   </total>
  </dos>
 </calculation>
 <structure name="finalpos" >
  <crystal>
   <varray name="basis" >
    <v>       3.57360507      -0.00595601      -0.00595601 </v>
    <v>      -0.00595601       3.57360507      -0.00595601 </v>
    <v>      -0.00595601      -0.00595601       3.57360507 </v>
   </varray>
   <i name="volume">     45.63689031 </i>
   <varray name="rec_basis" >
    <v>       0.27983102       0.00046716       0.00046716 </v>
    <v>       0.00046716       0.27983102       0.00046716 </v>
    <v>       0.00046716       0.00046716       0.27983102 </v>
   </varray>
  </crystal>
  <varray name="positions" >
   <v>       0.25003569       0.25003569       0.25003569 </v>
   <v>      -0.00003569      -0.00003569      -0.00003569 </v>
   <v>       0.25003569       0.75003569       0.75003569 </v>
   <v>      -0.00003569       0.49996431       0.49996431 </v>
   <v>       0.75003569       0.25003569       0.75003569 </v>
   <v>       0.49996431      -0.00003569       0.49996431 </v>
   <v>       0.75003569       0.75003569       0.25003569 </v>
   <v>       0.49996431       0.49996431      -0.00003569 </v>
  </varray>
 </structure>
</modeling>
