unknown system                          
           1
     3.573605   -0.005956   -0.005956
    -0.005956    3.573605   -0.005956
    -0.005956   -0.005956    3.573605
   C 
   8
Direct configuration=     1
   0.25000000  0.25000000  0.25000000
   0.00000000  0.00000000  0.00000000
   0.25000000  0.75000000  0.75000000
   0.00000000  0.50000000  0.50000000
   0.75000000  0.25000000  0.75000000
   0.50000000  0.00000000  0.50000000
   0.75000000  0.75000000  0.25000000
   0.50000000  0.50000000  0.00000000
Direct configuration=     2
   0.25012800  0.25012800  0.25012800
  -0.00012800 -0.00012800 -0.00012800
   0.25012800  0.75012800  0.75012800
  -0.00012800  0.49987200  0.49987200
   0.75012800  0.25012800  0.75012800
   0.49987200 -0.00012800  0.49987200
   0.75012800  0.75012800  0.25012800
   0.49987200  0.49987200 -0.00012800
Direct configuration=     3
   0.25003569  0.25003569  0.25003569
  -0.00003569 -0.00003569 -0.00003569
   0.25003569  0.75003569  0.75003569
  -0.00003569  0.49996431  0.49996431
   0.75003569  0.25003569  0.75003569
   0.49996431 -0.00003569  0.49996431
   0.75003569  0.75003569  0.25003569
   0.49996431  0.49996431 -0.00003569
