   4   4   0   0
  0.1753887E+02  0.4182563E-09  0.4182562E-09  0.4182563E-09  0.2000000E-15
  1.000000000000000E-004
  CAR 
 unknown system                          
     19.96436803     -1.57053022  301      8.86035244      1.00000000
     -1.571  0.0000E+00  0.0000E+00
     -1.499  0.0000E+00  0.0000E+00
     -1.427  0.0000E+00  0.0000E+00
     -1.355  0.0000E+00  0.0000E+00
     -1.283  0.0000E+00  0.0000E+00
     -1.212  0.0000E+00  0.0000E+00
     -1.140  0.3208E-19  0.2303E-20
     -1.068  0.8345E-16  0.5993E-17
     -0.996  0.7495E-13  0.5386E-14
     -0.924  0.2525E-10  0.1818E-11
     -0.853  0.3297E-08  0.2385E-09
     -0.781  0.1756E-06  0.1284E-07
     -0.709  0.4071E-05  0.3050E-06
     -0.637  0.4363E-04  0.3437E-05
     -0.566  0.2263E-03  0.1968E-04
     -0.494  0.6085E-03  0.6336E-04
     -0.422  0.1017E-02  0.1364E-03
     -0.350  0.1423E-02  0.2386E-03
     -0.278  0.1777E-02  0.3661E-03
     -0.207  0.1850E-02  0.4989E-03
     -0.135  0.2043E-02  0.6455E-03
     -0.063  0.2616E-02  0.8334E-03
      0.009  0.2867E-02  0.1039E-02
      0.080  0.2531E-02  0.1221E-02
      0.152  0.2705E-02  0.1415E-02
      0.224  0.3444E-02  0.1662E-02
      0.296  0.3730E-02  0.1930E-02
      0.368  0.3752E-02  0.2199E-02
      0.439  0.3833E-02  0.2474E-02
      0.511  0.3837E-02  0.2750E-02
      0.583  0.3840E-02  0.3026E-02
      0.655  0.4495E-02  0.3348E-02
      0.727  0.5551E-02  0.3747E-02
      0.798  0.5740E-02  0.4159E-02
      0.870  0.4985E-02  0.4517E-02
      0.942  0.4716E-02  0.4855E-02
      1.014  0.5589E-02  0.5256E-02
      1.085  0.6717E-02  0.5738E-02
      1.157  0.7078E-02  0.6247E-02
      1.229  0.7475E-02  0.6783E-02
      1.301  0.8204E-02  0.7372E-02
      1.373  0.8228E-02  0.7963E-02
      1.444  0.8146E-02  0.8547E-02
      1.516  0.9616E-02  0.9238E-02
      1.588  0.1174E-01  0.1008E-01
      1.660  0.1387E-01  0.1108E-01
      1.731  0.1767E-01  0.1234E-01
      1.803  0.1998E-01  0.1378E-01
      1.875  0.1950E-01  0.1518E-01
      1.947  0.2035E-01  0.1664E-01
      2.019  0.2225E-01  0.1824E-01
      2.090  0.2411E-01  0.1997E-01
      2.162  0.2959E-01  0.2209E-01
      2.234  0.4084E-01  0.2502E-01
      2.306  0.5297E-01  0.2883E-01
      2.378  0.6138E-01  0.3323E-01
      2.449  0.6819E-01  0.3813E-01
      2.521  0.7319E-01  0.4338E-01
      2.593  0.7542E-01  0.4879E-01
      2.665  0.7574E-01  0.5423E-01
      2.736  0.7217E-01  0.5941E-01
      2.808  0.6571E-01  0.6413E-01
      2.880  0.6087E-01  0.6850E-01
      2.952  0.5901E-01  0.7273E-01
      3.024  0.5906E-01  0.7697E-01
      3.095  0.6393E-01  0.8156E-01
      3.167  0.8647E-01  0.8777E-01
      3.239  0.1194E+00  0.9634E-01
      3.311  0.1342E+00  0.1060E+00
      3.382  0.1292E+00  0.1152E+00
      3.454  0.1194E+00  0.1238E+00
      3.526  0.1102E+00  0.1317E+00
      3.598  0.9810E-01  0.1388E+00
      3.670  0.8382E-01  0.1448E+00
      3.741  0.7144E-01  0.1499E+00
      3.813  0.6486E-01  0.1546E+00
      3.885  0.6021E-01  0.1589E+00
      3.957  0.5579E-01  0.1629E+00
      4.029  0.5727E-01  0.1670E+00
      4.100  0.6212E-01  0.1715E+00
      4.172  0.6306E-01  0.1760E+00
      4.244  0.5992E-01  0.1803E+00
      4.316  0.5745E-01  0.1844E+00
      4.387  0.6185E-01  0.1889E+00
      4.459  0.6906E-01  0.1938E+00
      4.531  0.6871E-01  0.1987E+00
      4.603  0.6303E-01  0.2033E+00
      4.675  0.5854E-01  0.2075E+00
      4.746  0.5569E-01  0.2115E+00
      4.818  0.5357E-01  0.2153E+00
      4.890  0.5332E-01  0.2191E+00
      4.962  0.5343E-01  0.2230E+00
      5.034  0.5402E-01  0.2269E+00
      5.105  0.5617E-01  0.2309E+00
      5.177  0.5884E-01  0.2351E+00
      5.249  0.6328E-01  0.2397E+00
      5.321  0.6717E-01  0.2445E+00
      5.392  0.6923E-01  0.2494E+00
      5.464  0.7204E-01  0.2546E+00
      5.536  0.7581E-01  0.2601E+00
      5.608  0.7825E-01  0.2657E+00
      5.680  0.7936E-01  0.2714E+00
      5.751  0.8239E-01  0.2773E+00
      5.823  0.8930E-01  0.2837E+00
      5.895  0.9921E-01  0.2908E+00
      5.967  0.1112E+00  0.2988E+00
      6.038  0.1204E+00  0.3074E+00
      6.110  0.1214E+00  0.3162E+00
      6.182  0.1194E+00  0.3247E+00
      6.254  0.1225E+00  0.3335E+00
      6.326  0.1293E+00  0.3428E+00
      6.397  0.1341E+00  0.3524E+00
      6.469  0.1330E+00  0.3620E+00
      6.541  0.1282E+00  0.3712E+00
      6.613  0.1195E+00  0.3798E+00
      6.685  0.9955E-01  0.3869E+00
      6.756  0.7238E-01  0.3921E+00
      6.828  0.5397E-01  0.3960E+00
      6.900  0.4563E-01  0.3993E+00
      6.972  0.4071E-01  0.4022E+00
      7.043  0.3763E-01  0.4049E+00
      7.115  0.3706E-01  0.4075E+00
      7.187  0.3753E-01  0.4102E+00
      7.259  0.3479E-01  0.4127E+00
      7.331  0.2951E-01  0.4148E+00
      7.402  0.2580E-01  0.4167E+00
      7.474  0.2433E-01  0.4184E+00
      7.546  0.2367E-01  0.4201E+00
      7.618  0.2407E-01  0.4219E+00
      7.689  0.2620E-01  0.4237E+00
      7.761  0.2923E-01  0.4258E+00
      7.833  0.2883E-01  0.4279E+00
      7.905  0.2295E-01  0.4296E+00
      7.977  0.1456E-01  0.4306E+00
      8.048  0.9428E-02  0.4313E+00
      8.120  0.8872E-02  0.4319E+00
      8.192  0.9596E-02  0.4326E+00
      8.264  0.9265E-02  0.4333E+00
      8.336  0.8221E-02  0.4339E+00
      8.407  0.9601E-02  0.4346E+00
      8.479  0.1302E-01  0.4355E+00
      8.551  0.1505E-01  0.4366E+00
      8.623  0.1363E-01  0.4375E+00
      8.694  0.1120E-01  0.4384E+00
      8.766  0.1027E-01  0.4391E+00
      8.838  0.9904E-02  0.4398E+00
      8.910  0.8046E-02  0.4404E+00
      8.982  0.6128E-02  0.4408E+00
      9.053  0.7097E-02  0.4413E+00
      9.125  0.1032E-01  0.4421E+00
      9.197  0.1237E-01  0.4430E+00
      9.269  0.1301E-01  0.4439E+00
      9.340  0.1347E-01  0.4449E+00
      9.412  0.1281E-01  0.4458E+00
      9.484  0.1093E-01  0.4466E+00
      9.556  0.9203E-02  0.4472E+00
      9.628  0.8572E-02  0.4478E+00
      9.699  0.8641E-02  0.4485E+00
      9.771  0.8630E-02  0.4491E+00
      9.843  0.8844E-02  0.4497E+00
      9.915  0.9032E-02  0.4504E+00
      9.987  0.1003E-01  0.4511E+00
     10.058  0.1238E-01  0.4520E+00
     10.130  0.1282E-01  0.4529E+00
     10.202  0.1084E-01  0.4537E+00
     10.274  0.9483E-02  0.4543E+00
     10.345  0.1061E-01  0.4551E+00
     10.417  0.1174E-01  0.4560E+00
     10.489  0.1037E-01  0.4567E+00
     10.561  0.8163E-02  0.4573E+00
     10.633  0.8155E-02  0.4579E+00
     10.704  0.1032E-01  0.4586E+00
     10.776  0.1140E-01  0.4594E+00
     10.848  0.1022E-01  0.4602E+00
     10.920  0.8977E-02  0.4608E+00
     10.991  0.9990E-02  0.4615E+00
     11.063  0.1263E-01  0.4624E+00
     11.135  0.1267E-01  0.4633E+00
     11.207  0.9588E-02  0.4640E+00
     11.279  0.7928E-02  0.4646E+00
     11.350  0.9033E-02  0.4652E+00
     11.422  0.1163E-01  0.4661E+00
     11.494  0.1499E-01  0.4672E+00
     11.566  0.1699E-01  0.4684E+00
     11.638  0.1690E-01  0.4696E+00
     11.709  0.1603E-01  0.4707E+00
     11.781  0.1565E-01  0.4719E+00
     11.853  0.1565E-01  0.4730E+00
     11.925  0.1479E-01  0.4740E+00
     11.996  0.1308E-01  0.4750E+00
     12.068  0.1211E-01  0.4759E+00
     12.140  0.1283E-01  0.4768E+00
     12.212  0.1342E-01  0.4777E+00
     12.284  0.1303E-01  0.4787E+00
     12.355  0.1253E-01  0.4796E+00
     12.427  0.1201E-01  0.4804E+00
     12.499  0.1135E-01  0.4813E+00
     12.571  0.1145E-01  0.4821E+00
     12.643  0.1182E-01  0.4829E+00
     12.714  0.1114E-01  0.4837E+00
     12.786  0.1047E-01  0.4845E+00
     12.858  0.1144E-01  0.4853E+00
     12.930  0.1320E-01  0.4862E+00
     13.001  0.1297E-01  0.4872E+00
     13.073  0.1142E-01  0.4880E+00
     13.145  0.1067E-01  0.4888E+00
     13.217  0.1006E-01  0.4895E+00
     13.289  0.9886E-02  0.4902E+00
     13.360  0.1123E-01  0.4910E+00
     13.432  0.1210E-01  0.4919E+00
     13.504  0.1160E-01  0.4927E+00
     13.576  0.1086E-01  0.4935E+00
     13.647  0.1123E-01  0.4943E+00
     13.719  0.1223E-01  0.4952E+00
     13.791  0.1210E-01  0.4960E+00
     13.863  0.1113E-01  0.4968E+00
     13.935  0.9985E-02  0.4975E+00
     14.006  0.9630E-02  0.4982E+00
     14.078  0.1016E-01  0.4990E+00
     14.150  0.9853E-02  0.4997E+00
     14.222  0.9032E-02  0.5003E+00
     14.294  0.8810E-02  0.5010E+00
     14.365  0.9359E-02  0.5016E+00
     14.437  0.1048E-01  0.5024E+00
     14.509  0.1163E-01  0.5032E+00
     14.581  0.1290E-01  0.5041E+00
     14.652  0.1324E-01  0.5051E+00
     14.724  0.1172E-01  0.5059E+00
     14.796  0.1065E-01  0.5067E+00
     14.868  0.1060E-01  0.5075E+00
     14.940  0.1037E-01  0.5082E+00
     15.011  0.1071E-01  0.5090E+00
     15.083  0.1078E-01  0.5097E+00
     15.155  0.1125E-01  0.5106E+00
     15.227  0.1367E-01  0.5115E+00
     15.298  0.1453E-01  0.5126E+00
     15.370  0.1311E-01  0.5135E+00
     15.442  0.1242E-01  0.5144E+00
     15.514  0.1364E-01  0.5154E+00
     15.586  0.1523E-01  0.5165E+00
     15.657  0.1401E-01  0.5175E+00
     15.729  0.1054E-01  0.5182E+00
     15.801  0.8289E-02  0.5188E+00
     15.873  0.8964E-02  0.5195E+00
     15.945  0.1125E-01  0.5203E+00
     16.016  0.1252E-01  0.5212E+00
     16.088  0.1207E-01  0.5221E+00
     16.160  0.1040E-01  0.5228E+00
     16.232  0.9905E-02  0.5235E+00
     16.303  0.1058E-01  0.5243E+00
     16.375  0.9681E-02  0.5250E+00
     16.447  0.8747E-02  0.5256E+00
     16.519  0.1010E-01  0.5263E+00
     16.591  0.1200E-01  0.5272E+00
     16.662  0.1301E-01  0.5281E+00
     16.734  0.1282E-01  0.5290E+00
     16.806  0.1106E-01  0.5298E+00
     16.878  0.1025E-01  0.5306E+00
     16.949  0.1104E-01  0.5314E+00
     17.021  0.1132E-01  0.5322E+00
     17.093  0.9938E-02  0.5329E+00
     17.165  0.8243E-02  0.5335E+00
     17.237  0.8070E-02  0.5341E+00
     17.308  0.8932E-02  0.5347E+00
     17.380  0.8416E-02  0.5353E+00
     17.452  0.6821E-02  0.5358E+00
     17.524  0.6339E-02  0.5362E+00
     17.596  0.7631E-02  0.5368E+00
     17.667  0.8167E-02  0.5374E+00
     17.739  0.6230E-02  0.5378E+00
     17.811  0.4328E-02  0.5381E+00
     17.883  0.3795E-02  0.5384E+00
     17.954  0.3255E-02  0.5386E+00
     18.026  0.2737E-02  0.5388E+00
     18.098  0.2734E-02  0.5390E+00
     18.170  0.3205E-02  0.5393E+00
     18.242  0.3437E-02  0.5395E+00
     18.313  0.2342E-02  0.5397E+00
     18.385  0.1198E-02  0.5398E+00
     18.457  0.9894E-03  0.5398E+00
     18.529  0.9924E-03  0.5399E+00
     18.600  0.6248E-03  0.5399E+00
     18.672  0.1885E-03  0.5400E+00
     18.744  0.2546E-04  0.5400E+00
     18.816  0.1193E-04  0.5400E+00
     18.888  0.6857E-04  0.5400E+00
     18.959  0.1723E-03  0.5400E+00
     19.031  0.1688E-03  0.5400E+00
     19.103  0.6444E-04  0.5400E+00
     19.175  0.9515E-05  0.5400E+00
     19.247  0.5370E-06  0.5400E+00
     19.318  0.1144E-07  0.5400E+00
     19.390  0.9082E-10  0.5400E+00
     19.462  0.2665E-12  0.5400E+00
     19.534  0.2869E-15  0.5400E+00
     19.605  0.1283E-18  0.5400E+00
     19.677  0.0000E+00  0.5400E+00
     19.749  0.0000E+00  0.5400E+00
     19.821  0.0000E+00  0.5400E+00
     19.893  0.0000E+00  0.5400E+00
     19.964  0.0000E+00  0.5400E+00
