 running on   24 total cores
 distrk:  each k-point on   24 cores,    1 groups
 distr:  one band on    8 cores,    3 groups
 using from now: INCAR     
 vasp.5.4.4.18Apr17-6-g9f103f2a35 (build Jan 14 2019 14:48:31) complex          
  
 POSCAR found type information on POSCAR  Au
 POSCAR found :  1 types and       4 ions
 scaLAPACK will be used
 LDA part: xc-table for Pade appr. of Perdew
 POSCAR found type information on POSCAR  Au
 POSCAR found :  1 types and       4 ions
 POSCAR, INCAR and KPOINTS ok, starting setup
 FFT: planning ...
 WAVECAR not read
 entering main loop
       N       E                     dE             d eps       ncg     rms          rms(c)
DAV:   1     0.277368189483E+03    0.27737E+03   -0.22709E+04 92025   0.153E+03
DAV:   2    -0.849826676819E+01   -0.28587E+03   -0.27780E+03105552   0.331E+02
DAV:   3    -0.135070134122E+02   -0.50087E+01   -0.49812E+01101817   0.462E+01
DAV:   4    -0.135356115123E+02   -0.28598E-01   -0.28592E-01104256   0.363E+00
DAV:   5    -0.135359067002E+02   -0.29519E-03   -0.29518E-03106479   0.382E-01    0.182E+01
RMM:   6    -0.124922529633E+02    0.10437E+01   -0.25642E+00 91152   0.105E+01    0.116E+01
RMM:   7    -0.124162100895E+02    0.76043E-01   -0.35160E-01 91152   0.374E+00    0.498E+00
RMM:   8    -0.124054653991E+02    0.10745E-01   -0.17433E-02 91158   0.889E-01    0.532E-01
RMM:   9    -0.124053739366E+02    0.91462E-04   -0.19041E-04 91185   0.719E-02    0.804E-02
RMM:  10    -0.124053833154E+02   -0.93788E-05   -0.20453E-05 91201   0.339E-02    0.553E-02
RMM:  11    -0.124053866687E+02   -0.33533E-05   -0.78918E-07 49927   0.533E-03    0.284E-03
RMM:  12    -0.124053865111E+02    0.15762E-06   -0.15834E-07 48205   0.261E-03
   1 F= -.12405387E+02 E0= -.12403251E+02  d E =-.124054E+02
 curvature:   0.00 expect dE= 0.000E+00 dE for cont linesearch  0.000E+00
 trial: gam= 0.00000 g(F)=  0.101E-13 g(S)=  0.000E+00 ort = 0.000E+00 (trialstep = 0.100E+01)
 search vector abs. value=  0.100E-09
 reached required accuracy - stopping structural energy minimisation
