   4   4   0   0
  0.1788360E+02  0.4157523E-09  0.4157523E-09  0.4157523E-09  0.2000000E-15
  1.000000000000000E-004
  CAR 
 unknown system                          
     19.12282346     -1.67155480  301      8.71241584      1.00000000
     -1.672  0.0000E+00  0.0000E+00
     -1.602  0.0000E+00  0.0000E+00
     -1.533  0.0000E+00  0.0000E+00
     -1.464  0.0000E+00  0.0000E+00
     -1.394  0.0000E+00  0.0000E+00
     -1.325  0.0000E+00  0.0000E+00
     -1.256  0.4746E-20  0.3290E-21
     -1.186  0.1457E-16  0.1010E-17
     -1.117  0.1333E-13  0.9251E-15
     -1.048  0.4865E-11  0.3381E-12
     -0.978  0.7259E-09  0.5066E-10
     -0.909  0.4599E-07  0.3238E-08
     -0.840  0.1302E-05  0.9347E-07
     -0.770  0.1745E-04  0.1303E-05
     -0.701  0.1169E-03  0.9408E-05
     -0.632  0.4108E-03  0.3788E-04
     -0.563  0.8263E-03  0.9516E-04
     -0.493  0.1205E-02  0.1787E-03
     -0.424  0.1638E-02  0.2922E-03
     -0.355  0.1864E-02  0.4214E-03
     -0.285  0.1886E-02  0.5521E-03
     -0.216  0.2278E-02  0.7100E-03
     -0.147  0.2720E-02  0.8985E-03
     -0.077  0.2797E-02  0.1092E-02
     -0.008  0.2745E-02  0.1283E-02
      0.061  0.2810E-02  0.1477E-02
      0.131  0.3262E-02  0.1704E-02
      0.200  0.3768E-02  0.1965E-02
      0.269  0.4018E-02  0.2243E-02
      0.339  0.3885E-02  0.2513E-02
      0.408  0.3584E-02  0.2761E-02
      0.477  0.3774E-02  0.3023E-02
      0.547  0.4576E-02  0.3340E-02
      0.616  0.5304E-02  0.3707E-02
      0.685  0.5255E-02  0.4072E-02
      0.754  0.5157E-02  0.4429E-02
      0.824  0.5146E-02  0.4786E-02
      0.893  0.5002E-02  0.5132E-02
      0.962  0.5506E-02  0.5514E-02
      1.032  0.6715E-02  0.5980E-02
      1.101  0.7307E-02  0.6486E-02
      1.170  0.7162E-02  0.6982E-02
      1.240  0.7311E-02  0.7489E-02
      1.309  0.7336E-02  0.7998E-02
      1.378  0.7832E-02  0.8541E-02
      1.448  0.9185E-02  0.9177E-02
      1.517  0.1022E-01  0.9886E-02
      1.586  0.1120E-01  0.1066E-01
      1.656  0.1369E-01  0.1161E-01
      1.725  0.1689E-01  0.1278E-01
      1.794  0.1998E-01  0.1417E-01
      1.863  0.2218E-01  0.1570E-01
      1.933  0.2328E-01  0.1732E-01
      2.002  0.2604E-01  0.1912E-01
      2.071  0.3222E-01  0.2136E-01
      2.141  0.3888E-01  0.2405E-01
      2.210  0.4544E-01  0.2720E-01
      2.279  0.5243E-01  0.3084E-01
      2.349  0.5850E-01  0.3489E-01
      2.418  0.6474E-01  0.3938E-01
      2.487  0.7072E-01  0.4428E-01
      2.557  0.7360E-01  0.4938E-01
      2.626  0.7499E-01  0.5458E-01
      2.695  0.7508E-01  0.5978E-01
      2.765  0.7396E-01  0.6491E-01
      2.834  0.7242E-01  0.6993E-01
      2.903  0.6860E-01  0.7468E-01
      2.973  0.6600E-01  0.7926E-01
      3.042  0.6552E-01  0.8380E-01
      3.111  0.6478E-01  0.8829E-01
      3.180  0.6209E-01  0.9259E-01
      3.250  0.5897E-01  0.9668E-01
      3.319  0.5958E-01  0.1008E+00
      3.388  0.6334E-01  0.1052E+00
      3.458  0.6899E-01  0.1100E+00
      3.527  0.7684E-01  0.1153E+00
      3.596  0.8464E-01  0.1212E+00
      3.666  0.9012E-01  0.1274E+00
      3.735  0.9471E-01  0.1340E+00
      3.804  0.9757E-01  0.1408E+00
      3.874  0.9589E-01  0.1474E+00
      3.943  0.9215E-01  0.1538E+00
      4.012  0.8983E-01  0.1600E+00
      4.082  0.9194E-01  0.1664E+00
      4.151  0.9748E-01  0.1731E+00
      4.220  0.9673E-01  0.1798E+00
      4.290  0.8955E-01  0.1861E+00
      4.359  0.8629E-01  0.1920E+00
      4.428  0.8776E-01  0.1981E+00
      4.497  0.8743E-01  0.2042E+00
      4.567  0.8359E-01  0.2100E+00
      4.636  0.8200E-01  0.2157E+00
      4.705  0.8630E-01  0.2216E+00
      4.775  0.9307E-01  0.2281E+00
      4.844  0.9849E-01  0.2349E+00
      4.913  0.9969E-01  0.2418E+00
      4.983  0.9290E-01  0.2483E+00
      5.052  0.8375E-01  0.2541E+00
      5.121  0.7982E-01  0.2596E+00
      5.191  0.7911E-01  0.2651E+00
      5.260  0.7912E-01  0.2706E+00
      5.329  0.8025E-01  0.2761E+00
      5.399  0.8513E-01  0.2820E+00
      5.468  0.9136E-01  0.2884E+00
      5.537  0.9304E-01  0.2948E+00
      5.606  0.9232E-01  0.3012E+00
      5.676  0.9076E-01  0.3075E+00
      5.745  0.8924E-01  0.3137E+00
      5.814  0.8659E-01  0.3197E+00
      5.884  0.8059E-01  0.3253E+00
      5.953  0.7473E-01  0.3305E+00
      6.022  0.7328E-01  0.3355E+00
      6.092  0.7475E-01  0.3407E+00
      6.161  0.7579E-01  0.3460E+00
      6.230  0.7750E-01  0.3513E+00
      6.300  0.7967E-01  0.3569E+00
      6.369  0.8490E-01  0.3628E+00
      6.438  0.9497E-01  0.3693E+00
      6.508  0.1014E+00  0.3764E+00
      6.577  0.1002E+00  0.3833E+00
      6.646  0.9858E-01  0.3901E+00
      6.716  0.9658E-01  0.3968E+00
      6.785  0.9150E-01  0.4032E+00
      6.854  0.8241E-01  0.4089E+00
      6.923  0.6919E-01  0.4137E+00
      6.993  0.5317E-01  0.4174E+00
      7.062  0.3459E-01  0.4198E+00
      7.131  0.2104E-01  0.4212E+00
      7.201  0.1780E-01  0.4225E+00
      7.270  0.1852E-01  0.4237E+00
      7.339  0.1457E-01  0.4248E+00
      7.409  0.8855E-02  0.4254E+00
      7.478  0.7388E-02  0.4259E+00
      7.547  0.9555E-02  0.4265E+00
      7.617  0.1210E-01  0.4274E+00
      7.686  0.1295E-01  0.4283E+00
      7.755  0.1301E-01  0.4292E+00
      7.825  0.1205E-01  0.4300E+00
      7.894  0.1064E-01  0.4308E+00
      7.963  0.1204E-01  0.4316E+00
      8.032  0.1298E-01  0.4325E+00
      8.102  0.1058E-01  0.4332E+00
      8.171  0.9595E-02  0.4339E+00
      8.240  0.1142E-01  0.4347E+00
      8.310  0.1267E-01  0.4356E+00
      8.379  0.1214E-01  0.4364E+00
      8.448  0.1146E-01  0.4372E+00
      8.518  0.1086E-01  0.4379E+00
      8.587  0.9800E-02  0.4386E+00
      8.656  0.1003E-01  0.4393E+00
      8.726  0.1239E-01  0.4402E+00
      8.795  0.1457E-01  0.4412E+00
      8.864  0.1397E-01  0.4422E+00
      8.934  0.1179E-01  0.4430E+00
      9.003  0.1009E-01  0.4437E+00
      9.072  0.9465E-02  0.4443E+00
      9.142  0.9667E-02  0.4450E+00
      9.211  0.1033E-01  0.4457E+00
      9.280  0.1109E-01  0.4465E+00
      9.349  0.1235E-01  0.4473E+00
      9.419  0.1325E-01  0.4483E+00
      9.488  0.1290E-01  0.4492E+00
      9.557  0.1179E-01  0.4500E+00
      9.627  0.1090E-01  0.4507E+00
      9.696  0.1114E-01  0.4515E+00
      9.765  0.1080E-01  0.4522E+00
      9.835  0.9822E-02  0.4529E+00
      9.904  0.1047E-01  0.4537E+00
      9.973  0.1147E-01  0.4544E+00
     10.043  0.1150E-01  0.4552E+00
     10.112  0.1212E-01  0.4561E+00
     10.181  0.1269E-01  0.4570E+00
     10.251  0.1171E-01  0.4578E+00
     10.320  0.1064E-01  0.4585E+00
     10.389  0.9767E-02  0.4592E+00
     10.458  0.9597E-02  0.4599E+00
     10.528  0.1114E-01  0.4606E+00
     10.597  0.1229E-01  0.4615E+00
     10.666  0.1198E-01  0.4623E+00
     10.736  0.1111E-01  0.4631E+00
     10.805  0.9999E-02  0.4638E+00
     10.874  0.9082E-02  0.4644E+00
     10.944  0.9244E-02  0.4650E+00
     11.013  0.1020E-01  0.4658E+00
     11.082  0.1156E-01  0.4666E+00
     11.152  0.1316E-01  0.4675E+00
     11.221  0.1507E-01  0.4685E+00
     11.290  0.1648E-01  0.4697E+00
     11.360  0.1603E-01  0.4708E+00
     11.429  0.1469E-01  0.4718E+00
     11.498  0.1465E-01  0.4728E+00
     11.568  0.1444E-01  0.4738E+00
     11.637  0.1360E-01  0.4747E+00
     11.706  0.1337E-01  0.4757E+00
     11.775  0.1355E-01  0.4766E+00
     11.845  0.1302E-01  0.4775E+00
     11.914  0.1157E-01  0.4783E+00
     11.983  0.1097E-01  0.4791E+00
     12.053  0.1120E-01  0.4798E+00
     12.122  0.1071E-01  0.4806E+00
     12.191  0.1034E-01  0.4813E+00
     12.261  0.1060E-01  0.4820E+00
     12.330  0.1141E-01  0.4828E+00
     12.399  0.1124E-01  0.4836E+00
     12.469  0.9543E-02  0.4843E+00
     12.538  0.9316E-02  0.4849E+00
     12.607  0.1100E-01  0.4857E+00
     12.677  0.1211E-01  0.4865E+00
     12.746  0.1166E-01  0.4873E+00
     12.815  0.1152E-01  0.4881E+00
     12.885  0.1304E-01  0.4890E+00
     12.954  0.1417E-01  0.4900E+00
     13.023  0.1316E-01  0.4909E+00
     13.092  0.1145E-01  0.4917E+00
     13.162  0.1108E-01  0.4925E+00
     13.231  0.1031E-01  0.4932E+00
     13.300  0.9334E-02  0.4938E+00
     13.370  0.1019E-01  0.4946E+00
     13.439  0.1151E-01  0.4954E+00
     13.508  0.1175E-01  0.4962E+00
     13.578  0.1159E-01  0.4970E+00
     13.647  0.1210E-01  0.4978E+00
     13.716  0.1326E-01  0.4987E+00
     13.786  0.1601E-01  0.4998E+00
     13.855  0.1811E-01  0.5011E+00
     13.924  0.1753E-01  0.5023E+00
     13.994  0.1556E-01  0.5034E+00
     14.063  0.1398E-01  0.5044E+00
     14.132  0.1366E-01  0.5053E+00
     14.201  0.1215E-01  0.5061E+00
     14.271  0.1043E-01  0.5069E+00
     14.340  0.1165E-01  0.5077E+00
     14.409  0.1353E-01  0.5086E+00
     14.479  0.1415E-01  0.5096E+00
     14.548  0.1579E-01  0.5107E+00
     14.617  0.1666E-01  0.5118E+00
     14.687  0.1476E-01  0.5129E+00
     14.756  0.1268E-01  0.5137E+00
     14.825  0.1123E-01  0.5145E+00
     14.895  0.9814E-02  0.5152E+00
     14.964  0.9533E-02  0.5159E+00
     15.033  0.1065E-01  0.5166E+00
     15.103  0.1088E-01  0.5174E+00
     15.172  0.9500E-02  0.5180E+00
     15.241  0.9037E-02  0.5186E+00
     15.311  0.1017E-01  0.5193E+00
     15.380  0.1045E-01  0.5201E+00
     15.449  0.1008E-01  0.5208E+00
     15.518  0.1094E-01  0.5215E+00
     15.588  0.1345E-01  0.5225E+00
     15.657  0.1519E-01  0.5235E+00
     15.726  0.1372E-01  0.5245E+00
     15.796  0.1098E-01  0.5252E+00
     15.865  0.8914E-02  0.5258E+00
     15.934  0.8034E-02  0.5264E+00
     16.004  0.1022E-01  0.5271E+00
     16.073  0.1340E-01  0.5280E+00
     16.142  0.1284E-01  0.5289E+00
     16.212  0.1093E-01  0.5297E+00
     16.281  0.1171E-01  0.5305E+00
     16.350  0.1337E-01  0.5314E+00
     16.420  0.1310E-01  0.5323E+00
     16.489  0.1164E-01  0.5331E+00
     16.558  0.9925E-02  0.5338E+00
     16.627  0.8076E-02  0.5344E+00
     16.697  0.6710E-02  0.5349E+00
     16.766  0.6863E-02  0.5353E+00
     16.835  0.7606E-02  0.5359E+00
     16.905  0.7407E-02  0.5364E+00
     16.974  0.6157E-02  0.5368E+00
     17.043  0.5686E-02  0.5372E+00
     17.113  0.6077E-02  0.5376E+00
     17.182  0.6142E-02  0.5380E+00
     17.251  0.5878E-02  0.5384E+00
     17.321  0.4457E-02  0.5388E+00
     17.390  0.3199E-02  0.5390E+00
     17.459  0.3002E-02  0.5392E+00
     17.529  0.2531E-02  0.5394E+00
     17.598  0.1728E-02  0.5395E+00
     17.667  0.1093E-02  0.5396E+00
     17.737  0.1029E-02  0.5396E+00
     17.806  0.1030E-02  0.5397E+00
     17.875  0.7535E-03  0.5397E+00
     17.944  0.5857E-03  0.5398E+00
     18.014  0.7473E-03  0.5398E+00
     18.083  0.1030E-02  0.5399E+00
     18.152  0.8460E-03  0.5400E+00
     18.222  0.3591E-03  0.5400E+00
     18.291  0.7483E-04  0.5400E+00
     18.360  0.7181E-05  0.5400E+00
     18.430  0.2987E-06  0.5400E+00
     18.499  0.5154E-08  0.5400E+00
     18.568  0.3589E-10  0.5400E+00
     18.638  0.9918E-13  0.5400E+00
     18.707  0.1077E-15  0.5400E+00
     18.776  0.0000E+00  0.5400E+00
     18.846  0.0000E+00  0.5400E+00
     18.915  0.0000E+00  0.5400E+00
     18.984  0.0000E+00  0.5400E+00
     19.054  0.0000E+00  0.5400E+00
     19.123  0.0000E+00  0.5400E+00
