       N       E                     dE             d eps       ncg     rms          rms(c)
DAV:   1     0.274701196299E+03    0.27470E+03   -0.22600E+04 91899   0.152E+03
DAV:   2    -0.885859219118E+01   -0.28356E+03   -0.27565E+03105075   0.328E+02
DAV:   3    -0.138745615263E+02   -0.50160E+01   -0.49846E+01102483   0.458E+01
DAV:   4    -0.139036913586E+02   -0.29130E-01   -0.29120E-01103770   0.361E+00
DAV:   5    -0.139039687050E+02   -0.27735E-03   -0.27734E-03107505   0.369E-01    0.163E+01
RMM:   6    -0.129053502742E+02    0.99862E+00   -0.25741E+00 91152   0.105E+01    0.106E+01
RMM:   7    -0.128428648234E+02    0.62485E-01   -0.32750E-01 91185   0.360E+00    0.485E+00
RMM:   8    -0.128340552427E+02    0.88096E-02   -0.17262E-02 91181   0.859E-01    0.579E-01
RMM:   9    -0.128338852312E+02    0.17001E-03   -0.39875E-04 91222   0.117E-01    0.431E-02
RMM:  10    -0.128338996176E+02   -0.14386E-04   -0.22020E-05 91214   0.338E-02    0.291E-02
RMM:  11    -0.128339013550E+02   -0.17374E-05   -0.10401E-06 50932   0.591E-03    0.143E-03
RMM:  12    -0.128339011325E+02    0.22258E-06   -0.17463E-07 48409   0.277E-03
   1 F= -.12833901E+02 E0= -.12830572E+02  d E =-.128339E+02
